
                                 *****************
                                 * O   R   C   A *
                                 *****************

                                            #,                                       
                                            ###                                      
                                            ####                                     
                                            #####                                    
                                            ######                                   
                                           ########,                                 
                                     ,,################,,,,,                         
                               ,,#################################,,                 
                          ,,##########################################,,             
                       ,#########################################, ''#####,          
                    ,#############################################,,   '####,        
                  ,##################################################,,,,####,       
                ,###########''''           ''''###############################       
              ,#####''   ,,,,##########,,,,          '''####'''          '####       
            ,##' ,,,,###########################,,,                        '##       
           ' ,,###''''                  '''############,,,                           
         ,,##''                                '''############,,,,        ,,,,,,###''
      ,#''                                            '''#######################'''  
     '                                                          ''''####''''         
             ,#######,   #######,   ,#######,      ##                                
            ,#'     '#,  ##    ##  ,#'     '#,    #''#        ,####,   ,####,        
            ##       ##  ##   ,#'  ##            #'  '#       #'       #'  '#        
            ##       ##  #######   ##           ,######,      #####,   #    #        
            '#,     ,#'  ##    ##  '#,     ,#' ,#      #,     #,   #   #,  ,#        
             '#######'   ##     ##  '#######'  #'      '#     '####' # '####'        



                #########################################################
                #                        -***-                          #
                #          Department of theory and spectroscopy        #
                #                                                       #
                #                      Frank Neese                      #
                #                                                       #
                #     Directorship, Architecture, Infrastructure        #
                #                    SHARK, DRIVERS                     #
                #        Core code/Algorithms in most modules           #
                #                                                       #
                #        Max Planck Institute fuer Kohlenforschung      #
                #                Kaiser Wilhelm Platz 1                 #
                #                 D-45470 Muelheim/Ruhr                 #
                #                      Germany                          #
                #                                                       #
                #                  All rights reserved                  #
                #                        -***-                          #
                #########################################################


                         Program Version 6.0.0  -   RELEASE  -


 With contributions from (in alphabetic order):
   Daniel Aravena         : Magnetic Suceptibility
   Michael Atanasov       : Ab Initio Ligand Field Theory (pilot matlab implementation)
   Alexander A. Auer      : GIAO ZORA, VPT2 properties, NMR spectrum
   Ute Becker             : All parallelization in ORCA, NUMFREQ, NUMCALC
   Giovanni Bistoni       : ED, misc. LED, open-shell LED, HFLD
   Martin Brehm           : Molecular dynamics
   Dmytro Bykov           : pre 5.0 version of the SCF Hessian
   Marcos Casanova-Páez   : Triplet and SCS-CIS(D). UHF-(DLPNO)-IP/EA/STEOM-CCSD. UHF-CVS-IP/STEOM-CCSD
   Vijay G. Chilkuri      : MRCI spin determinant printing, contributions to CSF-ICE
   Pauline Colinet        : FMM embedding
   Dipayan Datta          : RHF DLPNO-CCSD density
   Achintya Kumar Dutta   : EOM-CC, STEOM-CC
   Nicolas Foglia         : Exact transition moments, OPA infrastructure, MCD improvements
   Dmitry Ganyushin       : Spin-Orbit,Spin-Spin,Magnetic field MRCI
   Miquel Garcia          : C-PCM and meta-GGA Hessian, CCSD/C-PCM, Gaussian charge scheme
   Tiago L. C. Gouveia    : GS-ROHF, GS-ROCIS
   Yang Guo               : DLPNO-NEVPT2, F12-NEVPT2, CIM, IAO-localization
   Andreas Hansen         : Spin unrestricted coupled pair/coupled cluster methods
   Ingolf Harden          : AUTO-CI MPn and infrastructure 
   Benjamin Helmich-Paris : MC-RPA, TRAH-(SCF,CASSCF), AVAS, COSX integrals, SCF dyn. polar.
   Lee Huntington         : MR-EOM, pCC
   Robert Izsak           : Overlap fitted RIJCOSX, COSX-SCS-MP3, EOM
   Riya Kayal             : Wick's Theorem for AUTO-CI, AUTO-CI UHF-CCSDT
   Emily Kempfer          : AUTO-CI, RHF CISDT and CCSDT
   Christian Kollmar      : KDIIS, OOCD, Brueckner-CCSD(T), CCSD density, CASPT2, CASPT2-K, improved NEVPT2
   Axel Koslowski         : Symmetry handling
   Simone Kossmann        : Meta GGA functionals, TD-DFT gradient, OOMP2, (MP2 Hessian; deprecated post 5.0)
   Lucas Lang             : DCDCAS
   Marvin Lechner         : AUTO-CI (C++ implementation), FIC-MRCC
   Spencer Leger          : CASSCF response
   Dagmar Lenk            : GEPOL surface, SMD, ORCA-2-JSON
   Dimitrios Liakos       : Extrapolation schemes; Compound Job, initial MDCI parallelization
   Dimitrios Manganas     : Further ROCIS development; embedding schemes. LFT, Crystal Embedding
   Dimitrios Pantazis     : SARC Basis sets
   Anastasios Papadopoulos: AUTO-CI, single reference methods and gradients
   Taras Petrenko         : pre 6.0 DFT Hessian and TD-DFT gradient, (ASA, deprecated), ECA, 1-Electron XAS/XES, NRVS
   Peter Pinski           : DLPNO-MP2, DLPNO-MP2 Gradient
   Christoph Reimann      : Effective Core Potentials
   Marius Retegan         : Local ZFS, SOC
   Christoph Riplinger    : Optimizer, TS searches, QM/MM, DLPNO-CCSD(T), (RO)-DLPNO pert. Triples
   Michael Roemelt        : Original ROCIS implementation
   Masaaki Saitow         : Open-shell DLPNO-CCSD energy and density
   Barbara Sandhoefer     : DKH picture change effects
   Kantharuban Sivalingam : CASSCF convergence/infrastructure, NEVPT2 and variants, FIC-MRCI
   Bernardo de Souza      : ESD, SOC TD-DFT
   Georgi Stoychev        : AutoAux, RI-MP2 NMR, DLPNO-MP2 response, X2C
   Van Anh Tran           : RI-MP2 g-tensors
   Willem Van den Heuvel  : Paramagnetic NMR
   Zikuan Wang            : NOTCH, Electric field optimization 
   Frank Wennmohs         : Technical directorship and infrastructure
   Hang Xu                : AUTO-CI-Response properties 


 We gratefully acknowledge several colleagues who have allowed us to
 interface, adapt or use parts of their codes:
   Stefan Grimme, W. Hujo, H. Kruse, P. Pracht,  : VdW corrections, initial TS optimization,
                  C. Bannwarth, S. Ehlert,         DFT functionals, gCP, sTDA/sTD-DF
                  L. Wittmann, M. Mueller
   Ed Valeev, F. Pavosevic, A. Kumar             : LibInt (2-el integral package), F12 methods
   Garnet Chan, S. Sharma, J. Yang, R. Olivares  : DMRG
   Ulf Ekstrom                                   : XCFun DFT Library
   Mihaly Kallay                                 : mrcc  (arbitrary order and MRCC methods)
   Frank Weinhold                                : gennbo (NPA and NBO analysis)
   Simon Mueller                                 : openCOSMO-RS
   Christopher J. Cramer and Donald G. Truhlar   : smd solvation model
   Lars Goerigk                                  : TD-DFT with DH, B97 family of functionals
   V. Asgeirsson, H. Jonsson                     : NEB implementation
   FAccTs GmbH                                   : IRC, NEB, NEB-TS, DLPNO-Multilevel, CI-OPT
                                                   MM, QMMM, 2- and 3-layer-ONIOM, Crystal-QMMM,
                                                   LR-CPCM, SF, NACMEs, symmetry and pop. for TD-DFT,
                                                   nearIR, NL-DFT gradient (VV10), updates on ESD,
                                                   ML-optimized integration grids, MBIS, APM,
                                                   GOAT, DOCKER, SOLVATOR, interface openCOSMO-RS
   S Lehtola, MJT Oliveira, MAL Marques          : LibXC Library
   Liviu Ungur et al                             : ANISO software


 Your calculation uses the libint2 library for the computation of 2-el integrals
 For citations please refer to: http://libint.valeyev.net

 Your ORCA version has been built with support for libXC version: 6.2.2
 For citations please refer to: https://libxc.gitlab.io

 This ORCA versions uses:
   CBLAS   interface :  Fast vector & matrix operations
   LAPACKE interface :  Fast linear algebra routines
   SCALAPACK package :  Parallel linear algebra routines
   Shared memory     :  Shared parallel matrices
   BLAS/LAPACK       :  OpenBLAS 0.3.27  USE64BITINT DYNAMIC_ARCH NO_AFFINITY SkylakeX SINGLE_THREADED
        Core in use  :  SkylakeX
   Copyright (c) 2011-2014, The OpenBLAS Project


NOTE: MaxCore=3000 MB was set to SCF,MP2,MDCI,CIPSI,MRCI and CIS
      => If you want to overwrite this, your respective input block should be placed after the MaxCore statement
Your calculation utilizes the atom-pairwise dispersion correction
with the Becke-Johnson damping scheme (D3BJ)


Your calculation utilizes the SMD solvation module
Please cite in your paper:
A.V. Marenich, C.J. Cramer, D.G. Truhlar J. Phys. Chem. B, 113, (2009), 6378 

Warning: RI is on but no J-basis has been assigned. Assigning Def2/J (nothing to worry about!)
================================================================================

----- Orbital basis set information -----
Your calculation utilizes the basis: aug-cc-pVTZ 
    H, B-Ne : Obtained from the ccRepo (grant-hill.group.shef.ac.uk/ccrepo) Feb. 2017
              R. A. Kendall, T. H. Dunning, Jr., R. J. Harrison, J. Chem. Phys. 96, 6796 (1992)
         He : Obtained from the ccRepo (grant-hill.group.shef.ac.uk/ccrepo) Feb. 2017
              D. E. Woon, T. H. Dunning, Jr., J. Chem. Phys. 100, 2975 (1994)
  Li-Be, Na : Obtained from the ccRepo (grant-hill.group.shef.ac.uk/ccrepo) Feb. 2017
              B. P. Prascher, D. E. Woon, K. A. Peterson, T. H. Dunning, Jr., A. K. Wilson, Theor. Chem. Acc. 128, 69 (2011)
         Mg : Obtained from the Peterson Research Group Website (tyr0.chem.wsu.edu/~kipeters) Feb. 2017
              B. P. Prascher, D. E. Woon, K. A. Peterson, T. H. Dunning, Jr., A. K. Wilson, Theor. Chem. Acc. 128, 69 (2011)
      Al-Ar : Obtained from the ccRepo (grant-hill.group.shef.ac.uk/ccrepo) Feb. 2017
              D. E. Woon, T. H. Dunning, Jr., J. Chem. Phys. 98, 1358 (1993)
      Sc-Zn : Obtained from the ccRepo (grant-hill.group.shef.ac.uk/ccrepo) Feb. 2017
              N. B. Balabanov, K. A. Peterson, J. Chem. Phys. 123, 064107 (2005)
              N. B. Balabanov, K. A. Peterson, J. Chem. Phys. 125, 074110 (2006)
      Ga-Kr : Obtained from the ccRepo (grant-hill.group.shef.ac.uk/ccrepo) Feb. 2017
              A. K. Wilson, D. E. Woon, K. A. Peterson, T. H. Dunning, Jr., J. Chem. Phys. 110, 7667 (1999)
     Ag, Au : Obtained from the Peterson Research Group Website (tyr0.chem.wsu.edu/~kipeters) Feb. 2017
              K. A. Peterson, C. Puzzarini, Theor. Chem. Acc. 114, 283 (2005)

----- AuxJ basis set information -----
Your calculation utilizes the auxiliary basis: def2/J
   F. Weigend, Phys. Chem. Chem. Phys. 8, 1057 (2006).

================================================================================
                                        WARNINGS
                       Please study these warnings very carefully!
================================================================================

Using LibXC functional ID 497 : Re-regularized SCAN exchange by Furness et al
[ 1]  J. W. Furness, A. D. Kaplan, J. Ning, J. P. Perdew, and J. Sun.,  J. Phys. Chem. Lett. 11, 8208-8215 (2020)
[ 2]  J. W. Furness, A. D. Kaplan, J. Ning, J. P. Perdew, and J. Sun.,  J. Phys. Chem. Lett. 11, 9248-9248 (2020)
Using LibXC functional ID 498 : Re-regularized SCAN correlation by Furness et al
[ 1]  J. W. Furness, A. D. Kaplan, J. Ning, J. P. Perdew, and J. Sun.,  J. Phys. Chem. Lett. 11, 8208-8215 (2020)
[ 2]  J. W. Furness, A. D. Kaplan, J. Ning, J. P. Perdew, and J. Sun.,  J. Phys. Chem. Lett. 11, 9248-9248 (2020)
Using LibXC functional ID 497 : Re-regularized SCAN exchange by Furness et al
[ 1]  J. W. Furness, A. D. Kaplan, J. Ning, J. P. Perdew, and J. Sun.,  J. Phys. Chem. Lett. 11, 8208-8215 (2020)
[ 2]  J. W. Furness, A. D. Kaplan, J. Ning, J. P. Perdew, and J. Sun.,  J. Phys. Chem. Lett. 11, 9248-9248 (2020)
Using LibXC functional ID 498 : Re-regularized SCAN correlation by Furness et al
[ 1]  J. W. Furness, A. D. Kaplan, J. Ning, J. P. Perdew, and J. Sun.,  J. Phys. Chem. Lett. 11, 8208-8215 (2020)
[ 2]  J. W. Furness, A. D. Kaplan, J. Ning, J. P. Perdew, and J. Sun.,  J. Phys. Chem. Lett. 11, 9248-9248 (2020)


WARNING: Found flag for RIJCOSX approximation but no HF exchange needed!
  ===> : RIJCOSX  will be disabled and Split-RI-J is turned on

WARNING: your system is open-shell and RHF/RKS was chosen
  ===> : WILL SWITCH to UHF/UKS


================================================================================
                                       INPUT FILE
================================================================================
NAME = cs_rporg_064_ox_solv_03.inp
|  1> !r2SCAN aug-cc-pVTZ d3 TightSCF SlowConv RIJCOSX defgrid2
|  2>  
|  3> %pal
|  4> nprocs 4
|  5> end
|  6>  
|  7> %scf
|  8> MaxIter 1500
|  9> end
| 10>  
| 11> %maxcore 3000
| 12>  
| 13> !CPCM
| 14> %cpcm smd true
| 15> SMDsolvent "MeCN"
| 16> surfacetype gepol_ses
| 17> rsolv 2.19
| 18> end 
| 19>  
| 20> * xyz 1 2
| 21> C          -0.71556742602470      1.41147124580485      0.02484351393648
| 22> C          -1.89485758612148      0.71255037175673      0.02185452188149
| 23> C          -1.89490487228878     -0.71243606709823     -0.02184786737407
| 24> C          -0.71566014748267     -1.41143906203058     -0.02485534134414
| 25> C           0.52378178615536     -0.72580780509331      0.02738184725448
| 26> N           1.67880733273848     -1.40323460000137      0.12447426704281
| 27> H           2.54767175517770     -0.96635780966427      0.41412881989197
| 28> H           1.66526481618075     -2.41979612436391      0.15230682810719
| 29> C           0.52382964238816      0.72575250329787     -0.02740743022416
| 30> N           1.67888414838919      1.40311105146924     -0.12454542200936
| 31> H           2.54775915845719      0.96616221930099     -0.41405341714921
| 32> H           1.66540525229882      2.41967119375531     -0.15237138517056
| 33> H          -0.71326686493866     -2.50469578941709     -0.02461886159088
| 34> H          -2.84575934012086     -1.25136953209334     -0.03502634075607
| 35> H          -2.84567429105713      1.25154580034325      0.03504989002360
| 36> H          -0.71309356375136      2.50472700403386      0.02461197748042
| 37> *
| 38> 
| 39>                          ****END OF INPUT****
================================================================================

                       ****************************
                       * Single Point Calculation *
                       ****************************

---------------------------------
CARTESIAN COORDINATES (ANGSTROEM)
---------------------------------
  C     -0.715567    1.411471    0.024844
  C     -1.894858    0.712550    0.021855
  C     -1.894905   -0.712436   -0.021848
  C     -0.715660   -1.411439   -0.024855
  C      0.523782   -0.725808    0.027382
  N      1.678807   -1.403235    0.124474
  H      2.547672   -0.966358    0.414129
  H      1.665265   -2.419796    0.152307
  C      0.523830    0.725753   -0.027407
  N      1.678884    1.403111   -0.124545
  H      2.547759    0.966162   -0.414053
  H      1.665405    2.419671   -0.152371
  H     -0.713267   -2.504696   -0.024619
  H     -2.845759   -1.251370   -0.035026
  H     -2.845674    1.251546    0.035050
  H     -0.713094    2.504727    0.024612

----------------------------
CARTESIAN COORDINATES (A.U.)
----------------------------
  NO LB      ZA    FRAG     MASS         X           Y           Z
   0 C     6.0000    0    12.011   -1.352226    2.667294    0.046947
   1 C     6.0000    0    12.011   -3.580762    1.346525    0.041299
   2 C     6.0000    0    12.011   -3.580851   -1.346309   -0.041286
   3 C     6.0000    0    12.011   -1.352402   -2.667233   -0.046970
   4 C     6.0000    0    12.011    0.989804   -1.371578    0.051744
   5 N     7.0000    0    14.007    3.172486   -2.651729    0.235222
   6 H     1.0000    0     1.008    4.814402   -1.826152    0.782590
   7 H     1.0000    0     1.008    3.146894   -4.572752    0.287818
   8 C     6.0000    0    12.011    0.989895    1.371473   -0.051793
   9 N     7.0000    0    14.007    3.172631    2.651496   -0.235357
  10 H     1.0000    0     1.008    4.814567    1.825782   -0.782448
  11 H     1.0000    0     1.008    3.147160    4.572516   -0.287940
  12 H     1.0000    0     1.008   -1.347879   -4.733189   -0.046523
  13 H     1.0000    0     1.008   -5.377706   -2.364746   -0.066190
  14 H     1.0000    0     1.008   -5.377545    2.365079    0.066235
  15 H     1.0000    0     1.008   -1.347552    4.733248    0.046510

--------------------------------
INTERNAL COORDINATES (ANGSTROEM)
--------------------------------
 C      0   0   0     0.000000000000     0.00000000     0.00000000
 C      1   0   0     1.370848133075     0.00000000     0.00000000
 C      2   1   0     1.425656428451   120.64393939     0.00000000
 C      3   2   1     1.370850959371   120.64408418     1.79066382
 C      4   3   2     1.417404406379   120.36380021     0.55436321
 N      5   4   3     1.342541624569   120.72344187   175.04621414
 H      6   5   4     1.014734681827   122.68749186   197.07534142
 H      6   5   4     1.017032636656   119.66149783     0.56309521
 C      1   2   3     1.417408003428   120.36376676     0.55409314
 N      9   1   2     1.342535401419   120.72264893   175.04482446
 H     10   9   1     1.014732942357   122.68859343   197.06439004
 H     10   9   1     1.017030229516   119.66189084     0.56514396
 H      4   3   2     1.093259372564   120.78285988   177.94332546
 H      3   2   1     1.093044907974   119.55269032   180.69395743
 H      2   1   3     1.093042815338   119.79429549   181.09921735
 H      1   2   3     1.093258581720   120.78316401   177.94363102

---------------------------
INTERNAL COORDINATES (A.U.)
---------------------------
 C      0   0   0     0.000000000000     0.00000000     0.00000000
 C      1   0   0     2.590527542709     0.00000000     0.00000000
 C      2   1   0     2.694100210836   120.64393939     0.00000000
 C      3   2   1     2.590532883634   120.64408418     1.79066382
 C      4   3   2     2.678506149069   120.36380021     0.55436321
 N      5   4   3     2.537035993824   120.72344187   175.04621414
 H      6   5   4     1.917570647244   122.68749186   197.07534142
 H      6   5   4     1.921913152541   119.66149783     0.56309521
 C      1   2   3     2.678512946507   120.36376676     0.55409314
 N      9   1   2     2.537024233775   120.72264893   175.04482446
 H     10   9   1     1.917567360122   122.68859343   197.06439004
 H     10   9   1     1.921908603705   119.66189084     0.56514396
 H      4   3   2     2.065960807489   120.78285988   177.94332546
 H      3   2   1     2.065555528149   119.55269032   180.69395743
 H      2   1   3     2.065551573639   119.79429549   181.09921735
 H      1   2   3     2.065959313010   120.78316401   177.94363102

---------------------
BASIS SET INFORMATION
---------------------
There are 3 groups of distinct atoms

 Group   1 Type C   : 19s6p3d2f contracted to 5s4p3d2f pattern {88111/3111/111/11}
 Group   2 Type N   : 19s6p3d2f contracted to 5s4p3d2f pattern {88111/3111/111/11}
 Group   3 Type H   : 6s3p2d contracted to 4s3p2d pattern {3111/111/11}

Atom   0C    basis set group =>   1
Atom   1C    basis set group =>   1
Atom   2C    basis set group =>   1
Atom   3C    basis set group =>   1
Atom   4C    basis set group =>   1
Atom   5N    basis set group =>   2
Atom   6H    basis set group =>   3
Atom   7H    basis set group =>   3
Atom   8C    basis set group =>   1
Atom   9N    basis set group =>   2
Atom  10H    basis set group =>   3
Atom  11H    basis set group =>   3
Atom  12H    basis set group =>   3
Atom  13H    basis set group =>   3
Atom  14H    basis set group =>   3
Atom  15H    basis set group =>   3
---------------------------------
AUXILIARY/J BASIS SET INFORMATION
---------------------------------
There are 3 groups of distinct atoms

 Group   1 Type C   : 12s5p4d2f1g contracted to 6s4p3d1f1g pattern {711111/2111/211/2/1}
 Group   2 Type N   : 12s5p4d2f1g contracted to 6s4p3d1f1g pattern {711111/2111/211/2/1}
 Group   3 Type H   : 5s2p1d contracted to 3s1p1d pattern {311/2/1}

Atom   0C    basis set group =>   1
Atom   1C    basis set group =>   1
Atom   2C    basis set group =>   1
Atom   3C    basis set group =>   1
Atom   4C    basis set group =>   1
Atom   5N    basis set group =>   2
Atom   6H    basis set group =>   3
Atom   7H    basis set group =>   3
Atom   8C    basis set group =>   1
Atom   9N    basis set group =>   2
Atom  10H    basis set group =>   3
Atom  11H    basis set group =>   3
Atom  12H    basis set group =>   3
Atom  13H    basis set group =>   3
Atom  14H    basis set group =>   3
Atom  15H    basis set group =>   3


           ************************************************************
           *        Program running with 4 parallel MPI-processes     *
           *              working on a common directory               *
           ************************************************************
------------------------------------------------------------------------------
                             ORCA STARTUP CALCULATIONS
                           -- RI-GTO INTEGRALS CHOSEN --
------------------------------------------------------------------------------
------------------------------------------------------------------------------
                   ___                                                        
                  /   \      - P O W E R E D   B Y -                         
                 /     \                                                     
                 |  |  |   _    _      __       _____    __    __             
                 |  |  |  | |  | |    /  \     |  _  \  |  |  /  |          
                  \  \/   | |  | |   /    \    | | | |  |  | /  /          
                 / \  \   | |__| |  /  /\  \   | |_| |  |  |/  /          
                |  |  |   |  __  | /  /__\  \  |    /   |      \           
                |  |  |   | |  | | |   __   |  |    \   |  |\   \          
                \     /   | |  | | |  |  |  |  | |\  \  |  | \   \       
                 \___/    |_|  |_| |__|  |__|  |_| \__\ |__|  \__/        
                                                                              
                      - O R C A' S   B I G   F R I E N D -                    
                                      &                                       
                       - I N T E G R A L  F E E D E R -                       
                                                                              
 v1 FN, 2020, v2 2021, v3 2022-2024                                           
------------------------------------------------------------------------------


----------------------
SHARK INTEGRAL PACKAGE
----------------------

Number of atoms                             ...     16
Number of basis functions                   ...    600
Number of shells                            ...    232
Maximum angular momentum                    ...      3
Integral batch strategy                     ... SHARK/LIBINT Hybrid
RI-J (if used) integral strategy            ... SPLIT-RIJ (Revised 2003 algorithm where possible)
Printlevel                                  ...      1
Contraction scheme used                     ... PARTIAL GENERAL contraction
Prescreening option                         ... SCHWARTZ
   Thresh                                   ... 2.500e-11
   Tcut                                     ... 2.500e-12
   Tpresel                                  ... 2.500e-12 
Coulomb Range Separation                    ... NOT USED
Exchange Range Separation                   ... NOT USED
Multipole approximations                    ... NOT USED
Finite Nucleus Model                        ... NOT USED
CABS basis                                  ... NOT available
Auxiliary Coulomb fitting basis             ... AVAILABLE
   # of basis functions in Aux-J            ...    480
   # of shells in Aux-J                     ...    160
   Maximum angular momentum in Aux-J        ...      4
Auxiliary J/K fitting basis                 ... NOT available
Auxiliary Correlation fitting basis         ... NOT available
Auxiliary 'external' fitting basis          ... NOT available

Checking pre-screening integrals            ... done (  0.1 sec) Dimension = 232
Save PGC pre-screening integrals            ... done (  0.1 sec) Dimension = 232
Calculate PGC overlap integrals             ... done (  0.3 sec) Dimension = 184
Calculating pre-screening integrals (ORCA)  ... done (  0.4 sec) Dimension = 184
Check shell pair data                       ... done (  0.0 sec)
Shell pair information
Shell pair cut-off parameter TPreSel        ...   2.5e-12
Total number of shell pairs                 ...     27028
Shell pairs after pre-screening             ...     23660
Total number of primitive shell pairs       ...     35028
Primitive shell pairs kept                  ...     28628
          la=0 lb=0:   5408 shell pairs
          la=1 lb=0:   6020 shell pairs
          la=1 lb=1:   1526 shell pairs
          la=2 lb=0:   4312 shell pairs
          la=2 lb=1:   2144 shell pairs
          la=2 lb=2:    786 shell pairs
          la=3 lb=0:   1818 shell pairs
          la=3 lb=1:    880 shell pairs
          la=3 lb=2:    630 shell pairs
          la=3 lb=3:    136 shell pairs

Calculating one electron integrals          ... done (  0.0 sec)
Calculating RI/J V-Matrix + Cholesky decomp.... done (  0.1 sec)
Calculating Nuclear repulsion               ... done (  0.0 sec) ENN=    350.947004194980 Eh

Diagonalization of the overlap matrix:
Smallest eigenvalue                        ... 7.488e-07
Time for diagonalization                   ...    0.049 sec
Threshold for overlap eigenvalues          ... 1.000e-07
Number of eigenvalues below threshold      ... 0

IMPORTANT:
Smallest eigenvalue of S below the DiffSThresh (1.000e-06) while
Thresh>1e-12 and/or TCut>1e-13! In order to avoid SCF convergence issues,
Thresh will be set to at least 1e-12 and TCut to at least 1e-13.
This can be turned off by adding %SCF DiffSThresh -1 END to the input.

Time for construction of square roots      ...    0.046 sec
Total time needed                          ...    0.127 sec

-------------------
DFT GRID GENERATION
-------------------

General Integration Accuracy     IntAcc      ... 4.388
Radial Grid Type                 RadialGrid  ... OptM3 with GC (2021)
Angular Grid (max. ang.)         AngularGrid ... 4 (Lebedev-302)
Angular grid pruning method      GridPruning ... 4 (adaptive)
Weight generation scheme         WeightScheme... mBecke (2022)
Basis function cutoff            BFCut       ... 1.0000e-11
Integration weight cutoff        WCut        ... 1.0000e-14
Partially contracted basis set               ... off
Rotationally invariant grid construction     ... off
Angular grids for H and He will be reduced by one unit
Diffuse basis detected: some atoms will have their outermost
                        angular grid increased by 1.

Total number of grid points                  ...    77516
Total number of batches                      ...     1220
Average number of points per batch           ...       63
Average number of grid points per atom       ...     4845

---------------------
SHARK GRID GENERATION
---------------------

General Integration Accuracy     IntAcc      ... 4.388
Radial Grid Type                 RadialGrid  ... OptM3 with GC (2021)
Angular Grid (max. ang.)         AngularGrid ... 4 (Lebedev-302)
Angular grid pruning method      GridPruning ... 4 (adaptive)
Weight generation scheme         WeightScheme... mBecke (2022)
Basis function cutoff            BFCut       ... 1.0000e-11
Integration weight cutoff        WCut        ... 1.0000e-14
Partially contracted basis set               ... off
Rotationally invariant grid construction     ... off
Angular grids for H and He will be reduced by one unit
Diffuse basis detected: some atoms will have their outermost
                        angular grid increased by 1.
Steep s-basis detected: some atoms will have their radial
                        grid points doubled.

Total number of grid points                  ...   128070
Total number of batches                      ...     2010
Average number of points per batch           ...       63
Average number of grid points per atom       ...     8004
Initializing property integral containers    ... done (  0.1 sec)

SHARK setup successfully completed in   5.3 seconds

Maximum memory used throughout the entire STARTUP-calculation: 62.0 MB


           ************************************************************
           *        Program running with 4 parallel MPI-processes     *
           *              working on a common directory               *
           ************************************************************
-------------------------------------------------------------------------------
                                 ORCA GUESS
                   Start orbitals & Density for SCF / CASSCF
-------------------------------------------------------------------------------

------------
SCF SETTINGS
------------
Hamiltonian:
 Density Functional     Method          .... DFT(GTOs)
  Functional kind                       .... Exchange
  Functional name                       .... Re-regularized SCAN exchange by Furness et al
  Functional family                     .... MGGA
  Functional refs                              
    [ 0] J. W. Furness, A. D. Kaplan, J. Ning, J. P. Perdew, and J. Sun.,  J. Phys. Chem. Lett. 11, 8208-8215 (2020), doi: 10.1021/acs.jpclett.0c02405
    [ 1] J. W. Furness, A. D. Kaplan, J. Ning, J. P. Perdew, and J. Sun.,  J. Phys. Chem. Lett. 11, 9248-9248 (2020), doi: 10.1021/acs.jpclett.0c03077
  Functional external parameters        .... 6
    Parameter  0 _c1        =  6.670000e-01 : c1 parameter        
    Parameter  1 _c2        =  8.000000e-01 : c2 parameter        
    Parameter  2 _d         =  1.240000e+00 : d parameter         
    Parameter  3 _k1        =  6.500000e-02 : k1 parameter        
    Parameter  4 _eta       =  1.000000e-03 : eta parameter       
    Parameter  5 _dp2       =  3.610000e-01 : dp2 parameter       
  Functional kind                       .... Correlation
  Functional name                       .... Re-regularized SCAN correlation by Furness et al
  Functional family                     .... MGGA
  Functional refs                              
    [ 0] J. W. Furness, A. D. Kaplan, J. Ning, J. P. Perdew, and J. Sun.,  J. Phys. Chem. Lett. 11, 8208-8215 (2020), doi: 10.1021/acs.jpclett.0c02405
    [ 1] J. W. Furness, A. D. Kaplan, J. Ning, J. P. Perdew, and J. Sun.,  J. Phys. Chem. Lett. 11, 9248-9248 (2020), doi: 10.1021/acs.jpclett.0c03077
  Functional external parameters        .... 1
    Parameter  0 _eta       =  1.000000e-03 : Regularization parameter
 Gradients option       PostSCFGGA      .... off
   NL short-range parameter             .... 12.300000
 RI-approximation to the Coulomb term is turned on
   Number of AuxJ basis functions       .... 480


General Settings:
 Integral files         IntName         .... cs_rporg_064_ox_solv_03
 Hartree-Fock type      HFTyp           .... UHF
 Total Charge           Charge          ....    1
 Multiplicity           Mult            ....    2
 Number of Electrons    NEL             ....   57
 Basis Dimension        Dim             ....  552
 Nuclear Repulsion      ENuc            ....    350.9470041950 Eh

Convergence Acceleration:
 AO-DIIS                CNVDIIS         .... on
   Start iteration      DIISMaxIt       ....     0
   Startup error        DIISStart       ....  0.200000
   # of expansion vecs  DIISMaxEq       ....     5
   Bias factor          DIISBfac        ....   1.050
   Max. coefficient     DIISMaxC        ....  10.000
 MO-DIIS                CNVKDIIS        .... off
 Trust-Rad. Augm. Hess. CNVTRAH         .... auto
   Auto Start mean grad. ratio tolernc. ....  1.125000
   Auto Start start iteration           ....    50
   Auto Start num. interpolation iter.  ....    10
   Max. Number of Micro iterations      ....    24
   Max. Number of Macro iterations      .... Maxiter - #DIIS iter
   Number of Davidson start vectors     ....     2
   Converg. threshold    (grad. norm)   ....   1.000e-05
   Grad. Scal. Fac. for Micro threshold ....   0.100
   Minimum threshold for Micro iter.    ....   1.000e-02
   NR start threshold (gradient norm)   ....   1.000e-04
   Initial trust radius                 ....   0.400
   Minimum AH scaling param. (alpha)    ....   1.000
   Maximum AH scaling param. (alpha)    .... 1000.000
   Quad. conv. algorithm                .... NR
   White noise on init. David. guess    .... on
   Maximum white noise                  ....   0.010
   Pseudo random numbers                .... off
   Inactive MOs                         .... canonical
   Orbital update algorithm             .... Taylor
   Preconditioner                       .... Diag
   Full preconditioner red. dimension   ....   250
 SOSCF                  CNVSOSCF        .... on
   Start iteration      SOSCFMaxIt      ....   150
   Startup grad/error   SOSCFStart      ....  0.001000
   Hessian update       SOSCFHessUp     .... L-BFGS
 Level Shifting         CNVShift        .... on
   Level shift para.    LevelShift      ....    0.2500
   Turn off err/grad.   ShiftErr        ....    0.0000
 Zerner damping         CNVZerner       .... off
 Static damping         CNVDamp         .... on
   Fraction old density DampFac         ....    0.8500
   Max. Damping (<1)    DampMax         ....    0.9800
   Min. Damping (>=0)   DampMin         ....    0.0000
   Turn off err/grad.   DampErr         ....    0.0300

SCF Procedure:
 Maximum # iterations   MaxIter         ....  1500
 SCF integral mode      SCFMode         .... Direct
   Integral package                     .... SHARK and LIBINT hybrid scheme
 Reset frequency        DirectResetFreq ....    20
 Integral Threshold     Thresh          ....  1.000e-12 Eh
 Primitive CutOff       TCut            ....  1.000e-13 Eh

Convergence Tolerance:
 Convergence Check Mode ConvCheckMode   .... Total+1el-Energy
 Convergence forced     ConvForced      .... 0
 Energy Change          TolE            ....  1.000e-08 Eh
 1-El. energy change                    ....  1.000e-05 Eh
 Orbital Gradient       TolG            ....  1.000e-05
 Orbital Rotation angle TolX            ....  1.000e-05
 DIIS Error             TolErr          ....  5.000e-07

------------------------------
INITIAL GUESS: MODEL POTENTIAL
------------------------------
Loading Hartree-Fock densities                     ... done
Calculating cut-offs                               ... done
Initializing the effective Hamiltonian             ... done
Setting up the integral package (SHARK)            ... done
Starting the Coulomb interaction                   ... done (   0.5 sec)
Making the grid                                    ... done (   0.3 sec)
Mapping shells                                     ... done
Starting the XC term evaluation                    ... done (   0.8 sec)
  promolecular density results
     # of electrons  =     57.992058703
     EX              =    -46.150766382
     EC              =     -1.920865570
     EX+EC           =    -48.071631952
Transforming the Hamiltonian                       ... done (   0.0 sec)
Diagonalizing the Hamiltonian                      ... done (   0.1 sec)
Back transforming the eigenvectors                 ... done (   0.1 sec)
Now organizing SCF variables                       ... done
                      ------------------
                      INITIAL GUESS DONE (   2.1 sec)
                      ------------------
             **** ENERGY FILE WAS UPDATED (cs_rporg_064_ox_solv_03.en.tmp) ****
Finished Guess after   3.1 sec
Maximum memory used throughout the entire GUESS-calculation: 44.1 MB


           ************************************************************
           *        Program running with 4 parallel MPI-processes     *
           *              working on a common directory               *
           ************************************************************

-------------------------------------------------------------------------------------------
                                      ORCA LEAN-SCF
                              memory conserving SCF solver
-------------------------------------------------------------------------------------------

--------------------
CPCM SOLVATION MODEL
--------------------
CPCM parameters:
  Epsilon                                         ...      35.6880
  Refrac                                          ...       1.3442
  Rsolv                                           ...       2.1900
  Surface type                                    ...    GEPOL SES
  Discretization scheme                           ... Constant num. charges
  Epsilon function type                           ...         CPCM
Solvent:                                          ... ACETONITRILE
SMD-CDS solvent descriptors:
  Soln                                            ...       1.3442
  Soln25                                          ...       1.3416
  Sola                                            ...       0.0700
  Solb                                            ...       0.3200
  Solg                                            ...      41.2500
  Solc                                            ...       0.0000
  Solh                                            ...       0.0000
Radii:
  Scheme                                          ... Element-dependent radii
  Radius for C  used is    3.4960 Bohr (=   1.8500 Ang.)
  Radius for N  used is    3.5716 Bohr (=   1.8900 Ang.)
  Radius for H  used is    2.2677 Bohr (=   1.2000 Ang.)
Calculating surface                               ...        done! (  0.0s)
Cavity surface points                             ...          510
Cavity Volume                                     ...     851.7904
Cavity Surface-area                               ...     503.2266
Calculating surface distance matrix               ...        done! (  0.0s)
Performing Cholesky decomposition & store         ...        done! (  0.0s)
Overall time for CPCM initialization              ...                 0.1s

----------------------------------------D-I-I-S--------------------------------------------
Iteration    Energy (Eh)           Delta-E    RMSDP     MaxDP     DIISErr   Damp  Time(sec)
-------------------------------------------------------------------------------------------
               ***  Starting incremental Fock matrix formation  ***
    1    -342.5842816171813183     0.00e+00  5.06e-04  2.23e-02  9.25e-02  0.850  13.2
Warning: op=1 Small HOMO/LUMO gap (   0.041) - skipping pre-diagonalization
         Will do a full diagonalization
    2    -342.6251758894187560    -4.09e-02  3.75e-04  1.35e-02  6.89e-02  0.850  14.1
                               ***Turning on AO-DIIS***
    3    -342.6519795134778406    -2.68e-02  2.97e-04  1.21e-02  4.76e-02  0.850  12.4
    4    -342.6692915173699703    -1.73e-02  2.65e-04  1.23e-02  3.83e-02  0.850  12.5
    5    -342.6818020107638176    -1.25e-02  2.50e-04  1.16e-02  3.23e-02  0.850  11.6
    6    -342.6916205903324908    -9.82e-03  2.30e-04  1.05e-02  2.75e-02  0.850  12.3
    7    -342.6996481152319802    -8.03e-03  1.38e-03  6.20e-02  2.32e-02  0.000  12.2
    8    -342.7401196178052487    -4.05e-02  6.11e-05  3.44e-03  3.43e-03  0.000  12.3
    9    -342.7401964495245466    -7.68e-05  3.32e-05  1.86e-03  1.66e-03  0.000  11.5
                              *** Initializing SOSCF ***
---------------------------------------S-O-S-C-F--------------------------------------
Iteration    Energy (Eh)           Delta-E    RMSDP     MaxDP     MaxGrad    Time(sec)
--------------------------------------------------------------------------------------
   10    -342.7402483530546533    -5.19e-05  2.60e-05  2.09e-03  4.52e-04    11.4
               *** Restarting incremental Fock matrix formation ***
   11    -342.7402538360024664    -5.48e-06  1.68e-05  1.65e-03  2.60e-04    13.9
   12    -342.7402550629293501    -1.23e-06  1.23e-05  1.04e-03  2.46e-04     9.5
   13    -342.7402564266009222    -1.36e-06  6.71e-06  6.33e-04  5.16e-05     9.5
   14    -342.7402564793528654    -5.28e-08  3.22e-06  3.11e-04  4.09e-05     9.1
   15    -342.7402565273926029    -4.80e-08  1.61e-06  1.28e-04  1.03e-05     9.3
   16    -342.7402565390913196    -1.17e-08  5.77e-07  4.87e-05  5.12e-06     8.6
   17    -342.7402565288963388     1.02e-08  4.15e-07  2.83e-05  4.32e-06     9.3
   18    -342.7402565220421593     6.85e-09  2.91e-07  2.50e-05  1.76e-06     9.1
                 **** Energy Check signals convergence ****

               *****************************************************
               *                     SUCCESS                       *
               *           SCF CONVERGED AFTER  18 CYCLES          *
               *****************************************************


SMD CDS free energy correction energy :                -0.22223     Kcal/mol
Total Energy after SMD CDS correction =              -342.740610670 Eh
             **** ENERGY FILE WAS UPDATED (cs_rporg_064_ox_solv_03.en.tmp) ****

----------------
TOTAL SCF ENERGY
----------------

Total Energy       :       -342.74061066999167 Eh           -9326.44616 eV

Components:
Nuclear Repulsion  :        350.94700419497963 Eh            9549.75348 eV
Electronic Energy  :       -693.58758477948766 Eh          -18873.47769 eV
One Electron Energy:      -1146.66202845658972 Eh          -31202.26009 eV
Two Electron Energy:        453.07444367710207 Eh           12328.78240 eV
CPCM Dielectric    :         -0.09967593753409 Eh              -2.71232 eV
SMD CDS (Gcds)     :         -0.00035414794952 Eh              -0.00964 eV

Virial components:
Potential Energy   :       -683.37999227511546 Eh          -18595.71498 eV
Kinetic Energy     :        340.63938160512373 Eh            9269.26881 eV
Virial Ratio       :          2.00616848543749

DFT components:
N(Alpha)           :       29.000011976949 electrons
N(Beta)            :       28.000014389807 electrons
N(Total)           :       57.000026366756 electrons
E(X)               :      -47.096544938022 Eh       
E(C)               :       -1.839697034028 Eh       
E(XC)              :      -48.936241972050 Eh       

CPCM Solvation Model Properties:
Surface-charge          :         -1.03002663538119
Corrected charge        :         -1.00000000000000
Outlying charge corr.   :          0.00007062662747 Eh               0.00192 eV
Free-energy (cav+disp)  :         -0.00035414794952 Eh              -0.00964 eV

---------------
SCF CONVERGENCE
---------------

  Last Energy change         ...   -6.8542e-09  Tolerance :   1.0000e-08
  Last MAX-Density change    ...    2.5030e-05  Tolerance :   1.0000e-07
  Last RMS-Density change    ...    2.9114e-07  Tolerance :   5.0000e-09
  Last DIIS Error            ...    4.5163e-04  Tolerance :   5.0000e-07
  Last Orbital Gradient      ...    1.7604e-06  Tolerance :   1.0000e-05
  Last Orbital Rotation      ...    5.0555e-06  Tolerance :   1.0000e-05


----------------------
UHF SPIN CONTAMINATION
----------------------

Warning: in a DFT calculation there is little theoretical justification to 
         calculate <S**2> as in Hartree-Fock theory. We will do it anyways
         but you should keep in mind that the values have only limited relevance

Expectation value of <S**2>     :     0.757843
Ideal value S*(S+1) for S=0.5   :     0.750000
Deviation                       :     0.007843

----------------
ORBITAL ENERGIES
----------------
                 SPIN UP ORBITALS
  NO   OCC          E(Eh)            E(eV) 
   0   1.0000     -14.229814      -387.2129 
   1   1.0000     -14.229793      -387.2123 
   2   1.0000     -10.135373      -275.7975 
   3   1.0000     -10.135106      -275.7903 
   4   1.0000     -10.069497      -274.0049 
   5   1.0000     -10.069153      -273.9956 
   6   1.0000     -10.063960      -273.8543 
   7   1.0000     -10.063941      -273.8538 
   8   1.0000      -0.961386       -26.1607 
   9   1.0000      -0.920564       -25.0498 
  10   1.0000      -0.832729       -22.6597 
  11   1.0000      -0.738173       -20.0867 
  12   1.0000      -0.724116       -19.7042 
  13   1.0000      -0.621643       -16.9158 
  14   1.0000      -0.611956       -16.6522 
  15   1.0000      -0.551354       -15.0031 
  16   1.0000      -0.523009       -14.2318 
  17   1.0000      -0.517164       -14.0727 
  18   1.0000      -0.486133       -13.2284 
  19   1.0000      -0.445024       -12.1097 
  20   1.0000      -0.426184       -11.5971 
  21   1.0000      -0.423549       -11.5253 
  22   1.0000      -0.420317       -11.4374 
  23   1.0000      -0.359582        -9.7847 
  24   1.0000      -0.356262        -9.6944 
  25   1.0000      -0.339270        -9.2320 
  26   1.0000      -0.329708        -8.9718 
  27   1.0000      -0.247446        -6.7333 
  28   1.0000      -0.210883        -5.7384 
  29   0.0000      -0.057245        -1.5577 
  30   0.0000      -0.053739        -1.4623 
  31   0.0000      -0.001819        -0.0495 
  32   0.0000       0.013915         0.3786 
  33   0.0000       0.018708         0.5091 
  34   0.0000       0.036423         0.9911 
  35   0.0000       0.040166         1.0930 
  36   0.0000       0.041270         1.1230 
  37   0.0000       0.046862         1.2752 
  38   0.0000       0.060018         1.6332 
  39   0.0000       0.062034         1.6880 

                 SPIN DOWN ORBITALS
  NO   OCC          E(Eh)            E(eV) 
   0   1.0000     -14.223765      -387.0483 
   1   1.0000     -14.223742      -387.0477 
   2   1.0000     -10.132435      -275.7176 
   3   1.0000     -10.132171      -275.7104 
   4   1.0000     -10.067283      -273.9447 
   5   1.0000     -10.066943      -273.9354 
   6   1.0000     -10.064379      -273.8657 
   7   1.0000     -10.064362      -273.8652 
   8   1.0000      -0.951840       -25.9009 
   9   1.0000      -0.910447       -24.7745 
  10   1.0000      -0.826294       -22.4846 
  11   1.0000      -0.735340       -20.0096 
  12   1.0000      -0.711838       -19.3701 
  13   1.0000      -0.618228       -16.8228 
  14   1.0000      -0.606555       -16.5052 
  15   1.0000      -0.548195       -14.9171 
  16   1.0000      -0.520906       -14.1746 
  17   1.0000      -0.513899       -13.9839 
  18   1.0000      -0.481818       -13.1109 
  19   1.0000      -0.442542       -12.0422 
  20   1.0000      -0.420556       -11.4439 
  21   1.0000      -0.419280       -11.4092 
  22   1.0000      -0.403091       -10.9687 
  23   1.0000      -0.357896        -9.7389 
  24   1.0000      -0.341514        -9.2931 
  25   1.0000      -0.327999        -8.9253 
  26   1.0000      -0.311019        -8.4633 
  27   1.0000      -0.236614        -6.4386 
  28   0.0000      -0.175151        -4.7661 
  29   0.0000      -0.044734        -1.2173 
  30   0.0000      -0.026809        -0.7295 
  31   0.0000       0.000582         0.0158 
  32   0.0000       0.016101         0.4381 
  33   0.0000       0.019645         0.5346 
  34   0.0000       0.038043         1.0352 
  35   0.0000       0.041656         1.1335 
  36   0.0000       0.043031         1.1709 
  37   0.0000       0.049285         1.3411 
  38   0.0000       0.061482         1.6730 
*Only the first 10 virtual orbitals were printed.

                    ********************************
                    * MULLIKEN POPULATION ANALYSIS *
                    ********************************

--------------------------------------------
MULLIKEN ATOMIC CHARGES AND SPIN POPULATIONS
--------------------------------------------
   0 C :   -0.759258   -0.072288
   1 C :   -0.387995    0.131336
   2 C :   -0.388236    0.131594
   3 C :   -0.759056   -0.072539
   4 C :    1.170883    0.195508
   5 N :   -0.498568    0.260060
   6 H :    0.078680   -0.006063
   7 H :    0.055292   -0.008887
   8 C :    1.172249    0.195312
   9 N :   -0.498598    0.260217
  10 H :    0.078468   -0.006080
  11 H :    0.055127   -0.008888
  12 H :    0.403961   -0.001163
  13 H :    0.436687    0.001524
  14 H :    0.436723    0.001521
  15 H :    0.403641   -0.001163
Sum of atomic charges         :    1.0000000
Sum of atomic spin populations:    1.0000000

-----------------------------------------------------
MULLIKEN REDUCED ORBITAL CHARGES AND SPIN POPULATIONS
-----------------------------------------------------
CHARGE
  0 C s       :     4.009820  s :     4.009820
      pz      :     0.998863  p :     2.707987
      px      :     0.790305
      py      :     0.918819
      dz2     :    -0.002508  d :     0.060133
      dxz     :     0.015217
      dyz     :     0.007763
      dx2y2   :     0.045242
      dxy     :    -0.005581
      f0      :     0.000612  f :    -0.018682
      f+1     :    -0.000701
      f-1     :     0.000666
      f+2     :    -0.000459
      f-2     :     0.000493
      f+3     :    -0.019224
      f-3     :    -0.000070

  1 C s       :     3.585351  s :     3.585351
      pz      :     0.905918  p :     2.791594
      px      :     0.967846
      py      :     0.917830
      dz2     :    -0.013042  d :     0.020348
      dxz     :     0.017948
      dyz     :     0.020307
      dx2y2   :     0.020952
      dxy     :    -0.025817
      f0      :     0.000568  f :    -0.009298
      f+1     :     0.000954
      f-1     :     0.000283
      f+2     :     0.000135
      f-2     :     0.000298
      f+3     :    -0.011193
      f-3     :    -0.000343

  2 C s       :     3.585403  s :     3.585403
      pz      :     0.905885  p :     2.791700
      px      :     0.967893
      py      :     0.917922
      dz2     :    -0.013049  d :     0.020431
      dxz     :     0.017935
      dyz     :     0.020320
      dx2y2   :     0.020965
      dxy     :    -0.025740
      f0      :     0.000569  f :    -0.009299
      f+1     :     0.000955
      f-1     :     0.000279
      f+2     :     0.000135
      f-2     :     0.000297
      f+3     :    -0.011188
      f-3     :    -0.000345

  3 C s       :     4.009355  s :     4.009355
      pz      :     0.998856  p :     2.708032
      px      :     0.790324
      py      :     0.918852
      dz2     :    -0.002496  d :     0.060345
      dxz     :     0.015248
      dyz     :     0.007745
      dx2y2   :     0.045332
      dxy     :    -0.005484
      f0      :     0.000616  f :    -0.018676
      f+1     :    -0.000701
      f-1     :     0.000665
      f+2     :    -0.000457
      f-2     :     0.000491
      f+3     :    -0.019220
      f-3     :    -0.000070

  4 C s       :     3.222700  s :     3.222700
      pz      :     0.848969  p :     1.791255
      px      :     0.370687
      py      :     0.571599
      dz2     :    -0.023653  d :    -0.113224
      dxz     :     0.013720
      dyz     :     0.000710
      dx2y2   :    -0.071201
      dxy     :    -0.032800
      f0      :     0.002476  f :    -0.071614
      f+1     :    -0.002277
      f-1     :    -0.001430
      f+2     :     0.001300
      f-2     :    -0.000008
      f+3     :    -0.061566
      f-3     :    -0.010108

  5 N s       :     3.922807  s :     3.922807
      pz      :     1.429277  p :     3.537865
      px      :     1.045625
      py      :     1.062963
      dz2     :    -0.004195  d :     0.030418
      dxz     :     0.018908
      dyz     :     0.005697
      dx2y2   :    -0.001119
      dxy     :     0.011128
      f0      :     0.000531  f :     0.007478
      f+1     :     0.000183
      f-1     :     0.000083
      f+2     :     0.000800
      f-2     :     0.000735
      f+3     :     0.005561
      f-3     :    -0.000415

  6 H s       :     0.814879  s :     0.814879
      pz      :     0.039567  p :     0.076263
      px      :     0.024383
      py      :     0.012313
      dz2     :     0.004935  d :     0.030178
      dxz     :     0.008632
      dyz     :     0.002039
      dx2y2   :     0.010442
      dxy     :     0.004130

  7 H s       :     0.833081  s :     0.833081
      pz      :     0.042173  p :     0.081128
      px      :     0.028484
      py      :     0.010471
      dz2     :     0.001963  d :     0.030499
      dxz     :     0.000168
      dyz     :     0.012273
      dx2y2   :     0.001826
      dxy     :     0.014269

  8 C s       :     3.222553  s :     3.222553
      pz      :     0.848706  p :     1.790229
      px      :     0.370683
      py      :     0.570840
      dz2     :    -0.023709  d :    -0.113386
      dxz     :     0.013636
      dyz     :     0.000664
      dx2y2   :    -0.071582
      dxy     :    -0.032395
      f0      :     0.002471  f :    -0.071645
      f+1     :    -0.002283
      f-1     :    -0.001430
      f+2     :     0.001312
      f-2     :    -0.000023
      f+3     :    -0.061577
      f-3     :    -0.010116

  9 N s       :     3.922747  s :     3.922747
      pz      :     1.429231  p :     3.538004
      px      :     1.045838
      py      :     1.062934
      dz2     :    -0.004193  d :     0.030374
      dxz     :     0.018874
      dyz     :     0.005684
      dx2y2   :    -0.001147
      dxy     :     0.011156
      f0      :     0.000531  f :     0.007473
      f+1     :     0.000183
      f-1     :     0.000083
      f+2     :     0.000798
      f-2     :     0.000735
      f+3     :     0.005556
      f-3     :    -0.000413

 10 H s       :     0.815063  s :     0.815063
      pz      :     0.039569  p :     0.076254
      px      :     0.024360
      py      :     0.012326
      dz2     :     0.004941  d :     0.030215
      dxz     :     0.008625
      dyz     :     0.002052
      dx2y2   :     0.010460
      dxy     :     0.004137

 11 H s       :     0.833212  s :     0.833212
      pz      :     0.042174  p :     0.081151
      px      :     0.028510
      py      :     0.010467
      dz2     :     0.001971  d :     0.030511
      dxz     :     0.000170
      dyz     :     0.012267
      dx2y2   :     0.001823
      dxy     :     0.014279

 12 H s       :     0.595675  s :     0.595675
      pz      :     0.018740  p :    -0.007818
      px      :     0.008531
      py      :    -0.035089
      dz2     :    -0.000567  d :     0.008182
      dxz     :    -0.000120
      dyz     :     0.006037
      dx2y2   :     0.001364
      dxy     :     0.001467

 13 H s       :     0.564443  s :     0.564443
      pz      :     0.015826  p :    -0.010541
      px      :    -0.021725
      py      :    -0.004641
      dz2     :    -0.000102  d :     0.009411
      dxz     :     0.003917
      dyz     :     0.001210
      dx2y2   :     0.002369
      dxy     :     0.002016

 14 H s       :     0.564423  s :     0.564423
      pz      :     0.015830  p :    -0.010556
      px      :    -0.021770
      py      :    -0.004615
      dz2     :    -0.000103  d :     0.009410
      dxz     :     0.003917
      dyz     :     0.001211
      dx2y2   :     0.002368
      dxy     :     0.002016

 15 H s       :     0.595998  s :     0.595998
      pz      :     0.018735  p :    -0.007823
      px      :     0.008502
      py      :    -0.035061
      dz2     :    -0.000565  d :     0.008184
      dxz     :    -0.000121
      dyz     :     0.006036
      dx2y2   :     0.001366
      dxy     :     0.001468


SPIN
  0 C s       :    -0.023069  s :    -0.023069
      pz      :    -0.031306  p :    -0.055036
      px      :    -0.018262
      py      :    -0.005468
      dz2     :    -0.000501  d :     0.007395
      dxz     :     0.004721
      dyz     :    -0.001343
      dx2y2   :     0.002059
      dxy     :     0.002460
      f0      :    -0.000200  f :    -0.001579
      f+1     :    -0.000016
      f-1     :     0.000159
      f+2     :    -0.000448
      f-2     :    -0.000269
      f+3     :     0.000014
      f-3     :    -0.000819

  1 C s       :     0.008760  s :     0.008760
      pz      :     0.125508  p :     0.124214
      px      :    -0.000085
      py      :    -0.001210
      dz2     :    -0.000863  d :     0.000105
      dxz     :     0.000591
      dyz     :     0.002066
      dx2y2   :    -0.000437
      dxy     :    -0.001251
      f0      :    -0.000328  f :    -0.001743
      f+1     :    -0.000221
      f-1     :    -0.000169
      f+2     :     0.000321
      f-2     :    -0.000305
      f+3     :    -0.000814
      f-3     :    -0.000226

  2 C s       :     0.008791  s :     0.008791
      pz      :     0.125728  p :     0.124461
      px      :    -0.000070
      py      :    -0.001197
      dz2     :    -0.000865  d :     0.000087
      dxz     :     0.000583
      dyz     :     0.002059
      dx2y2   :    -0.000434
      dxy     :    -0.001256
      f0      :    -0.000328  f :    -0.001745
      f+1     :    -0.000222
      f-1     :    -0.000169
      f+2     :     0.000320
      f-2     :    -0.000305
      f+3     :    -0.000815
      f-3     :    -0.000226

  3 C s       :    -0.023131  s :    -0.023131
      pz      :    -0.031473  p :    -0.055215
      px      :    -0.018277
      py      :    -0.005466
      dz2     :    -0.000500  d :     0.007391
      dxz     :     0.004711
      dyz     :    -0.001344
      dx2y2   :     0.002062
      dxy     :     0.002462
      f0      :    -0.000200  f :    -0.001583
      f+1     :    -0.000016
      f-1     :     0.000159
      f+2     :    -0.000447
      f-2     :    -0.000272
      f+3     :     0.000012
      f-3     :    -0.000819

  4 C s       :     0.026133  s :     0.026133
      pz      :     0.151089  p :     0.158487
      px      :     0.001557
      py      :     0.005841
      dz2     :    -0.000402  d :     0.014538
      dxz     :     0.008313
      dyz     :     0.003934
      dx2y2   :     0.003716
      dxy     :    -0.001023
      f0      :    -0.000156  f :    -0.003650
      f+1     :    -0.000232
      f-1     :    -0.000119
      f+2     :    -0.000653
      f-2     :    -0.001382
      f+3     :    -0.000863
      f-3     :    -0.000244

  5 N s       :     0.012002  s :     0.012002
      pz      :     0.206466  p :     0.244261
      px      :     0.021409
      py      :     0.016386
      dz2     :    -0.000382  d :     0.004274
      dxz     :     0.003864
      dyz     :     0.000842
      dx2y2   :    -0.000630
      dxy     :     0.000581
      f0      :    -0.000021  f :    -0.000478
      f+1     :    -0.000069
      f-1     :    -0.000144
      f+2     :    -0.000064
      f-2     :    -0.000004
      f+3     :    -0.000226
      f-3     :     0.000051

  6 H s       :    -0.011275  s :    -0.011275
      pz      :     0.002724  p :     0.003937
      px      :     0.002179
      py      :    -0.000966
      dz2     :     0.000248  d :     0.001275
      dxz     :     0.001036
      dyz     :     0.000009
      dx2y2   :     0.000235
      dxy     :    -0.000253

  7 H s       :    -0.012735  s :    -0.012735
      pz      :     0.002573  p :     0.002801
      px      :    -0.000205
      py      :     0.000433
      dz2     :     0.000092  d :     0.001046
      dxz     :    -0.000010
      dyz     :     0.001024
      dx2y2   :    -0.000062
      dxy     :     0.000002

  8 C s       :     0.026100  s :     0.026100
      pz      :     0.150958  p :     0.158314
      px      :     0.001544
      py      :     0.005812
      dz2     :    -0.000404  d :     0.014543
      dxz     :     0.008308
      dyz     :     0.003944
      dx2y2   :     0.003718
      dxy     :    -0.001022
      f0      :    -0.000156  f :    -0.003645
      f+1     :    -0.000232
      f-1     :    -0.000119
      f+2     :    -0.000646
      f-2     :    -0.001384
      f+3     :    -0.000862
      f-3     :    -0.000246

  9 N s       :     0.012026  s :     0.012026
      pz      :     0.206593  p :     0.244381
      px      :     0.021399
      py      :     0.016389
      dz2     :    -0.000383  d :     0.004286
      dxz     :     0.003868
      dyz     :     0.000848
      dx2y2   :    -0.000629
      dxy     :     0.000582
      f0      :    -0.000020  f :    -0.000476
      f+1     :    -0.000069
      f-1     :    -0.000145
      f+2     :    -0.000064
      f-2     :    -0.000003
      f+3     :    -0.000227
      f-3     :     0.000051

 10 H s       :    -0.011287  s :    -0.011287
      pz      :     0.002716  p :     0.003929
      px      :     0.002180
      py      :    -0.000967
      dz2     :     0.000248  d :     0.001278
      dxz     :     0.001036
      dyz     :     0.000012
      dx2y2   :     0.000234
      dxy     :    -0.000253

 11 H s       :    -0.012739  s :    -0.012739
      pz      :     0.002576  p :     0.002805
      px      :    -0.000204
      py      :     0.000433
      dz2     :     0.000092  d :     0.001046
      dxz     :    -0.000010
      dyz     :     0.001024
      dx2y2   :    -0.000062
      dxy     :     0.000002

 12 H s       :     0.000124  s :     0.000124
      pz      :    -0.002015  p :    -0.001248
      px      :     0.000325
      py      :     0.000442
      dz2     :     0.000026  d :    -0.000039
      dxz     :    -0.000104
      dyz     :    -0.000127
      dx2y2   :     0.000155
      dxy     :     0.000010

 13 H s       :    -0.000897  s :    -0.000897
      pz      :     0.002082  p :     0.001989
      px      :     0.000047
      py      :    -0.000140
      dz2     :     0.000120  d :     0.000431
      dxz     :     0.000214
      dyz     :     0.000215
      dx2y2   :    -0.000035
      dxy     :    -0.000083

 14 H s       :    -0.000894  s :    -0.000894
      pz      :     0.002075  p :     0.001985
      px      :     0.000047
      py      :    -0.000137
      dz2     :     0.000120  d :     0.000430
      dxz     :     0.000213
      dyz     :     0.000214
      dx2y2   :    -0.000035
      dxy     :    -0.000082

 15 H s       :     0.000119  s :     0.000119
      pz      :    -0.002011  p :    -0.001243
      px      :     0.000326
      py      :     0.000442
      dz2     :     0.000026  d :    -0.000038
      dxz     :    -0.000103
      dyz     :    -0.000126
      dx2y2   :     0.000155
      dxy     :     0.000010



                     *******************************
                     * LOEWDIN POPULATION ANALYSIS *
                     *******************************

-------------------------------------------
LOEWDIN ATOMIC CHARGES AND SPIN POPULATIONS
-------------------------------------------
   0 C :    0.247391    0.034781
   1 C :    0.225256    0.091621
   2 C :    0.225247    0.091685
   3 C :    0.247355    0.034739
   4 C :   -0.152921    0.137588
   5 N :    0.935876    0.176413
   6 H :   -0.233776    0.024517
   7 H :   -0.215752    0.021802
   8 C :   -0.152855    0.137577
   9 N :    0.935972    0.176479
  10 H :   -0.233703    0.024526
  11 H :   -0.215754    0.021815
  12 H :   -0.150345   -0.003370
  13 H :   -0.155828    0.016603
  14 H :   -0.155831    0.016579
  15 H :   -0.150334   -0.003354

----------------------------------------------------
LOEWDIN REDUCED ORBITAL CHARGES AND SPIN POPULATIONS
----------------------------------------------------
CHARGE
  0 C s       :     2.485649  s :     2.485649
      pz      :     0.619228  p :     2.276790
      px      :     0.830765
      py      :     0.826797
      dz2     :     0.067808  d :     0.662189
      dxz     :     0.113804
      dyz     :     0.037498
      dx2y2   :     0.264263
      dxy     :     0.178816
      f0      :     0.021840  f :     0.327981
      f+1     :     0.032167
      f-1     :     0.019884
      f+2     :     0.017581
      f-2     :     0.046858
      f+3     :     0.129274
      f-3     :     0.060377

  1 C s       :     2.495774  s :     2.495774
      pz      :     0.577112  p :     2.263341
      px      :     0.848223
      py      :     0.838006
      dz2     :     0.067037  d :     0.685233
      dxz     :     0.056908
      dyz     :     0.103244
      dx2y2   :     0.205189
      dxy     :     0.252855
      f0      :     0.020465  f :     0.330397
      f+1     :     0.022633
      f-1     :     0.027819
      f+2     :     0.043197
      f-2     :     0.024935
      f+3     :     0.136127
      f-3     :     0.055221

  2 C s       :     2.495775  s :     2.495775
      pz      :     0.577095  p :     2.263327
      px      :     0.848219
      py      :     0.838013
      dz2     :     0.067037  d :     0.685250
      dxz     :     0.056910
      dyz     :     0.103258
      dx2y2   :     0.205200
      dxy     :     0.252844
      f0      :     0.020465  f :     0.330402
      f+1     :     0.022632
      f-1     :     0.027819
      f+2     :     0.043196
      f-2     :     0.024941
      f+3     :     0.136127
      f-3     :     0.055221

  3 C s       :     2.485648  s :     2.485648
      pz      :     0.619262  p :     2.276818
      px      :     0.830759
      py      :     0.826797
      dz2     :     0.067808  d :     0.662195
      dxz     :     0.113807
      dyz     :     0.037500
      dx2y2   :     0.264266
      dxy     :     0.178814
      f0      :     0.021840  f :     0.327983
      f+1     :     0.032166
      f-1     :     0.019883
      f+2     :     0.017584
      f-2     :     0.046858
      f+3     :     0.129273
      f-3     :     0.060378

  4 C s       :     2.452466  s :     2.452466
      pz      :     0.581162  p :     2.176084
      px      :     0.794620
      py      :     0.800302
      dz2     :     0.092882  d :     0.971025
      dxz     :     0.176841
      dyz     :     0.117828
      dx2y2   :     0.287730
      dxy     :     0.295744
      f0      :     0.035393  f :     0.553345
      f+1     :     0.039430
      f-1     :     0.036435
      f+2     :     0.060535
      f-2     :     0.076204
      f+3     :     0.222006
      f-3     :     0.083343

  5 N s       :     2.631070  s :     2.631070
      pz      :     0.982025  p :     2.921280
      px      :     0.976435
      py      :     0.962820
      dz2     :     0.037232  d :     0.382229
      dxz     :     0.061031
      dyz     :     0.021849
      dx2y2   :     0.154179
      dxy     :     0.107938
      f0      :     0.010761  f :     0.129545
      f+1     :     0.011983
      f-1     :     0.009340
      f+2     :     0.008028
      f-2     :     0.016906
      f+3     :     0.048026
      f-3     :     0.024504

  6 H s       :     0.559334  s :     0.559334
      pz      :     0.120562  p :     0.389022
      px      :     0.150045
      py      :     0.118415
      dz2     :     0.040519  d :     0.285420
      dxz     :     0.069056
      dyz     :     0.023901
      dx2y2   :     0.081513
      dxy     :     0.070431

  7 H s       :     0.562227  s :     0.562227
      pz      :     0.107757  p :     0.375956
      px      :     0.090353
      py      :     0.177846
      dz2     :     0.028751  d :     0.277569
      dxz     :     0.002651
      dyz     :     0.088137
      dx2y2   :     0.062675
      dxy     :     0.095354

  8 C s       :     2.452465  s :     2.452465
      pz      :     0.581136  p :     2.176057
      px      :     0.794622
      py      :     0.800298
      dz2     :     0.092881  d :     0.970992
      dxz     :     0.176813
      dyz     :     0.117826
      dx2y2   :     0.287732
      dxy     :     0.295740
      f0      :     0.035395  f :     0.553340
      f+1     :     0.039429
      f-1     :     0.036436
      f+2     :     0.060535
      f-2     :     0.076196
      f+3     :     0.222009
      f-3     :     0.083340

  9 N s       :     2.631069  s :     2.631069
      pz      :     0.981944  p :     2.921225
      px      :     0.976462
      py      :     0.962819
      dz2     :     0.037234  d :     0.382194
      dxz     :     0.061006
      dyz     :     0.021840
      dx2y2   :     0.154174
      dxy     :     0.107939
      f0      :     0.010758  f :     0.129540
      f+1     :     0.011985
      f-1     :     0.009341
      f+2     :     0.008027
      f-2     :     0.016900
      f+3     :     0.048025
      f-3     :     0.024504

 10 H s       :     0.559273  s :     0.559273
      pz      :     0.120535  p :     0.389006
      px      :     0.150046
      py      :     0.118424
      dz2     :     0.040515  d :     0.285424
      dxz     :     0.069047
      dyz     :     0.023906
      dx2y2   :     0.081523
      dxy     :     0.070432

 11 H s       :     0.562233  s :     0.562233
      pz      :     0.107763  p :     0.375963
      px      :     0.090353
      py      :     0.177846
      dz2     :     0.028753  d :     0.277558
      dxz     :     0.002651
      dyz     :     0.088125
      dx2y2   :     0.062675
      dxy     :     0.095354

 12 H s       :     0.642855  s :     0.642855
      pz      :     0.077581  p :     0.292945
      px      :     0.074557
      py      :     0.140807
      dz2     :     0.023065  d :     0.214545
      dxz     :     0.003753
      dyz     :     0.061125
      dx2y2   :     0.047416
      dxy     :     0.079187

 13 H s       :     0.655067  s :     0.655067
      pz      :     0.074046  p :     0.291606
      px      :     0.125772
      py      :     0.091788
      dz2     :     0.022535  d :     0.209155
      dxz     :     0.046358
      dyz     :     0.013931
      dx2y2   :     0.072072
      dxy     :     0.054260

 14 H s       :     0.655066  s :     0.655066
      pz      :     0.074048  p :     0.291607
      px      :     0.125769
      py      :     0.091791
      dz2     :     0.022535  d :     0.209157
      dxz     :     0.046357
      dyz     :     0.013934
      dx2y2   :     0.072076
      dxy     :     0.054256

 15 H s       :     0.642854  s :     0.642854
      pz      :     0.077577  p :     0.292940
      px      :     0.074556
      py      :     0.140807
      dz2     :     0.023065  d :     0.214540
      dxz     :     0.003753
      dyz     :     0.061119
      dx2y2   :     0.047416
      dxy     :     0.079186


SPIN
  0 C s       :    -0.000663  s :    -0.000663
      pz      :    -0.007650  p :    -0.010683
      px      :    -0.002242
      py      :    -0.000792
      dz2     :     0.000051  d :     0.023789
      dxz     :     0.020988
      dyz     :     0.001908
      dx2y2   :    -0.000136
      dxy     :     0.000979
      f0      :     0.001169  f :     0.022338
      f+1     :    -0.000079
      f-1     :    -0.000051
      f+2     :     0.001035
      f-2     :     0.019994
      f+3     :    -0.000218
      f-3     :     0.000489

  1 C s       :     0.002395  s :     0.002395
      pz      :     0.066734  p :     0.067522
      px      :     0.001236
      py      :    -0.000447
      dz2     :    -0.000743  d :     0.015131
      dxz     :     0.008632
      dyz     :     0.007208
      dx2y2   :     0.000289
      dxy     :    -0.000256
      f0      :    -0.000644  f :     0.006572
      f+1     :    -0.000232
      f-1     :    -0.000172
      f+2     :     0.008721
      f-2     :    -0.001024
      f+3     :    -0.000103
      f-3     :     0.000026

  2 C s       :     0.002400  s :     0.002400
      pz      :     0.066840  p :     0.067636
      px      :     0.001239
      py      :    -0.000443
      dz2     :    -0.000744  d :     0.015096
      dxz     :     0.008622
      dyz     :     0.007187
      dx2y2   :     0.000288
      dxy     :    -0.000258
      f0      :    -0.000648  f :     0.006554
      f+1     :    -0.000232
      f-1     :    -0.000172
      f+2     :     0.008711
      f-2     :    -0.001027
      f+3     :    -0.000104
      f-3     :     0.000025

  3 C s       :    -0.000666  s :    -0.000666
      pz      :    -0.007731  p :    -0.010769
      px      :    -0.002245
      py      :    -0.000793
      dz2     :     0.000052  d :     0.023822
      dxz     :     0.021015
      dyz     :     0.001909
      dx2y2   :    -0.000135
      dxy     :     0.000980
      f0      :     0.001172  f :     0.022354
      f+1     :    -0.000079
      f-1     :    -0.000051
      f+2     :     0.001035
      f-2     :     0.020004
      f+3     :    -0.000217
      f-3     :     0.000489

  4 C s       :     0.002655  s :     0.002655
      pz      :     0.082947  p :     0.081432
      px      :    -0.000045
      py      :    -0.001471
      dz2     :    -0.000245  d :     0.034789
      dxz     :     0.017908
      dyz     :     0.015880
      dx2y2   :     0.001064
      dxy     :     0.000181
      f0      :     0.000043  f :     0.018712
      f+1     :     0.000327
      f-1     :    -0.000149
      f+2     :     0.012264
      f-2     :     0.005077
      f+3     :     0.000064
      f-3     :     0.001087

  5 N s       :     0.004267  s :     0.004267
      pz      :     0.132424  p :     0.145926
      px      :     0.010409
      py      :     0.003093
      dz2     :    -0.000555  d :     0.018591
      dxz     :     0.015492
      dyz     :     0.003854
      dx2y2   :    -0.000530
      dxy     :     0.000331
      f0      :     0.002313  f :     0.007630
      f+1     :     0.000224
      f-1     :    -0.000179
      f+2     :     0.000901
      f-2     :     0.004508
      f+3     :    -0.000156
      f-3     :     0.000019

  6 H s       :    -0.002804  s :    -0.002804
      pz      :     0.015014  p :     0.016110
      px      :     0.001023
      py      :     0.000073
      dz2     :     0.002836  d :     0.011211
      dxz     :     0.004344
      dyz     :     0.003069
      dx2y2   :     0.000065
      dxy     :     0.000897

  7 H s       :    -0.003568  s :    -0.003568
      pz      :     0.012569  p :     0.014284
      px      :     0.000514
      py      :     0.001200
      dz2     :    -0.000005  d :     0.011085
      dxz     :     0.000669
      dyz     :     0.009360
      dx2y2   :     0.000509
      dxy     :     0.000552

  8 C s       :     0.002652  s :     0.002652
      pz      :     0.082896  p :     0.081374
      px      :    -0.000048
      py      :    -0.001473
      dz2     :    -0.000244  d :     0.034823
      dxz     :     0.017931
      dyz     :     0.015888
      dx2y2   :     0.001065
      dxy     :     0.000182
      f0      :     0.000044  f :     0.018729
      f+1     :     0.000328
      f-1     :    -0.000149
      f+2     :     0.012267
      f-2     :     0.005086
      f+3     :     0.000065
      f-3     :     0.001087

  9 N s       :     0.004268  s :     0.004268
      pz      :     0.132503  p :     0.146001
      px      :     0.010405
      py      :     0.003094
      dz2     :    -0.000556  d :     0.018585
      dxz     :     0.015487
      dyz     :     0.003855
      dx2y2   :    -0.000531
      dxy     :     0.000330
      f0      :     0.002312  f :     0.007624
      f+1     :     0.000224
      f-1     :    -0.000179
      f+2     :     0.000902
      f-2     :     0.004504
      f+3     :    -0.000156
      f-3     :     0.000018

 10 H s       :    -0.002807  s :    -0.002807
      pz      :     0.015016  p :     0.016113
      px      :     0.001024
      py      :     0.000073
      dz2     :     0.002836  d :     0.011219
      dxz     :     0.004349
      dyz     :     0.003073
      dx2y2   :     0.000065
      dxy     :     0.000896

 11 H s       :    -0.003569  s :    -0.003569
      pz      :     0.012579  p :     0.014294
      px      :     0.000514
      py      :     0.001201
      dz2     :    -0.000005  d :     0.011091
      dxz     :     0.000668
      dyz     :     0.009366
      dx2y2   :     0.000510
      dxy     :     0.000551

 12 H s       :     0.000130  s :     0.000130
      pz      :    -0.002213  p :    -0.002709
      px      :    -0.000324
      py      :    -0.000172
      dz2     :    -0.000007  d :    -0.000791
      dxz     :     0.000329
      dyz     :    -0.000774
      dx2y2   :    -0.000080
      dxy     :    -0.000259

 13 H s       :    -0.002105  s :    -0.002105
      pz      :     0.009887  p :     0.010650
      px      :     0.000539
      py      :     0.000224
      dz2     :    -0.000020  d :     0.008058
      dxz     :     0.003673
      dyz     :     0.004083
      dx2y2   :     0.000067
      dxy     :     0.000255

 14 H s       :    -0.002101  s :    -0.002101
      pz      :     0.009872  p :     0.010633
      px      :     0.000538
      py      :     0.000223
      dz2     :    -0.000020  d :     0.008047
      dxz     :     0.003664
      dyz     :     0.004082
      dx2y2   :     0.000067
      dxy     :     0.000254

 15 H s       :     0.000127  s :     0.000127
      pz      :    -0.002204  p :    -0.002698
      px      :    -0.000324
      py      :    -0.000171
      dz2     :    -0.000007  d :    -0.000783
      dxz     :     0.000328
      dyz     :    -0.000766
      dx2y2   :    -0.000080
      dxy     :    -0.000259



                      *****************************
                      * MAYER POPULATION ANALYSIS *
                      *****************************

  NA   - Mulliken gross atomic population
  ZA   - Total nuclear charge
  QA   - Mulliken gross atomic charge
  VA   - Mayer's total valence
  BVA  - Mayer's bonded valence
  FA   - Mayer's free valence

  ATOM       NA         ZA         QA         VA         BVA        FA
  0 C      6.7593     6.0000    -0.7593     2.4462     2.4436     0.0026
  1 C      6.3880     6.0000    -0.3880     2.8650     2.8473     0.0177
  2 C      6.3882     6.0000    -0.3882     2.8658     2.8481     0.0177
  3 C      6.7591     6.0000    -0.7591     2.4473     2.4447     0.0026
  4 C      4.8291     6.0000     1.1709     1.5107     1.4709     0.0399
  5 N      7.4986     7.0000    -0.4986     2.7381     2.6831     0.0550
  6 H      0.9213     1.0000     0.0787     1.0575     1.0572     0.0003
  7 H      0.9447     1.0000     0.0553     1.0779     1.0777     0.0002
  8 C      4.8278     6.0000     1.1722     1.5086     1.4688     0.0398
  9 N      7.4986     7.0000    -0.4986     2.7385     2.6835     0.0550
 10 H      0.9215     1.0000     0.0785     1.0578     1.0575     0.0003
 11 H      0.9449     1.0000     0.0551     1.0779     1.0777     0.0002
 12 H      0.5960     1.0000     0.4040     0.6947     0.6947     0.0000
 13 H      0.5633     1.0000     0.4367     0.6621     0.6621    -0.0000
 14 H      0.5633     1.0000     0.4367     0.6620     0.6620    -0.0000
 15 H      0.5964     1.0000     0.4036     0.6954     0.6954     0.0000

  Mayer bond orders larger than 0.100000
B(  0-C ,  1-C ) :   1.3384 B(  0-C ,  8-C ) :   0.6440 B(  0-C ,  9-N ) :  -0.1503 
B(  0-C , 15-H ) :   0.5019 B(  1-C ,  2-C ) :   0.9769 B(  1-C ,  8-C ) :  -0.1592 
B(  1-C , 14-H ) :   0.6325 B(  2-C ,  3-C ) :   1.3391 B(  2-C ,  4-C ) :  -0.1590 
B(  2-C , 13-H ) :   0.6327 B(  3-C ,  4-C ) :   0.6444 B(  3-C ,  5-N ) :  -0.1502 
B(  3-C , 12-H ) :   0.5015 B(  4-C ,  5-N ) :   0.4247 B(  4-C ,  7-H ) :  -0.1103 
B(  4-C ,  8-C ) :   0.5853 B(  5-N ,  6-H ) :   1.0972 B(  5-N ,  7-H ) :   1.1414 
B(  8-C ,  9-N ) :   0.4245 B(  8-C , 11-H ) :  -0.1104 B(  9-N , 10-H ) :   1.0978 
B(  9-N , 11-H ) :   1.1414 

-------
TIMINGS
-------

Total SCF time: 0 days 0 hours 3 min 24 sec 

Total time                  ....     204.121 sec
Sum of individual times     ....     203.498 sec  ( 99.7%)

SCF preparation             ....       1.046 sec  (  0.5%)
Fock matrix formation       ....     186.785 sec  ( 91.5%)
  Startup                   ....       1.707 sec  (  0.9% of F)
  Split-RI-J                ....      14.761 sec  (  7.9% of F)
  XC integration            ....     159.494 sec  ( 85.4% of F)
    XC Preparation          ....       0.000 sec  (  0.0% of XC)
    Basis function eval.    ....       8.483 sec  (  5.3% of XC)
    Density eval.           ....      44.957 sec  ( 28.2% of XC)
    XC-Functional eval.     ....       1.495 sec  (  0.9% of XC)
    XC-Potential eval.      ....      99.798 sec  ( 62.6% of XC)
  CPCM terms                ....       6.191 sec  (  3.3% of F)
Diagonalization             ....       0.000 sec  (  0.0%)
Density matrix formation    ....       3.729 sec  (  1.8%)
Total Energy calculation    ....       1.445 sec  (  0.7%)
Population analysis         ....       0.468 sec  (  0.2%)
Orbital Transformation      ....       1.189 sec  (  0.6%)
Orbital Orthonormalization  ....       0.000 sec  (  0.0%)
DIIS solution               ....       5.818 sec  (  2.9%)
SOSCF solution              ....       3.019 sec  (  1.5%)
Finished LeanSCF after 204.4 sec

Maximum memory used throughout the entire LEANSCF-calculation: 63.0 MB


-------------------------------------------------------------------------------
                          DFT DISPERSION CORRECTION                            
                                                                               
                              DFTD3 V3.1  Rev 1                                
                          USING Becke-Johnson damping                          
-------------------------------------------------------------------------------
The R2SCAN functional is recognized
Active option DFTDOPT                   ...         4   

molecular C6(AA) [au] = 2708.735097 


            DFT-D V3
 parameters
 s6 scaling factor         :     1.0000 
 a1 scaling factor         :     0.4948 
 s8 scaling factor         :     0.7898 
 a2 scaling factor         :     5.7308 
 ad hoc parameters k1-k3   :    16.0000     1.3333    -4.0000 

 Edisp/kcal,au: -2.934091811054  -0.004675772429 
 E6   /kcal   :  -2.306520616 
 E8   /kcal   :  -0.627571195 
 % E8         :  21.388941977 

-------------------------   ----------------
Dispersion correction           -0.004675772
-------------------------   ----------------


-------------------------   --------------------
FINAL SINGLE POINT ENERGY      -342.745286442421
-------------------------   --------------------



           ************************************************************
           *        Program running with 4 parallel MPI-processes     *
           *              working on a common directory               *
           ************************************************************

------------------------------------------------------------------------------
                              ORCA PROPERTY CALCULATIONS
------------------------------------------------------------------------------

GBWName                                 ... cs_rporg_064_ox_solv_03.gbw
Number of atoms                         ...     16
Number of basis functions               ...    600
Max core memory                         ...   3000 MB

Electric properties:
Dipole moment                           ... YES
Quadrupole moment                       ...  NO
Static polarizability (Dipole/Dipole)   ...  NO
Static polarizability (Dipole/Quad.)    ...  NO
Static polarizability (Quad./Quad.)     ...  NO
Static polarizability (Velocity)        ...  NO

Atomic electric properties:
Dipole moment                           ...  NO
Quadrupole moment                       ...  NO
Static polarizability                   ...  NO

Choice of electric origin               ... Center of mass
Position of electric origin             ...    -0.031043    -0.000013    -0.000023

General magnetic properties:
Magnetizability                         ...  NO

EPR properties:
g-Tensor (aka g-matrix)                 ...  NO
Zero-Field splitting spin-orbit         ...  NO
Zero-field splitting spin-spin          ...  NO
Hyperfine couplings                     ...  NO (   0 nuclei)
Quadrupole couplings                    ...  NO (   0 nuclei)
Contact density                         ...  NO (   0 nuclei)

NMR properties:
Chemical shifts                         ...  NO (   0 nuclei)
Spin-rotation constants                 ...  NO (   0 nuclei)
Spin-spin couplings                     ...  NO (   0 nuclei,    0 pairs)

Choice of magnetic origin               ... GIAO
Position of magnetic origin             ...     0.000000     0.000000     0.000000

Properties with geometric perturbations:
SCF Hessian                             ...  NO
IR spectrum                             ...  NO
VCD spectrum                            ...  NO
X-ray spectroscopy properties:
SCF XES/XAS/RIXS spectra                ...  NO


-------------
DIPOLE MOMENT
-------------

Method             : SCF
Type of density    : Electron Density
Multiplicity       :   2
Irrep              :   0
Energy             :  -342.7406106699916677 Eh
Relativity type    : 
Basis              : AO
                                X                 Y                 Z
Electronic contribution:      0.788361897       0.000509554      -0.000324207
Nuclear contribution   :      1.369385413      -0.000054655       0.000118438
                        -----------------------------------------
Total Dipole Moment    :      2.157747310       0.000454899      -0.000205769
                        -----------------------------------------
Magnitude (a.u.)       :      2.157747367
Magnitude (Debye)      :      5.484557943



--------------------
Rotational spectrum 
--------------------
 
Rotational constants in cm-1:             0.106540             0.076353             0.044639 
Rotational constants in MHz :          3194.002568          2289.017521          1338.230325 

Dipole components along the rotational axes: 
x,y,z [a.u.] :     2.157747     0.000546    -0.000169 
x,y,z [Debye]:     5.484558     0.001387    -0.000429 

 

Dipole moment calculation done in   0.1 sec 

Maximum memory used throughout the entire PROP-calculation: 46.4 MB

--------------------------------
SUGGESTED CITATIONS FOR THIS RUN
--------------------------------

Below you find a list of papers that are relevant to this ORCA run
We neither can nor want to force you to cite these papers, but we appreciate if you do
You receive ORCA, which is the product of decades of hard work by many enthusiastic individuals, for free
The only thing we kindly ask in return is that you cite our papers,
We deeply appreciate it, if you show your appreciation for ORCA by not just citing the generic ORCA reference.

Please note that relegating all ORCA citations to the supporting information does *not* help us.
SI sections are not indexed - citations you put there will not count into any citation statistics
But we need these citations in order to attract the funding resources that allow us to do what we are doing

Therefore, if you are a happy ORCA user, please consider citing a few of the papers listed below in the main body of your paper

In addition to the list printed below, the program has created the file cs_rporg_064_ox_solv_03.bibtex that contains the list in bibtex format
You can import this file easily into all common literature databanks and citation aid programs


List of essential papers. We consider these as the minimum necessary citations

  1. Neese,F.
     Software update: the ORCA program system, version 5.0
     WIRES Comput. Molec. Sci., 2022 12(1)e1606
     doi.org/10.1002/wcms.1606

List of papers to cite with high priority. The work reported in these papers was absolutely
necessary for this run to complete.
Our perspective: the developers of density functionals and basis sets usually get cited in chemistry papers
Good! But without the algorithms to do something with them, the functionals or basis sets would not do anything.
Hence, in our opinion, the algorithm design and method developments papers are equally worthy of getting cited

  1. Neese,F.
     An improvement of the resolution of the identity approximation for the formation of the Coulomb matrix
     J. Comp. Chem., 2003 24(14)1740-1747
     doi.org/10.1002/jcc.10318
  2. Garcia-Rates,M.; Neese,F.
     Effect of the Solute Cavity on the Solvation Energy and its Derivatives within the Framework of the Gaussian Charge Scheme
     J. Comput. Chem., 2020 41 922-939
     doi.org/10.1002/jcc.26139
  3. Neese,F.
     The SHARK Integral Generation and Digestion System
     J. Comp. Chem., 2022  1-16
     doi.org/10.1002/jcc.26942
  4. Lehtola,S.; Steigemann,C.; Oliveira,M.; Marques,M.
     Recent developments in Libxc - A comprehensive library of functionals for density functional theory
     Software X, 2018 7 
     doi.org/10.1016/j.softx.2017.11.002
  5. Grimme,S.; Antony,J.; Ehrlich,S.; Krieg,H.
     A consistent and accurate ab initio parametrization of density functional dispersion correction (DFT-D) for the 94 elements H-Pu
     J. Chem. Phys., 2010 132 154104-XXXX
     doi.org/10.1063/1.3382344
  6. Grimme,S.; Ehrlich,S.; Goerigk,L.
     Effect of the damping function in dispersion corrected density functional theory
     J. Comput. Chem., 2011 32(7)1456-1465
     doi.org/10.1002/jcc.21759

List of suggested additional citations. These are papers that are important in the 'surrounding' of 
of this run, or papers that preceded the highly important papers. If you like your results we are grateful for a citation.

  1. Neese,F.
     The ORCA program system
     WIRES Comput. Molec. Sci., 2012 2(1)73-78
     doi.org/10.1002/wcms.81
  2. Neese,F.
     Software update: the ORCA program system, version 4.0
     WIRES Comput. Molec. Sci., 2018 8(1)1-6
     doi.org/10.1002/wcms.1327
  3. Neese,F.; Wennmohs,F.; Becker,U.; Riplinger,C.
     The ORCA quantum chemistry program package
     J. Chem. Phys., 2020 152 Art. No. L224108
     doi.org/10.1063/5.0004608

List of optional additional citations

  1. Neese,F.
     Approximate second-order SCF convergence for spin unrestricted wavefunctions
     Chem. Phys. Lett., 2000 325(1-3)93-98
     doi.org/10.1016/s0009-2614(00)00662-x

Timings for individual modules:

Sum of individual times          ...      221.545 sec (=   3.692 min)
Startup calculation              ...        9.440 sec (=   0.157 min)   4.3 %
SCF iterations                   ...      210.079 sec (=   3.501 min)  94.8 %
Property calculations            ...        2.025 sec (=   0.034 min)   0.9 %
                             ****ORCA TERMINATED NORMALLY****
TOTAL RUN TIME: 0 days 0 hours 3 minutes 45 seconds 118 msec
