
                                 *****************
                                 * O   R   C   A *
                                 *****************

                                            #,                                       
                                            ###                                      
                                            ####                                     
                                            #####                                    
                                            ######                                   
                                           ########,                                 
                                     ,,################,,,,,                         
                               ,,#################################,,                 
                          ,,##########################################,,             
                       ,#########################################, ''#####,          
                    ,#############################################,,   '####,        
                  ,##################################################,,,,####,       
                ,###########''''           ''''###############################       
              ,#####''   ,,,,##########,,,,          '''####'''          '####       
            ,##' ,,,,###########################,,,                        '##       
           ' ,,###''''                  '''############,,,                           
         ,,##''                                '''############,,,,        ,,,,,,###''
      ,#''                                            '''#######################'''  
     '                                                          ''''####''''         
             ,#######,   #######,   ,#######,      ##                                
            ,#'     '#,  ##    ##  ,#'     '#,    #''#        ,####,   ,####,        
            ##       ##  ##   ,#'  ##            #'  '#       #'       #'  '#        
            ##       ##  #######   ##           ,######,      #####,   #    #        
            '#,     ,#'  ##    ##  '#,     ,#' ,#      #,     #,   #   #,  ,#        
             '#######'   ##     ##  '#######'  #'      '#     '####' # '####'        



                #########################################################
                #                        -***-                          #
                #          Department of theory and spectroscopy        #
                #                                                       #
                #                      Frank Neese                      #
                #                                                       #
                #     Directorship, Architecture, Infrastructure        #
                #                    SHARK, DRIVERS                     #
                #        Core code/Algorithms in most modules           #
                #                                                       #
                #        Max Planck Institute fuer Kohlenforschung      #
                #                Kaiser Wilhelm Platz 1                 #
                #                 D-45470 Muelheim/Ruhr                 #
                #                      Germany                          #
                #                                                       #
                #                  All rights reserved                  #
                #                        -***-                          #
                #########################################################


                         Program Version 6.0.0  -   RELEASE  -


 With contributions from (in alphabetic order):
   Daniel Aravena         : Magnetic Suceptibility
   Michael Atanasov       : Ab Initio Ligand Field Theory (pilot matlab implementation)
   Alexander A. Auer      : GIAO ZORA, VPT2 properties, NMR spectrum
   Ute Becker             : All parallelization in ORCA, NUMFREQ, NUMCALC
   Giovanni Bistoni       : ED, misc. LED, open-shell LED, HFLD
   Martin Brehm           : Molecular dynamics
   Dmytro Bykov           : pre 5.0 version of the SCF Hessian
   Marcos Casanova-Páez   : Triplet and SCS-CIS(D). UHF-(DLPNO)-IP/EA/STEOM-CCSD. UHF-CVS-IP/STEOM-CCSD
   Vijay G. Chilkuri      : MRCI spin determinant printing, contributions to CSF-ICE
   Pauline Colinet        : FMM embedding
   Dipayan Datta          : RHF DLPNO-CCSD density
   Achintya Kumar Dutta   : EOM-CC, STEOM-CC
   Nicolas Foglia         : Exact transition moments, OPA infrastructure, MCD improvements
   Dmitry Ganyushin       : Spin-Orbit,Spin-Spin,Magnetic field MRCI
   Miquel Garcia          : C-PCM and meta-GGA Hessian, CCSD/C-PCM, Gaussian charge scheme
   Tiago L. C. Gouveia    : GS-ROHF, GS-ROCIS
   Yang Guo               : DLPNO-NEVPT2, F12-NEVPT2, CIM, IAO-localization
   Andreas Hansen         : Spin unrestricted coupled pair/coupled cluster methods
   Ingolf Harden          : AUTO-CI MPn and infrastructure 
   Benjamin Helmich-Paris : MC-RPA, TRAH-(SCF,CASSCF), AVAS, COSX integrals, SCF dyn. polar.
   Lee Huntington         : MR-EOM, pCC
   Robert Izsak           : Overlap fitted RIJCOSX, COSX-SCS-MP3, EOM
   Riya Kayal             : Wick's Theorem for AUTO-CI, AUTO-CI UHF-CCSDT
   Emily Kempfer          : AUTO-CI, RHF CISDT and CCSDT
   Christian Kollmar      : KDIIS, OOCD, Brueckner-CCSD(T), CCSD density, CASPT2, CASPT2-K, improved NEVPT2
   Axel Koslowski         : Symmetry handling
   Simone Kossmann        : Meta GGA functionals, TD-DFT gradient, OOMP2, (MP2 Hessian; deprecated post 5.0)
   Lucas Lang             : DCDCAS
   Marvin Lechner         : AUTO-CI (C++ implementation), FIC-MRCC
   Spencer Leger          : CASSCF response
   Dagmar Lenk            : GEPOL surface, SMD, ORCA-2-JSON
   Dimitrios Liakos       : Extrapolation schemes; Compound Job, initial MDCI parallelization
   Dimitrios Manganas     : Further ROCIS development; embedding schemes. LFT, Crystal Embedding
   Dimitrios Pantazis     : SARC Basis sets
   Anastasios Papadopoulos: AUTO-CI, single reference methods and gradients
   Taras Petrenko         : pre 6.0 DFT Hessian and TD-DFT gradient, (ASA, deprecated), ECA, 1-Electron XAS/XES, NRVS
   Peter Pinski           : DLPNO-MP2, DLPNO-MP2 Gradient
   Christoph Reimann      : Effective Core Potentials
   Marius Retegan         : Local ZFS, SOC
   Christoph Riplinger    : Optimizer, TS searches, QM/MM, DLPNO-CCSD(T), (RO)-DLPNO pert. Triples
   Michael Roemelt        : Original ROCIS implementation
   Masaaki Saitow         : Open-shell DLPNO-CCSD energy and density
   Barbara Sandhoefer     : DKH picture change effects
   Kantharuban Sivalingam : CASSCF convergence/infrastructure, NEVPT2 and variants, FIC-MRCI
   Bernardo de Souza      : ESD, SOC TD-DFT
   Georgi Stoychev        : AutoAux, RI-MP2 NMR, DLPNO-MP2 response, X2C
   Van Anh Tran           : RI-MP2 g-tensors
   Willem Van den Heuvel  : Paramagnetic NMR
   Zikuan Wang            : NOTCH, Electric field optimization 
   Frank Wennmohs         : Technical directorship and infrastructure
   Hang Xu                : AUTO-CI-Response properties 


 We gratefully acknowledge several colleagues who have allowed us to
 interface, adapt or use parts of their codes:
   Stefan Grimme, W. Hujo, H. Kruse, P. Pracht,  : VdW corrections, initial TS optimization,
                  C. Bannwarth, S. Ehlert,         DFT functionals, gCP, sTDA/sTD-DF
                  L. Wittmann, M. Mueller
   Ed Valeev, F. Pavosevic, A. Kumar             : LibInt (2-el integral package), F12 methods
   Garnet Chan, S. Sharma, J. Yang, R. Olivares  : DMRG
   Ulf Ekstrom                                   : XCFun DFT Library
   Mihaly Kallay                                 : mrcc  (arbitrary order and MRCC methods)
   Frank Weinhold                                : gennbo (NPA and NBO analysis)
   Simon Mueller                                 : openCOSMO-RS
   Christopher J. Cramer and Donald G. Truhlar   : smd solvation model
   Lars Goerigk                                  : TD-DFT with DH, B97 family of functionals
   V. Asgeirsson, H. Jonsson                     : NEB implementation
   FAccTs GmbH                                   : IRC, NEB, NEB-TS, DLPNO-Multilevel, CI-OPT
                                                   MM, QMMM, 2- and 3-layer-ONIOM, Crystal-QMMM,
                                                   LR-CPCM, SF, NACMEs, symmetry and pop. for TD-DFT,
                                                   nearIR, NL-DFT gradient (VV10), updates on ESD,
                                                   ML-optimized integration grids, MBIS, APM,
                                                   GOAT, DOCKER, SOLVATOR, interface openCOSMO-RS
   S Lehtola, MJT Oliveira, MAL Marques          : LibXC Library
   Liviu Ungur et al                             : ANISO software


 Your calculation uses the libint2 library for the computation of 2-el integrals
 For citations please refer to: http://libint.valeyev.net

 Your ORCA version has been built with support for libXC version: 6.2.2
 For citations please refer to: https://libxc.gitlab.io

 This ORCA versions uses:
   CBLAS   interface :  Fast vector & matrix operations
   LAPACKE interface :  Fast linear algebra routines
   SCALAPACK package :  Parallel linear algebra routines
   Shared memory     :  Shared parallel matrices
   BLAS/LAPACK       :  OpenBLAS 0.3.27  USE64BITINT DYNAMIC_ARCH NO_AFFINITY SkylakeX SINGLE_THREADED
        Core in use  :  SkylakeX
   Copyright (c) 2011-2014, The OpenBLAS Project


NOTE: MaxCore=3500 MB was set to SCF,MP2,MDCI,CIPSI,MRCI and CIS
      => If you want to overwrite this, your respective input block should be placed after the MaxCore statement
================================================================================

----- Orbital basis set information -----
Your calculation utilizes the basis: def2-SVP
   F. Weigend and R. Ahlrichs, Phys. Chem. Chem. Phys. 7, 3297 (2005).

================================================================================
                                        WARNINGS
                       Please study these warnings very carefully!
================================================================================


================================================================================
                                       INPUT FILE
================================================================================
NAME = cs_rporg_w02_ox_cosmors_01.inp
|  1> !COSMORS(Water)
|  2> 
|  3> %pal
|  4> nprocs 15
|  5> end
|  6> 
|  7> 
|  8> 
|  9> %maxcore 3500
| 10> 
| 11> 
| 12> 
| 13> * xyz 0 1
| 14> C          -0.70221578029714     -1.27137338689409     -1.64597061061339
| 15> C          -0.84845136777775     -1.37115966451546      2.54973958440251
| 16> C           0.15259783512686     -0.68335711742679      3.28861563215234
| 17> C           0.07599304676575     -0.73632666977901      4.69600426690252
| 18> C          -0.94794284945570     -1.44026936179531      5.29150860970573
| 19> C          -1.88482068115033     -2.08384823172722      4.45797199169649
| 20> N          -1.84062401823598     -2.05300130163141      3.14506781946973
| 21> H           0.83076678593274     -0.21756410750992      5.29593236316618
| 22> H          -1.03983766734326     -1.50382384093195      6.37916241782430
| 23> H          -2.71147090586821     -2.65207963836198      4.90545942856367
| 24> C          -0.79700541461204     -1.33574559017925      1.09594053855288
| 25> C           0.25272338782719     -0.61458983536816      0.46402567600272
| 26> C           0.27592476493802     -0.59903395891095     -0.94615465995929
| 27> C          -1.69468523511231     -1.95299131995214     -0.91309590762066
| 28> N          -1.74344800729213     -1.98614929368638      0.39960781073108
| 29> H           1.07040887752629     -0.05329454733419     -1.46544045359095
| 30> H          -0.71690094151293     -1.28186330233680     -2.73919465539259
| 31> H          -2.48671429614632     -2.49728707022392     -1.44500129727560
| 32> C           1.19105099618849      0.03039450570530      2.60874274845559
| 33> C           1.23921917155320      0.06350156660395      1.24952954829313
| 34> H           1.94654977095063      0.54952317690862      3.20655609141936
| 35> H           2.03412974399493      0.60974382634704      0.73244528911423
| 36> *
| 37> 
| 38>                          ****END OF INPUT****
================================================================================

------------------------------------------------------------------------------
                          OPENCOSMO-RS CALCULATION
------------------------------------------------------------------------------

----------------------
GENERAL INFORMATION
----------------------
Calculation method                          ... DFT
Functional                                  ... BP86
Basis set                                   ... DEF2-TZVPD

----------------------
SOLUTE INFORMATION
----------------------
Number of atoms                             ...     22
Total charge                                ...      0
Multiplicity                                ...      1

CARTESIAN COORDINATES (ANGSTROEM)
  C     -0.702216   -1.271373   -1.645971
  C     -0.848451   -1.371160    2.549740
  C      0.152598   -0.683357    3.288616
  C      0.075993   -0.736327    4.696004
  C     -0.947943   -1.440269    5.291509
  C     -1.884821   -2.083848    4.457972
  N     -1.840624   -2.053001    3.145068
  H      0.830767   -0.217564    5.295932
  H     -1.039838   -1.503824    6.379162
  H     -2.711471   -2.652080    4.905459
  C     -0.797005   -1.335746    1.095941
  C      0.252723   -0.614590    0.464026
  C      0.275925   -0.599034   -0.946155
  C     -1.694685   -1.952991   -0.913096
  N     -1.743448   -1.986149    0.399608
  H      1.070409   -0.053295   -1.465440
  H     -0.716901   -1.281863   -2.739195
  H     -2.486714   -2.497287   -1.445001
  C      1.191051    0.030395    2.608743
  C      1.239219    0.063502    1.249530
  H      1.946550    0.549523    3.206556
  H      2.034130    0.609744    0.732445

----------------------
SOLVENT INFORMATION
----------------------
Solvent name                                ... WATER
Number of atoms                             ...      3
Total charge                                ...      0
Multiplicity                                ...      1

CARTESIAN COORDINATES (ANGSTROEM)
  O     -0.000795    0.401428    0.000000
  H     -0.764800   -0.202217    0.000000
  H      0.765595   -0.199210    0.000000

----------------------------------------------
Single Point Calculation (solute / gas-phase)
----------------------------------------------
Output single point calculation redirected to >cs_rporg_w02_ox_cosmors_01.solute_vac.lastout

FINAL SINGLE POINT ENERGY (Solute-gas-phase)     -571.816345872329

----------------------------------------------
Single Point Calculation (solute / CPCM)
----------------------------------------------
Output single point calculation redirected to >cs_rporg_w02_ox_cosmors_01.solute_cpcm.lastout

FINAL SINGLE POINT ENERGY (Solute-CPCM)     -571.832887251302

----------------------------------------------
Single Point Calculation (solvent / CPCM)
----------------------------------------------
Output single point calculation redirected to >cs_rporg_w02_ox_cosmors_01.solvent_cpcm.lastout

FINAL SINGLE POINT ENERGY (Solvent-CPCM)      -76.479236610816

----------------------
SOLVATION DATA
----------------------
Reference temperature              :                 298.15 K
Free energy of solvation (dGsolv)  :       -0.017644040599 Eh            -11.071805 kcal/mol

Note: In order to calculate the free energy of the solvated solute (Gsolv), one should add
      the computed dGsolv to the "Final Gibbs free energy" (Gvac = H-T*S) of the solute in gas-phase.
      That is: Gsolv = Gvac + dGsolv. Here, the Gvac has been calculated previously after a frequency
      calculation of the solute at a certain level of theory and printed in the "THERMOCHEMISTRY" block.

----------------------
openCOSMO-RS TIMINGS
----------------------
Time single point calculation (solute  / gas-phase) ...        40.80 (sec)
Time single point calculation (solute  / CPCM)      ...        31.25 (sec)
Time single point calculation (solvent / CPCM)      ...        15.78 (sec)
Time execution openCOSMO-RS binaries                ...         0.09 (sec)
Total time openCOSMO-RS                             ...        87.97 (sec)


--------------------------------
SUGGESTED CITATIONS FOR THIS RUN
--------------------------------

Below you find a list of papers that are relevant to this ORCA run
We neither can nor want to force you to cite these papers, but we appreciate if you do
You receive ORCA, which is the product of decades of hard work by many enthusiastic individuals, for free
The only thing we kindly ask in return is that you cite our papers,
We deeply appreciate it, if you show your appreciation for ORCA by not just citing the generic ORCA reference.

Please note that relegating all ORCA citations to the supporting information does *not* help us.
SI sections are not indexed - citations you put there will not count into any citation statistics
But we need these citations in order to attract the funding resources that allow us to do what we are doing

Therefore, if you are a happy ORCA user, please consider citing a few of the papers listed below in the main body of your paper

In addition to the list printed below, the program has created the file cs_rporg_w02_ox_cosmors_01.bibtex that contains the list in bibtex format
You can import this file easily into all common literature databanks and citation aid programs


List of essential papers. We consider these as the minimum necessary citations

  1. Neese,F.
     Software update: the ORCA program system, version 5.0
     WIRES Comput. Molec. Sci., 2022 12(1)e1606
     doi.org/10.1002/wcms.1606

List of papers to cite with high priority. The work reported in these papers was absolutely
necessary for this run to complete.
Our perspective: the developers of density functionals and basis sets usually get cited in chemistry papers
Good! But without the algorithms to do something with them, the functionals or basis sets would not do anything.
Hence, in our opinion, the algorithm design and method developments papers are equally worthy of getting cited

  1. Garcia-Rates,M.; Neese,F.
     Effect of the Solute Cavity on the Solvation Energy and its Derivatives within the Framework of the Gaussian Charge Scheme
     J. Comput. Chem., 2020 41 922-939
     doi.org/10.1002/jcc.26139
  2. Gerlach,T.; Müller,S.; González de Castilla,A.; Smirnova,I.
     An Open Source COSMO-RS Implementation and Parameterization Supporting the Efficient Implementation of Multiple Segment Descriptors
     Fluid Phase Equilibria, 2022 560 113472
     doi.org/10.1016/j.fluid.2022.113472
  3. Neese,F.
     The SHARK Integral Generation and Digestion System
     J. Comp. Chem., 2022  1-16
     doi.org/10.1002/jcc.26942

List of suggested additional citations. These are papers that are important in the 'surrounding' of 
of this run, or papers that preceded the highly important papers. If you like your results we are grateful for a citation.

  1. Neese,F.
     The ORCA program system
     WIRES Comput. Molec. Sci., 2012 2(1)73-78
     doi.org/10.1002/wcms.81
  2. Neese,F.
     Software update: the ORCA program system, version 4.0
     WIRES Comput. Molec. Sci., 2018 8(1)1-6
     doi.org/10.1002/wcms.1327
  3. Neese,F.; Wennmohs,F.; Becker,U.; Riplinger,C.
     The ORCA quantum chemistry program package
     J. Chem. Phys., 2020 152 Art. No. L224108
     doi.org/10.1063/5.0004608

List of optional additional citations

  1. Neese,F.
     Approximate second-order SCF convergence for spin unrestricted wavefunctions
     Chem. Phys. Lett., 2000 325(1-3)93-98
     doi.org/10.1016/s0009-2614(00)00662-x

Timings for individual modules:

Sum of individual times          ...       87.972 sec (=   1.466 min)
OPENCOSMO-RS module              ...       87.972 sec (=   1.466 min) 100.0 %
                             ****ORCA TERMINATED NORMALLY****
TOTAL RUN TIME: 0 days 0 hours 1 minutes 29 seconds 878 msec
