
                                 *****************
                                 * O   R   C   A *
                                 *****************

                                            #,                                       
                                            ###                                      
                                            ####                                     
                                            #####                                    
                                            ######                                   
                                           ########,                                 
                                     ,,################,,,,,                         
                               ,,#################################,,                 
                          ,,##########################################,,             
                       ,#########################################, ''#####,          
                    ,#############################################,,   '####,        
                  ,##################################################,,,,####,       
                ,###########''''           ''''###############################       
              ,#####''   ,,,,##########,,,,          '''####'''          '####       
            ,##' ,,,,###########################,,,                        '##       
           ' ,,###''''                  '''############,,,                           
         ,,##''                                '''############,,,,        ,,,,,,###''
      ,#''                                            '''#######################'''  
     '                                                          ''''####''''         
             ,#######,   #######,   ,#######,      ##                                
            ,#'     '#,  ##    ##  ,#'     '#,    #''#        ,####,   ,####,        
            ##       ##  ##   ,#'  ##            #'  '#       #'       #'  '#        
            ##       ##  #######   ##           ,######,      #####,   #    #        
            '#,     ,#'  ##    ##  '#,     ,#' ,#      #,     #,   #   #,  ,#        
             '#######'   ##     ##  '#######'  #'      '#     '####' # '####'        



                #########################################################
                #                        -***-                          #
                #          Department of theory and spectroscopy        #
                #                                                       #
                #                      Frank Neese                      #
                #                                                       #
                #     Directorship, Architecture, Infrastructure        #
                #                    SHARK, DRIVERS                     #
                #        Core code/Algorithms in most modules           #
                #                                                       #
                #        Max Planck Institute fuer Kohlenforschung      #
                #                Kaiser Wilhelm Platz 1                 #
                #                 D-45470 Muelheim/Ruhr                 #
                #                      Germany                          #
                #                                                       #
                #                  All rights reserved                  #
                #                        -***-                          #
                #########################################################


                         Program Version 6.0.0  -   RELEASE  -


 With contributions from (in alphabetic order):
   Daniel Aravena         : Magnetic Suceptibility
   Michael Atanasov       : Ab Initio Ligand Field Theory (pilot matlab implementation)
   Alexander A. Auer      : GIAO ZORA, VPT2 properties, NMR spectrum
   Ute Becker             : All parallelization in ORCA, NUMFREQ, NUMCALC
   Giovanni Bistoni       : ED, misc. LED, open-shell LED, HFLD
   Martin Brehm           : Molecular dynamics
   Dmytro Bykov           : pre 5.0 version of the SCF Hessian
   Marcos Casanova-Páez   : Triplet and SCS-CIS(D). UHF-(DLPNO)-IP/EA/STEOM-CCSD. UHF-CVS-IP/STEOM-CCSD
   Vijay G. Chilkuri      : MRCI spin determinant printing, contributions to CSF-ICE
   Pauline Colinet        : FMM embedding
   Dipayan Datta          : RHF DLPNO-CCSD density
   Achintya Kumar Dutta   : EOM-CC, STEOM-CC
   Nicolas Foglia         : Exact transition moments, OPA infrastructure, MCD improvements
   Dmitry Ganyushin       : Spin-Orbit,Spin-Spin,Magnetic field MRCI
   Miquel Garcia          : C-PCM and meta-GGA Hessian, CCSD/C-PCM, Gaussian charge scheme
   Tiago L. C. Gouveia    : GS-ROHF, GS-ROCIS
   Yang Guo               : DLPNO-NEVPT2, F12-NEVPT2, CIM, IAO-localization
   Andreas Hansen         : Spin unrestricted coupled pair/coupled cluster methods
   Ingolf Harden          : AUTO-CI MPn and infrastructure 
   Benjamin Helmich-Paris : MC-RPA, TRAH-(SCF,CASSCF), AVAS, COSX integrals, SCF dyn. polar.
   Lee Huntington         : MR-EOM, pCC
   Robert Izsak           : Overlap fitted RIJCOSX, COSX-SCS-MP3, EOM
   Riya Kayal             : Wick's Theorem for AUTO-CI, AUTO-CI UHF-CCSDT
   Emily Kempfer          : AUTO-CI, RHF CISDT and CCSDT
   Christian Kollmar      : KDIIS, OOCD, Brueckner-CCSD(T), CCSD density, CASPT2, CASPT2-K, improved NEVPT2
   Axel Koslowski         : Symmetry handling
   Simone Kossmann        : Meta GGA functionals, TD-DFT gradient, OOMP2, (MP2 Hessian; deprecated post 5.0)
   Lucas Lang             : DCDCAS
   Marvin Lechner         : AUTO-CI (C++ implementation), FIC-MRCC
   Spencer Leger          : CASSCF response
   Dagmar Lenk            : GEPOL surface, SMD, ORCA-2-JSON
   Dimitrios Liakos       : Extrapolation schemes; Compound Job, initial MDCI parallelization
   Dimitrios Manganas     : Further ROCIS development; embedding schemes. LFT, Crystal Embedding
   Dimitrios Pantazis     : SARC Basis sets
   Anastasios Papadopoulos: AUTO-CI, single reference methods and gradients
   Taras Petrenko         : pre 6.0 DFT Hessian and TD-DFT gradient, (ASA, deprecated), ECA, 1-Electron XAS/XES, NRVS
   Peter Pinski           : DLPNO-MP2, DLPNO-MP2 Gradient
   Christoph Reimann      : Effective Core Potentials
   Marius Retegan         : Local ZFS, SOC
   Christoph Riplinger    : Optimizer, TS searches, QM/MM, DLPNO-CCSD(T), (RO)-DLPNO pert. Triples
   Michael Roemelt        : Original ROCIS implementation
   Masaaki Saitow         : Open-shell DLPNO-CCSD energy and density
   Barbara Sandhoefer     : DKH picture change effects
   Kantharuban Sivalingam : CASSCF convergence/infrastructure, NEVPT2 and variants, FIC-MRCI
   Bernardo de Souza      : ESD, SOC TD-DFT
   Georgi Stoychev        : AutoAux, RI-MP2 NMR, DLPNO-MP2 response, X2C
   Van Anh Tran           : RI-MP2 g-tensors
   Willem Van den Heuvel  : Paramagnetic NMR
   Zikuan Wang            : NOTCH, Electric field optimization 
   Frank Wennmohs         : Technical directorship and infrastructure
   Hang Xu                : AUTO-CI-Response properties 


 We gratefully acknowledge several colleagues who have allowed us to
 interface, adapt or use parts of their codes:
   Stefan Grimme, W. Hujo, H. Kruse, P. Pracht,  : VdW corrections, initial TS optimization,
                  C. Bannwarth, S. Ehlert,         DFT functionals, gCP, sTDA/sTD-DF
                  L. Wittmann, M. Mueller
   Ed Valeev, F. Pavosevic, A. Kumar             : LibInt (2-el integral package), F12 methods
   Garnet Chan, S. Sharma, J. Yang, R. Olivares  : DMRG
   Ulf Ekstrom                                   : XCFun DFT Library
   Mihaly Kallay                                 : mrcc  (arbitrary order and MRCC methods)
   Frank Weinhold                                : gennbo (NPA and NBO analysis)
   Simon Mueller                                 : openCOSMO-RS
   Christopher J. Cramer and Donald G. Truhlar   : smd solvation model
   Lars Goerigk                                  : TD-DFT with DH, B97 family of functionals
   V. Asgeirsson, H. Jonsson                     : NEB implementation
   FAccTs GmbH                                   : IRC, NEB, NEB-TS, DLPNO-Multilevel, CI-OPT
                                                   MM, QMMM, 2- and 3-layer-ONIOM, Crystal-QMMM,
                                                   LR-CPCM, SF, NACMEs, symmetry and pop. for TD-DFT,
                                                   nearIR, NL-DFT gradient (VV10), updates on ESD,
                                                   ML-optimized integration grids, MBIS, APM,
                                                   GOAT, DOCKER, SOLVATOR, interface openCOSMO-RS
   S Lehtola, MJT Oliveira, MAL Marques          : LibXC Library
   Liviu Ungur et al                             : ANISO software


 Your calculation uses the libint2 library for the computation of 2-el integrals
 For citations please refer to: http://libint.valeyev.net

 Your ORCA version has been built with support for libXC version: 6.2.2
 For citations please refer to: https://libxc.gitlab.io

 This ORCA versions uses:
   CBLAS   interface :  Fast vector & matrix operations
   LAPACKE interface :  Fast linear algebra routines
   SCALAPACK package :  Parallel linear algebra routines
   Shared memory     :  Shared parallel matrices
   BLAS/LAPACK       :  OpenBLAS 0.3.27  USE64BITINT DYNAMIC_ARCH NO_AFFINITY Sandybridge SINGLE_THREADED
        Core in use  :  Sandybridge
   Copyright (c) 2011-2014, The OpenBLAS Project


NOTE: MaxCore=3500 MB was set to SCF,MP2,MDCI,CIPSI,MRCI and CIS
      => If you want to overwrite this, your respective input block should be placed after the MaxCore statement
Your calculation utilizes the atom-pairwise dispersion correction
with the Becke-Johnson damping scheme (D3BJ)


Your calculation utilizes the SMD solvation module
Please cite in your paper:
A.V. Marenich, C.J. Cramer, D.G. Truhlar J. Phys. Chem. B, 113, (2009), 6378 

Warning: RI is on but no J-basis has been assigned. Assigning Def2/J (nothing to worry about!)
================================================================================

----- Orbital basis set information -----
Your calculation utilizes the basis: aug-cc-pVTZ 
    H, B-Ne : Obtained from the ccRepo (grant-hill.group.shef.ac.uk/ccrepo) Feb. 2017
              R. A. Kendall, T. H. Dunning, Jr., R. J. Harrison, J. Chem. Phys. 96, 6796 (1992)
         He : Obtained from the ccRepo (grant-hill.group.shef.ac.uk/ccrepo) Feb. 2017
              D. E. Woon, T. H. Dunning, Jr., J. Chem. Phys. 100, 2975 (1994)
  Li-Be, Na : Obtained from the ccRepo (grant-hill.group.shef.ac.uk/ccrepo) Feb. 2017
              B. P. Prascher, D. E. Woon, K. A. Peterson, T. H. Dunning, Jr., A. K. Wilson, Theor. Chem. Acc. 128, 69 (2011)
         Mg : Obtained from the Peterson Research Group Website (tyr0.chem.wsu.edu/~kipeters) Feb. 2017
              B. P. Prascher, D. E. Woon, K. A. Peterson, T. H. Dunning, Jr., A. K. Wilson, Theor. Chem. Acc. 128, 69 (2011)
      Al-Ar : Obtained from the ccRepo (grant-hill.group.shef.ac.uk/ccrepo) Feb. 2017
              D. E. Woon, T. H. Dunning, Jr., J. Chem. Phys. 98, 1358 (1993)
      Sc-Zn : Obtained from the ccRepo (grant-hill.group.shef.ac.uk/ccrepo) Feb. 2017
              N. B. Balabanov, K. A. Peterson, J. Chem. Phys. 123, 064107 (2005)
              N. B. Balabanov, K. A. Peterson, J. Chem. Phys. 125, 074110 (2006)
      Ga-Kr : Obtained from the ccRepo (grant-hill.group.shef.ac.uk/ccrepo) Feb. 2017
              A. K. Wilson, D. E. Woon, K. A. Peterson, T. H. Dunning, Jr., J. Chem. Phys. 110, 7667 (1999)
     Ag, Au : Obtained from the Peterson Research Group Website (tyr0.chem.wsu.edu/~kipeters) Feb. 2017
              K. A. Peterson, C. Puzzarini, Theor. Chem. Acc. 114, 283 (2005)

----- AuxJ basis set information -----
Your calculation utilizes the auxiliary basis: def2/J
   F. Weigend, Phys. Chem. Chem. Phys. 8, 1057 (2006).

================================================================================
                                        WARNINGS
                       Please study these warnings very carefully!
================================================================================

Using LibXC functional ID 497 : Re-regularized SCAN exchange by Furness et al
[ 1]  J. W. Furness, A. D. Kaplan, J. Ning, J. P. Perdew, and J. Sun.,  J. Phys. Chem. Lett. 11, 8208-8215 (2020)
[ 2]  J. W. Furness, A. D. Kaplan, J. Ning, J. P. Perdew, and J. Sun.,  J. Phys. Chem. Lett. 11, 9248-9248 (2020)
Using LibXC functional ID 498 : Re-regularized SCAN correlation by Furness et al
[ 1]  J. W. Furness, A. D. Kaplan, J. Ning, J. P. Perdew, and J. Sun.,  J. Phys. Chem. Lett. 11, 8208-8215 (2020)
[ 2]  J. W. Furness, A. D. Kaplan, J. Ning, J. P. Perdew, and J. Sun.,  J. Phys. Chem. Lett. 11, 9248-9248 (2020)
Using LibXC functional ID 497 : Re-regularized SCAN exchange by Furness et al
[ 1]  J. W. Furness, A. D. Kaplan, J. Ning, J. P. Perdew, and J. Sun.,  J. Phys. Chem. Lett. 11, 8208-8215 (2020)
[ 2]  J. W. Furness, A. D. Kaplan, J. Ning, J. P. Perdew, and J. Sun.,  J. Phys. Chem. Lett. 11, 9248-9248 (2020)
Using LibXC functional ID 498 : Re-regularized SCAN correlation by Furness et al
[ 1]  J. W. Furness, A. D. Kaplan, J. Ning, J. P. Perdew, and J. Sun.,  J. Phys. Chem. Lett. 11, 8208-8215 (2020)
[ 2]  J. W. Furness, A. D. Kaplan, J. Ning, J. P. Perdew, and J. Sun.,  J. Phys. Chem. Lett. 11, 9248-9248 (2020)


WARNING: Found flag for RIJCOSX approximation but no HF exchange needed!
  ===> : RIJCOSX  will be disabled and Split-RI-J is turned on

WARNING: your system is open-shell and RHF/RKS was chosen
  ===> : WILL SWITCH to UHF/UKS


================================================================================
                                       INPUT FILE
================================================================================
NAME = cs_rporg_w01_red_solv_03.inp
|  1> !r2SCAN aug-cc-pVTZ d3 TightSCF SlowConv RIJCOSX defgrid2
|  2> 
|  3> %pal
|  4> nprocs 15
|  5> end
|  6> 
|  7> %scf
|  8> MaxIter 1500
|  9> end
| 10> 
| 11> %maxcore 3500
| 12> 
| 13> !CPCM
| 14> %cpcm smd true
| 15> SMDsolvent "WATER"
| 16> surfacetype gepol_ses
| 17> rsolv 1.40
| 18> end
| 19> 
| 20> * xyz -1 2
| 21> C          -0.01873170749674      0.04093753406553     -3.52858975972066
| 22> C          -0.08481953761759     -0.05154774136999      0.71463088236912
| 23> C           1.06074238697258      0.22514736046509      1.53440757464188
| 24> C           0.96830356526862      0.17882896728935      2.90786805737149
| 25> C          -0.26470551878929     -0.14423885396115      3.51526371962268
| 26> C          -1.33128436816010     -0.40174847455106      2.63782787275971
| 27> N          -1.27485689979469     -0.36556245628455      1.32561828552698
| 28> H           2.02142786234163      0.47540072062604      1.07674146761929
| 29> H           1.85377788752582      0.39275930361097      3.52001278224486
| 30> H          -0.39061214364026     -0.19370360376422      4.60098661165976
| 31> H          -2.31725327762224     -0.66048458620174      3.06445837201647
| 32> C          -0.03491140317629     -0.01288869194778     -0.72111388392229
| 33> C           1.16270029754736      0.31139406157834     -1.44337296366598
| 34> C           1.16651016564823      0.33657884142632     -2.82048186671520
| 35> C          -1.14232412396102     -0.26425404984996     -2.74235450381628
| 36> N          -1.17775822889852     -0.29650902231833     -1.42933091490151
| 37> H           2.08677406925420      0.54347018773518     -0.90745689096374
| 38> H           2.09048709414386      0.58686162656875     -3.35729468270631
| 39> H          -0.06814499795324      0.04684125814958     -4.62156621654479
| 40> H          -2.09470004459233     -0.50226242026639     -3.24971132087547
| 41> *
| 42> 
| 43>                          ****END OF INPUT****
================================================================================

                       ****************************
                       * Single Point Calculation *
                       ****************************

---------------------------------
CARTESIAN COORDINATES (ANGSTROEM)
---------------------------------
  C     -0.018732    0.040938   -3.528590
  C     -0.084820   -0.051548    0.714631
  C      1.060742    0.225147    1.534408
  C      0.968304    0.178829    2.907868
  C     -0.264706   -0.144239    3.515264
  C     -1.331284   -0.401748    2.637828
  N     -1.274857   -0.365562    1.325618
  H      2.021428    0.475401    1.076741
  H      1.853778    0.392759    3.520013
  H     -0.390612   -0.193704    4.600987
  H     -2.317253   -0.660485    3.064458
  C     -0.034911   -0.012889   -0.721114
  C      1.162700    0.311394   -1.443373
  C      1.166510    0.336579   -2.820482
  C     -1.142324   -0.264254   -2.742355
  N     -1.177758   -0.296509   -1.429331
  H      2.086774    0.543470   -0.907457
  H      2.090487    0.586862   -3.357295
  H     -0.068145    0.046841   -4.621566
  H     -2.094700   -0.502262   -3.249711

----------------------------
CARTESIAN COORDINATES (A.U.)
----------------------------
  NO LB      ZA    FRAG     MASS         X           Y           Z
   0 C     6.0000    0    12.011   -0.035398    0.077361   -6.668068
   1 C     6.0000    0    12.011   -0.160286   -0.097411    1.350457
   2 C     6.0000    0    12.011    2.004513    0.425467    2.899610
   3 C     6.0000    0    12.011    1.829829    0.337938    5.495074
   4 C     6.0000    0    12.011   -0.500221   -0.272572    6.642886
   5 C     6.0000    0    12.011   -2.515763   -0.759195    4.984772
   6 N     7.0000    0    14.007   -2.409130   -0.690813    2.505056
   7 H     1.0000    0     1.008    3.819945    0.898377    2.034746
   8 H     1.0000    0     1.008    3.503133    0.742208    6.651860
   9 H     1.0000    0     1.008   -0.738150   -0.366047    8.694605
  10 H     1.0000    0     1.008   -4.378974   -1.248135    5.790987
  11 C     6.0000    0    12.011   -0.065973   -0.024356   -1.362708
  12 C     6.0000    0    12.011    2.197185    0.588449   -2.727580
  13 C     6.0000    0    12.011    2.204385    0.636042   -5.329938
  14 C     6.0000    0    12.011   -2.158680   -0.499368   -5.182299
  15 N     7.0000    0    14.007   -2.225641   -0.560321   -2.701044
  16 H     1.0000    0     1.008    3.943431    1.027010   -1.714845
  17 H     1.0000    0     1.008    3.950448    1.109008   -6.344368
  18 H     1.0000    0     1.008   -0.128775    0.088517   -8.733494
  19 H     1.0000    0     1.008   -3.958409   -0.949138   -6.141064

--------------------------------
INTERNAL COORDINATES (ANGSTROEM)
--------------------------------
 C      0   0   0     0.000000000000     0.00000000     0.00000000
 C      1   0   0     4.244742930369     0.00000000     0.00000000
 C      2   1   0     1.435585639258   123.65643646     0.00000000
 C      3   2   1     1.377346734459   120.62334081   179.92107676
 C      4   3   2     1.411953862213   119.68753824     0.00000000
 C      5   4   3     1.404918258114   115.86368711     0.06122404
 N      6   5   4     1.313920655112   125.87940447   359.93202204
 H      3   2   1     1.093161283788   120.41914780   359.86976311
 H      4   3   2     1.097520901107   119.70118000   179.98237519
 H      5   4   3     1.094117652699   122.52832326   180.03371725
 H      6   5   4     1.105030609890   118.63116537   179.92437992
 C      2   1   7     1.437131997389     1.13664156   180.67964081
 C     12   2   7     1.435650120404   122.52371395   179.70976794
 C     13  12   2     1.377344444606   120.62654474   179.97939640
 C      1   2   3     1.404908430773    54.78693140   179.73688728
 N     15   1   2     1.313897600305   125.88523856     0.00000000
 H     13  12   2     1.093150356021   120.43004058   359.91667325
 H     14  13  12     1.097516667911   119.70475434   179.97370449
 H      1   2   3     1.094108798248   176.39496493   179.17351999
 H     15   1   2     1.105024351950   118.62815408   180.00961274

---------------------------
INTERNAL COORDINATES (A.U.)
---------------------------
 C      0   0   0     0.000000000000     0.00000000     0.00000000
 C      1   0   0     8.021401647296     0.00000000     0.00000000
 C      2   1   0     2.712863699988   123.65643646     0.00000000
 C      3   2   1     2.602808119578   120.62334081   179.92107676
 C      4   3   2     2.668206113315   119.68753824     0.00000000
 C      5   4   3     2.654910748381   115.86368711     0.06122404
 N      6   5   4     2.482950199864   125.87940447   359.93202204
 H      3   2   1     2.065775446566   120.41914780   359.86976311
 H      4   3   2     2.074013929346   119.70118000   179.98237519
 H      5   4   3     2.067582721890   122.52832326   180.03371725
 H      6   5   4     2.088205222292   118.63116537   179.92437992
 C      2   1   7     2.715785893360     1.13664156   180.67964081
 C     12   2   7     2.712985551695   122.52371395   179.70976794
 C     13  12   2     2.602803792384   120.62654474   179.97939640
 C      1   2   3     2.654892177397    54.78693140   179.73688728
 N     15   1   2     2.482906632594   125.88523856     0.00000000
 H     13  12   2     2.065754796078   120.43004058   359.91667325
 H     14  13  12     2.074005929766   119.70475434   179.97370449
 H      1   2   3     2.067565989402   176.39496493   179.17351999
 H     15   1   2     2.088193396500   118.62815408   180.00961274

---------------------
BASIS SET INFORMATION
---------------------
There are 3 groups of distinct atoms

 Group   1 Type C   : 19s6p3d2f contracted to 5s4p3d2f pattern {88111/3111/111/11}
 Group   2 Type N   : 19s6p3d2f contracted to 5s4p3d2f pattern {88111/3111/111/11}
 Group   3 Type H   : 6s3p2d contracted to 4s3p2d pattern {3111/111/11}

Atom   0C    basis set group =>   1
Atom   1C    basis set group =>   1
Atom   2C    basis set group =>   1
Atom   3C    basis set group =>   1
Atom   4C    basis set group =>   1
Atom   5C    basis set group =>   1
Atom   6N    basis set group =>   2
Atom   7H    basis set group =>   3
Atom   8H    basis set group =>   3
Atom   9H    basis set group =>   3
Atom  10H    basis set group =>   3
Atom  11C    basis set group =>   1
Atom  12C    basis set group =>   1
Atom  13C    basis set group =>   1
Atom  14C    basis set group =>   1
Atom  15N    basis set group =>   2
Atom  16H    basis set group =>   3
Atom  17H    basis set group =>   3
Atom  18H    basis set group =>   3
Atom  19H    basis set group =>   3
---------------------------------
AUXILIARY/J BASIS SET INFORMATION
---------------------------------
There are 3 groups of distinct atoms

 Group   1 Type C   : 12s5p4d2f1g contracted to 6s4p3d1f1g pattern {711111/2111/211/2/1}
 Group   2 Type N   : 12s5p4d2f1g contracted to 6s4p3d1f1g pattern {711111/2111/211/2/1}
 Group   3 Type H   : 5s2p1d contracted to 3s1p1d pattern {311/2/1}

Atom   0C    basis set group =>   1
Atom   1C    basis set group =>   1
Atom   2C    basis set group =>   1
Atom   3C    basis set group =>   1
Atom   4C    basis set group =>   1
Atom   5C    basis set group =>   1
Atom   6N    basis set group =>   2
Atom   7H    basis set group =>   3
Atom   8H    basis set group =>   3
Atom   9H    basis set group =>   3
Atom  10H    basis set group =>   3
Atom  11C    basis set group =>   1
Atom  12C    basis set group =>   1
Atom  13C    basis set group =>   1
Atom  14C    basis set group =>   1
Atom  15N    basis set group =>   2
Atom  16H    basis set group =>   3
Atom  17H    basis set group =>   3
Atom  18H    basis set group =>   3
Atom  19H    basis set group =>   3


           ************************************************************
           *        Program running with 15 parallel MPI-processes    *
           *              working on a common directory               *
           ************************************************************
------------------------------------------------------------------------------
                             ORCA STARTUP CALCULATIONS
                           -- RI-GTO INTEGRALS CHOSEN --
------------------------------------------------------------------------------
------------------------------------------------------------------------------
                   ___                                                        
                  /   \      - P O W E R E D   B Y -                         
                 /     \                                                     
                 |  |  |   _    _      __       _____    __    __             
                 |  |  |  | |  | |    /  \     |  _  \  |  |  /  |          
                  \  \/   | |  | |   /    \    | | | |  |  | /  /          
                 / \  \   | |__| |  /  /\  \   | |_| |  |  |/  /          
                |  |  |   |  __  | /  /__\  \  |    /   |      \           
                |  |  |   | |  | | |   __   |  |    \   |  |\   \          
                \     /   | |  | | |  |  |  |  | |\  \  |  | \   \       
                 \___/    |_|  |_| |__|  |__|  |_| \__\ |__|  \__/        
                                                                              
                      - O R C A' S   B I G   F R I E N D -                    
                                      &                                       
                       - I N T E G R A L  F E E D E R -                       
                                                                              
 v1 FN, 2020, v2 2021, v3 2022-2024                                           
------------------------------------------------------------------------------


----------------------
SHARK INTEGRAL PACKAGE
----------------------

Number of atoms                             ...     20
Number of basis functions                   ...    808
Number of shells                            ...    312
Maximum angular momentum                    ...      3
Integral batch strategy                     ... SHARK/LIBINT Hybrid
RI-J (if used) integral strategy            ... SPLIT-RIJ (Revised 2003 algorithm where possible)
Printlevel                                  ...      1
Contraction scheme used                     ... PARTIAL GENERAL contraction
Prescreening option                         ... SCHWARTZ
   Thresh                                   ... 2.500e-11
   Tcut                                     ... 2.500e-12
   Tpresel                                  ... 2.500e-12 
Coulomb Range Separation                    ... NOT USED
Exchange Range Separation                   ... NOT USED
Multipole approximations                    ... NOT USED
Finite Nucleus Model                        ... NOT USED
CABS basis                                  ... NOT available
Auxiliary Coulomb fitting basis             ... AVAILABLE
   # of basis functions in Aux-J            ...    676
   # of shells in Aux-J                     ...    220
   Maximum angular momentum in Aux-J        ...      4
Auxiliary J/K fitting basis                 ... NOT available
Auxiliary Correlation fitting basis         ... NOT available
Auxiliary 'external' fitting basis          ... NOT available

Checking pre-screening integrals            ... done (  0.1 sec) Dimension = 312
Save PGC pre-screening integrals            ... done (  0.1 sec) Dimension = 312
Calculate PGC overlap integrals             ... done (  0.2 sec) Dimension = 240
Calculating pre-screening integrals (ORCA)  ... done (  0.3 sec) Dimension = 240
Check shell pair data                       ... done (  0.1 sec)
Shell pair information
Shell pair cut-off parameter TPreSel        ...   2.5e-12
Total number of shell pairs                 ...     48828
Shell pairs after pre-screening             ...     38523
Total number of primitive shell pairs       ...     62188
Primitive shell pairs kept                  ...     45455
          la=0 lb=0:   8686 shell pairs
          la=1 lb=0:   9755 shell pairs
          la=1 lb=1:   2399 shell pairs
          la=2 lb=0:   6794 shell pairs
          la=2 lb=1:   3371 shell pairs
          la=2 lb=2:   1227 shell pairs
          la=3 lb=0:   3268 shell pairs
          la=3 lb=1:   1588 shell pairs
          la=3 lb=2:   1150 shell pairs
          la=3 lb=3:    285 shell pairs

Calculating one electron integrals          ... done (  0.1 sec)
Calculating RI/J V-Matrix + Cholesky decomp.... done (  0.1 sec)
Calculating Nuclear repulsion               ... done (  0.0 sec) ENN=    606.405821821146 Eh

Diagonalization of the overlap matrix:
Smallest eigenvalue                        ... 4.220e-07
Time for diagonalization                   ...    0.181 sec
Threshold for overlap eigenvalues          ... 1.000e-07
Number of eigenvalues below threshold      ... 0

IMPORTANT:
Smallest eigenvalue of S below the DiffSThresh (1.000e-06) while
Thresh>1e-12 and/or TCut>1e-13! In order to avoid SCF convergence issues,
Thresh will be set to at least 1e-12 and TCut to at least 1e-13.
This can be turned off by adding %SCF DiffSThresh -1 END to the input.

Time for construction of square roots      ...    0.138 sec
Total time needed                          ...    0.405 sec

-------------------
DFT GRID GENERATION
-------------------

General Integration Accuracy     IntAcc      ... 4.388
Radial Grid Type                 RadialGrid  ... OptM3 with GC (2021)
Angular Grid (max. ang.)         AngularGrid ... 4 (Lebedev-302)
Angular grid pruning method      GridPruning ... 4 (adaptive)
Weight generation scheme         WeightScheme... mBecke (2022)
Basis function cutoff            BFCut       ... 1.0000e-11
Integration weight cutoff        WCut        ... 1.0000e-14
Partially contracted basis set               ... off
Rotationally invariant grid construction     ... off
Angular grids for H and He will be reduced by one unit
Diffuse basis detected: some atoms will have their outermost
                        angular grid increased by 1.

Total number of grid points                  ...   102473
Total number of batches                      ...     1612
Average number of points per batch           ...       63
Average number of grid points per atom       ...     5124

---------------------
SHARK GRID GENERATION
---------------------

General Integration Accuracy     IntAcc      ... 4.388
Radial Grid Type                 RadialGrid  ... OptM3 with GC (2021)
Angular Grid (max. ang.)         AngularGrid ... 4 (Lebedev-302)
Angular grid pruning method      GridPruning ... 4 (adaptive)
Weight generation scheme         WeightScheme... mBecke (2022)
Basis function cutoff            BFCut       ... 1.0000e-11
Integration weight cutoff        WCut        ... 1.0000e-14
Partially contracted basis set               ... off
Rotationally invariant grid construction     ... off
Angular grids for H and He will be reduced by one unit
Diffuse basis detected: some atoms will have their outermost
                        angular grid increased by 1.
Steep s-basis detected: some atoms will have their radial
                        grid points doubled.

Total number of grid points                  ...   178147
Total number of batches                      ...     2794
Average number of points per batch           ...       63
Average number of grid points per atom       ...     8907
Initializing property integral containers    ... done (  0.2 sec)

SHARK setup successfully completed in   6.0 seconds

Maximum memory used throughout the entire STARTUP-calculation: 78.9 MB


           ************************************************************
           *        Program running with 15 parallel MPI-processes    *
           *              working on a common directory               *
           ************************************************************
-------------------------------------------------------------------------------
                                 ORCA GUESS
                   Start orbitals & Density for SCF / CASSCF
-------------------------------------------------------------------------------

------------
SCF SETTINGS
------------
Hamiltonian:
 Density Functional     Method          .... DFT(GTOs)
  Functional kind                       .... Exchange
  Functional name                       .... Re-regularized SCAN exchange by Furness et al
  Functional family                     .... MGGA
  Functional refs                              
    [ 0] J. W. Furness, A. D. Kaplan, J. Ning, J. P. Perdew, and J. Sun.,  J. Phys. Chem. Lett. 11, 8208-8215 (2020), doi: 10.1021/acs.jpclett.0c02405
    [ 1] J. W. Furness, A. D. Kaplan, J. Ning, J. P. Perdew, and J. Sun.,  J. Phys. Chem. Lett. 11, 9248-9248 (2020), doi: 10.1021/acs.jpclett.0c03077
  Functional external parameters        .... 6
    Parameter  0 _c1        =  6.670000e-01 : c1 parameter        
    Parameter  1 _c2        =  8.000000e-01 : c2 parameter        
    Parameter  2 _d         =  1.240000e+00 : d parameter         
    Parameter  3 _k1        =  6.500000e-02 : k1 parameter        
    Parameter  4 _eta       =  1.000000e-03 : eta parameter       
    Parameter  5 _dp2       =  3.610000e-01 : dp2 parameter       
  Functional kind                       .... Correlation
  Functional name                       .... Re-regularized SCAN correlation by Furness et al
  Functional family                     .... MGGA
  Functional refs                              
    [ 0] J. W. Furness, A. D. Kaplan, J. Ning, J. P. Perdew, and J. Sun.,  J. Phys. Chem. Lett. 11, 8208-8215 (2020), doi: 10.1021/acs.jpclett.0c02405
    [ 1] J. W. Furness, A. D. Kaplan, J. Ning, J. P. Perdew, and J. Sun.,  J. Phys. Chem. Lett. 11, 9248-9248 (2020), doi: 10.1021/acs.jpclett.0c03077
  Functional external parameters        .... 1
    Parameter  0 _eta       =  1.000000e-03 : Regularization parameter
 Gradients option       PostSCFGGA      .... off
   NL short-range parameter             .... 12.300000
 RI-approximation to the Coulomb term is turned on
   Number of AuxJ basis functions       .... 676


General Settings:
 Integral files         IntName         .... cs_rporg_w01_red_solv_03
 Hartree-Fock type      HFTyp           .... UHF
 Total Charge           Charge          ....   -1
 Multiplicity           Mult            ....    2
 Number of Electrons    NEL             ....   83
 Basis Dimension        Dim             ....  736
 Nuclear Repulsion      ENuc            ....    606.4058218211 Eh

Convergence Acceleration:
 AO-DIIS                CNVDIIS         .... on
   Start iteration      DIISMaxIt       ....     0
   Startup error        DIISStart       ....  0.200000
   # of expansion vecs  DIISMaxEq       ....     5
   Bias factor          DIISBfac        ....   1.050
   Max. coefficient     DIISMaxC        ....  10.000
 MO-DIIS                CNVKDIIS        .... off
 Trust-Rad. Augm. Hess. CNVTRAH         .... auto
   Auto Start mean grad. ratio tolernc. ....  1.125000
   Auto Start start iteration           ....    50
   Auto Start num. interpolation iter.  ....    10
   Max. Number of Micro iterations      ....    24
   Max. Number of Macro iterations      .... Maxiter - #DIIS iter
   Number of Davidson start vectors     ....     2
   Converg. threshold    (grad. norm)   ....   1.000e-05
   Grad. Scal. Fac. for Micro threshold ....   0.100
   Minimum threshold for Micro iter.    ....   1.000e-02
   NR start threshold (gradient norm)   ....   1.000e-04
   Initial trust radius                 ....   0.400
   Minimum AH scaling param. (alpha)    ....   1.000
   Maximum AH scaling param. (alpha)    .... 1000.000
   Quad. conv. algorithm                .... NR
   White noise on init. David. guess    .... on
   Maximum white noise                  ....   0.010
   Pseudo random numbers                .... off
   Inactive MOs                         .... canonical
   Orbital update algorithm             .... Taylor
   Preconditioner                       .... Diag
   Full preconditioner red. dimension   ....   250
 SOSCF                  CNVSOSCF        .... on
   Start iteration      SOSCFMaxIt      ....   150
   Startup grad/error   SOSCFStart      ....  0.001000
   Hessian update       SOSCFHessUp     .... L-BFGS
 Level Shifting         CNVShift        .... on
   Level shift para.    LevelShift      ....    0.2500
   Turn off err/grad.   ShiftErr        ....    0.0000
 Zerner damping         CNVZerner       .... off
 Static damping         CNVDamp         .... on
   Fraction old density DampFac         ....    0.8500
   Max. Damping (<1)    DampMax         ....    0.9800
   Min. Damping (>=0)   DampMin         ....    0.0000
   Turn off err/grad.   DampErr         ....    0.0300

SCF Procedure:
 Maximum # iterations   MaxIter         ....  1500
 SCF integral mode      SCFMode         .... Direct
   Integral package                     .... SHARK and LIBINT hybrid scheme
 Reset frequency        DirectResetFreq ....    20
 Integral Threshold     Thresh          ....  1.000e-12 Eh
 Primitive CutOff       TCut            ....  1.000e-13 Eh

Convergence Tolerance:
 Convergence Check Mode ConvCheckMode   .... Total+1el-Energy
 Convergence forced     ConvForced      .... 0
 Energy Change          TolE            ....  1.000e-08 Eh
 1-El. energy change                    ....  1.000e-05 Eh
 Orbital Gradient       TolG            ....  1.000e-05
 Orbital Rotation angle TolX            ....  1.000e-05
 DIIS Error             TolErr          ....  5.000e-07

------------------------------
INITIAL GUESS: MODEL POTENTIAL
------------------------------
Loading Hartree-Fock densities                     ... done
Calculating cut-offs                               ... done
Initializing the effective Hamiltonian             ... done
Setting up the integral package (SHARK)            ... done
Starting the Coulomb interaction                   ... done (   0.4 sec)
Making the grid                                    ... done (   0.4 sec)
Mapping shells                                     ... done
Starting the XC term evaluation                    ... done (   0.4 sec)
  promolecular density results
     # of electrons  =     81.997941739
     EX              =    -66.509948734
     EC              =     -2.725330649
     EX+EC           =    -69.235279383
Transforming the Hamiltonian                       ... done (   0.2 sec)
Diagonalizing the Hamiltonian                      ... done (   0.2 sec)
Back transforming the eigenvectors                 ... done (   0.8 sec)
Now organizing SCF variables                       ... done
                      ------------------
                      INITIAL GUESS DONE (   3.6 sec)
                      ------------------
             **** ENERGY FILE WAS UPDATED (cs_rporg_w01_red_solv_03.en.tmp) ****
Finished Guess after   5.4 sec
Maximum memory used throughout the entire GUESS-calculation: 58.3 MB


           ************************************************************
           *        Program running with 15 parallel MPI-processes    *
           *              working on a common directory               *
           ************************************************************

-------------------------------------------------------------------------------------------
                                      ORCA LEAN-SCF
                              memory conserving SCF solver
-------------------------------------------------------------------------------------------

--------------------
CPCM SOLVATION MODEL
--------------------
CPCM parameters:
  Epsilon                                         ...      78.3550
  Refrac                                          ...       1.3328
  Rsolv                                           ...       1.4000
  Surface type                                    ...    GEPOL SES
  Discretization scheme                           ... Constant num. charges
  Epsilon function type                           ...         CPCM
Solvent:                                          ... WATER
SMD-CDS solvent descriptors:
  Soln                                            ...       1.3328
  Soln25                                          ...       1.3323
  Sola                                            ...       0.0000
  Solb                                            ...       0.0000
  Solg                                            ...       0.0000
  Solc                                            ...       0.0000
  Solh                                            ...       0.0000
Radii:
  Scheme                                          ... Element-dependent radii
  Radius for C  used is    3.4960 Bohr (=   1.8500 Ang.)
  Radius for N  used is    3.5716 Bohr (=   1.8900 Ang.)
  Radius for H  used is    2.2677 Bohr (=   1.2000 Ang.)
Calculating surface                               ...        done! (  0.0s)
Cavity surface points                             ...          700
Cavity Volume                                     ...    1164.8688
Cavity Surface-area                               ...     657.5137
Calculating surface distance matrix               ...        done! (  0.0s)
Performing Cholesky decomposition & store         ...        done! (  0.0s)
Overall time for CPCM initialization              ...                 0.1s

----------------------------------------D-I-I-S--------------------------------------------
Iteration    Energy (Eh)           Delta-E    RMSDP     MaxDP     DIISErr   Damp  Time(sec)
-------------------------------------------------------------------------------------------
               ***  Starting incremental Fock matrix formation  ***
    1    -495.0466390760790318     0.00e+00  6.41e-04  3.93e-02  1.14e-01  0.850  11.7
Warning: op=0 Small HOMO/LUMO gap (   0.011) - skipping pre-diagonalization
         Will do a full diagonalization
    2    -495.1296246691041461    -8.30e-02  6.33e-04  3.96e-02  8.40e-02  0.850  12.8
                               ***Turning on AO-DIIS***
    3    -495.1853598145136175    -5.57e-02  4.25e-04  1.98e-02  5.48e-02  0.850  13.4
    4    -495.2211050007582571    -3.57e-02  3.51e-04  1.92e-02  4.39e-02  0.850  12.5
    5    -495.2468147414384703    -2.57e-02  2.96e-04  1.69e-02  3.76e-02  0.850  11.0
    6    -495.2670057563283308    -2.02e-02  2.50e-04  1.42e-02  3.23e-02  0.850  11.0
    7    -495.2835683086663039    -1.66e-02  2.12e-04  1.18e-02  2.73e-02  0.850  12.7
    8    -495.2973068746724721    -1.37e-02  1.20e-03  7.22e-02  2.25e-02  0.000  12.3
    9    -495.3673003500326786    -7.00e-02  8.61e-05  8.96e-03  2.63e-03  0.000  11.4
   10    -495.3674120296601586    -1.12e-04  2.56e-05  1.47e-03  1.15e-03  0.000  11.7
                              *** Initializing SOSCF ***
---------------------------------------S-O-S-C-F--------------------------------------
Iteration    Energy (Eh)           Delta-E    RMSDP     MaxDP     MaxGrad    Time(sec)
--------------------------------------------------------------------------------------
   11    -495.3674451120115236    -3.31e-05  1.92e-05  1.03e-03  3.73e-04    12.2
               *** Restarting incremental Fock matrix formation ***
   12    -495.3674565812394803    -1.15e-05  1.40e-05  7.48e-04  4.06e-04    11.1
   13    -495.3674660231391726    -9.44e-06  3.80e-05  2.49e-03  3.22e-04     9.7
   14    -495.3674708945915199    -4.87e-06  1.76e-05  1.16e-03  3.74e-04    11.1
   15    -495.3674750829508184    -4.19e-06  6.47e-06  3.94e-04  8.81e-05     9.5
   16    -495.3674753011981693    -2.18e-07  1.65e-06  9.89e-05  6.59e-05     9.4
   17    -495.3674755238790794    -2.23e-07  1.79e-06  2.11e-04  3.34e-05     9.3
   18    -495.3674755541459263    -3.03e-08  9.73e-07  1.09e-04  2.29e-05     9.5
   19    -495.3674755986399987    -4.45e-08  1.36e-06  1.46e-04  8.69e-06     8.9
   20    -495.3674755912742285     7.37e-09  7.75e-07  1.41e-04  4.93e-06     9.4
                 **** Energy Check signals convergence ****

               *****************************************************
               *                     SUCCESS                       *
               *           SCF CONVERGED AFTER  20 CYCLES          *
               *****************************************************


SMD CDS free energy correction energy :                 1.69101     Kcal/mol
Total Energy after SMD CDS correction =              -495.364780795 Eh
             **** ENERGY FILE WAS UPDATED (cs_rporg_w01_red_solv_03.en.tmp) ****

----------------
TOTAL SCF ENERGY
----------------

Total Energy       :       -495.36478079533055 Eh          -13479.56097 eV

Components:
Nuclear Repulsion  :        606.40582182114588 Eh           16501.14131 eV
Electronic Energy  :      -1101.67393300047706 Eh          -29978.07177 eV
One Electron Energy:      -1886.04212984847754 Eh          -51321.81550 eV
Two Electron Energy:        784.36819684800037 Eh           21343.74373 eV
CPCM Dielectric    :         -0.09936441194312 Eh              -2.70384 eV
SMD CDS (Gcds)     :          0.00269479594366 Eh               0.07333 eV

Virial components:
Potential Energy   :       -987.95750551966603 Eh          -26883.69047 eV
Kinetic Energy     :        492.59272472433543 Eh           13404.12949 eV
Virial Ratio       :          2.00562748073989

DFT components:
N(Alpha)           :       42.000012684100 electrons
N(Beta)            :       41.000002271138 electrons
N(Total)           :       83.000014955238 electrons
E(X)               :      -68.363612440945 Eh       
E(C)               :       -2.704582315029 Eh       
E(XC)              :      -71.068194755974 Eh       

CPCM Solvation Model Properties:
Surface-charge          :          0.94030885400934
Corrected charge        :          1.00000000000000
Outlying charge corr.   :          0.00024660157714 Eh               0.00671 eV
Free-energy (cav+disp)  :          0.00269479594366 Eh               0.07333 eV

---------------
SCF CONVERGENCE
---------------

  Last Energy change         ...   -7.3658e-09  Tolerance :   1.0000e-08
  Last MAX-Density change    ...    1.4078e-04  Tolerance :   1.0000e-07
  Last RMS-Density change    ...    7.7462e-07  Tolerance :   5.0000e-09
  Last DIIS Error            ...    3.7345e-04  Tolerance :   5.0000e-07
  Last Orbital Gradient      ...    4.9322e-06  Tolerance :   1.0000e-05
  Last Orbital Rotation      ...    8.9934e-05  Tolerance :   1.0000e-05


----------------------
UHF SPIN CONTAMINATION
----------------------

Warning: in a DFT calculation there is little theoretical justification to 
         calculate <S**2> as in Hartree-Fock theory. We will do it anyways
         but you should keep in mind that the values have only limited relevance

Expectation value of <S**2>     :     0.761652
Ideal value S*(S+1) for S=0.5   :     0.750000
Deviation                       :     0.011652

----------------
ORBITAL ENERGIES
----------------
                 SPIN UP ORBITALS
  NO   OCC          E(Eh)            E(eV) 
   0   1.0000     -14.129252      -384.4765 
   1   1.0000     -14.129217      -384.4755 
   2   1.0000     -10.048621      -273.4369 
   3   1.0000     -10.048599      -273.4363 
   4   1.0000     -10.044833      -273.3338 
   5   1.0000     -10.044516      -273.3252 
   6   1.0000     -10.028882      -272.8998 
   7   1.0000     -10.028861      -272.8992 
   8   1.0000     -10.021812      -272.7074 
   9   1.0000     -10.021794      -272.7069 
  10   1.0000     -10.013859      -272.4910 
  11   1.0000     -10.013839      -272.4904 
  12   1.0000      -0.890721       -24.2378 
  13   1.0000      -0.870555       -23.6890 
  14   1.0000      -0.746830       -20.3223 
  15   1.0000      -0.740666       -20.1546 
  16   1.0000      -0.732948       -19.9445 
  17   1.0000      -0.678221       -18.4553 
  18   1.0000      -0.603339       -16.4177 
  19   1.0000      -0.578913       -15.7530 
  20   1.0000      -0.550871       -14.9900 
  21   1.0000      -0.541338       -14.7306 
  22   1.0000      -0.477535       -12.9944 
  23   1.0000      -0.441059       -12.0018 
  24   1.0000      -0.436617       -11.8810 
  25   1.0000      -0.426862       -11.6155 
  26   1.0000      -0.399065       -10.8591 
  27   1.0000      -0.381981       -10.3942 
  28   1.0000      -0.375571       -10.2198 
  29   1.0000      -0.370446       -10.0804 
  30   1.0000      -0.344684        -9.3793 
  31   1.0000      -0.343505        -9.3473 
  32   1.0000      -0.343330        -9.3425 
  33   1.0000      -0.310358        -8.4453 
  34   1.0000      -0.307740        -8.3740 
  35   1.0000      -0.265133        -7.2146 
  36   1.0000      -0.253380        -6.8948 
  37   1.0000      -0.252316        -6.8659 
  38   1.0000      -0.216003        -5.8777 
  39   1.0000      -0.201791        -5.4910 
  40   1.0000      -0.193460        -5.2643 
  41   1.0000      -0.084019        -2.2863 
  42   0.0000      -0.037904        -1.0314 
  43   0.0000      -0.022338        -0.6078 
  44   0.0000       0.003516         0.0957 
  45   0.0000       0.006131         0.1668 
  46   0.0000       0.016532         0.4499 
  47   0.0000       0.021921         0.5965 
  48   0.0000       0.032314         0.8793 
  49   0.0000       0.036310         0.9880 
  50   0.0000       0.042322         1.1516 
  51   0.0000       0.046465         1.2644 
  52   0.0000       0.050343         1.3699 

                 SPIN DOWN ORBITALS
  NO   OCC          E(Eh)            E(eV) 
   0   1.0000     -14.125852      -384.3840 
   1   1.0000     -14.125817      -384.3830 
   2   1.0000     -10.049845      -273.4702 
   3   1.0000     -10.049823      -273.4696 
   4   1.0000     -10.042238      -273.2632 
   5   1.0000     -10.041924      -273.2547 
   6   1.0000     -10.028692      -272.8946 
   7   1.0000     -10.028673      -272.8941 
   8   1.0000     -10.020790      -272.6796 
   9   1.0000     -10.020773      -272.6791 
  10   1.0000     -10.010164      -272.3904 
  11   1.0000     -10.010145      -272.3899 
  12   1.0000      -0.885522       -24.0963 
  13   1.0000      -0.866184       -23.5701 
  14   1.0000      -0.742497       -20.2044 
  15   1.0000      -0.736073       -20.0296 
  16   1.0000      -0.727205       -19.7882 
  17   1.0000      -0.674062       -18.3422 
  18   1.0000      -0.594978       -16.1902 
  19   1.0000      -0.579032       -15.7563 
  20   1.0000      -0.549410       -14.9502 
  21   1.0000      -0.538102       -14.6425 
  22   1.0000      -0.476527       -12.9669 
  23   1.0000      -0.439571       -11.9613 
  24   1.0000      -0.435119       -11.8402 
  25   1.0000      -0.423339       -11.5196 
  26   1.0000      -0.397739       -10.8230 
  27   1.0000      -0.380297       -10.3484 
  28   1.0000      -0.369340       -10.0502 
  29   1.0000      -0.362408        -9.8616 
  30   1.0000      -0.343593        -9.3496 
  31   1.0000      -0.342135        -9.3100 
  32   1.0000      -0.334350        -9.0981 
  33   1.0000      -0.309215        -8.4142 
  34   1.0000      -0.305744        -8.3197 
  35   1.0000      -0.249580        -6.7914 
  36   1.0000      -0.243772        -6.6334 
  37   1.0000      -0.242163        -6.5896 
  38   1.0000      -0.212644        -5.7863 
  39   1.0000      -0.190056        -5.1717 
  40   1.0000      -0.186199        -5.0667 
  41   0.0000      -0.056623        -1.5408 
  42   0.0000      -0.036387        -0.9901 
  43   0.0000      -0.017651        -0.4803 
  44   0.0000       0.005495         0.1495 
  45   0.0000       0.018951         0.5157 
  46   0.0000       0.023085         0.6282 
  47   0.0000       0.023525         0.6401 
  48   0.0000       0.035373         0.9626 
  49   0.0000       0.037722         1.0265 
  50   0.0000       0.043745         1.1904 
  51   0.0000       0.047771         1.2999 
*Only the first 10 virtual orbitals were printed.

                    ********************************
                    * MULLIKEN POPULATION ANALYSIS *
                    ********************************

--------------------------------------------
MULLIKEN ATOMIC CHARGES AND SPIN POPULATIONS
--------------------------------------------
   0 C :   -0.337853    0.256991
   1 C :    1.494651    0.166121
   2 C :   -0.512254    0.081101
   3 C :   -0.863176   -0.052623
   4 C :   -0.336621    0.257012
   5 C :   -0.803884   -0.085418
   6 N :   -0.699794    0.143651
   7 H :   -0.006416    0.011803
   8 H :    0.457756   -0.010110
   9 H :    0.203941   -0.006555
  10 H :    0.565803   -0.004552
  11 C :    1.497511    0.165473
  12 C :   -0.514804    0.081374
  13 C :   -0.862157   -0.052738
  14 C :   -0.803106   -0.085692
  15 N :   -0.700824    0.143788
  16 H :   -0.006137    0.011483
  17 H :    0.457719   -0.010118
  18 H :    0.204010   -0.006449
  19 H :    0.565634   -0.004544
Sum of atomic charges         :   -1.0000000
Sum of atomic spin populations:    1.0000000

-----------------------------------------------------
MULLIKEN REDUCED ORBITAL CHARGES AND SPIN POPULATIONS
-----------------------------------------------------
CHARGE
  0 C s       :     3.467593  s :     3.467593
      pz      :     0.911748  p :     3.001539
      px      :     1.003102
      py      :     1.086689
      dz2     :    -0.138734  d :    -0.120158
      dxz     :     0.007404
      dyz     :     0.019728
      dx2y2   :    -0.013630
      dxy     :     0.005074
      f0      :     0.008077  f :    -0.011121
      f+1     :    -0.019419
      f-1     :    -0.000705
      f+2     :    -0.000478
      f-2     :    -0.000509
      f+3     :     0.000968
      f-3     :     0.000945

  1 C s       :     3.061401  s :     3.061401
      pz      :     0.086638  p :     1.611395
      px      :     0.594571
      py      :     0.930186
      dz2     :    -0.030493  d :    -0.121985
      dxz     :    -0.076590
      dyz     :     0.011451
      dx2y2   :    -0.035844
      dxy     :     0.009491
      f0      :     0.000076  f :    -0.045462
      f+1     :    -0.044416
      f-1     :    -0.001597
      f+2     :     0.001501
      f-2     :    -0.002338
      f+3     :     0.000489
      f-3     :     0.000823

  2 C s       :     3.714807  s :     3.714807
      pz      :     0.653853  p :     2.773650
      px      :     1.092937
      py      :     1.026861
      dz2     :    -0.025277  d :     0.050281
      dxz     :     0.076650
      dyz     :     0.011184
      dx2y2   :    -0.026585
      dxy     :     0.014309
      f0      :    -0.000524  f :    -0.026484
      f+1     :    -0.023356
      f-1     :    -0.001289
      f+2     :    -0.000432
      f-2     :    -0.000665
      f+3     :    -0.000182
      f-3     :    -0.000037

  3 C s       :     3.767060  s :     3.767060
      pz      :     1.204995  p :     3.014717
      px      :     0.872674
      py      :     0.937048
      dz2     :     0.030862  d :     0.102263
      dxz     :     0.026999
      dyz     :     0.013572
      dx2y2   :     0.022316
      dxy     :     0.008514
      f0      :    -0.000819  f :    -0.020864
      f+1     :    -0.019792
      f-1     :    -0.001578
      f+2     :     0.003628
      f-2     :     0.001077
      f+3     :    -0.001776
      f-3     :    -0.001604

  4 C s       :     3.466731  s :     3.466731
      pz      :     0.904440  p :     3.001240
      px      :     1.007071
      py      :     1.089729
      dz2     :    -0.150605  d :    -0.120244
      dxz     :     0.016341
      dyz     :     0.021771
      dx2y2   :    -0.013773
      dxy     :     0.006023
      f0      :     0.007806  f :    -0.011106
      f+1     :    -0.018704
      f-1     :    -0.000720
      f+2     :    -0.000716
      f-2     :    -0.000792
      f+3     :     0.001010
      f-3     :     0.001010

  5 C s       :     4.019010  s :     4.019010
      pz      :     0.811336  p :     2.657577
      px      :     0.962971
      py      :     0.883269
      dz2     :    -0.028546  d :     0.083613
      dxz     :     0.010837
      dyz     :     0.052480
      dx2y2   :     0.028581
      dxy     :     0.020262
      f0      :     0.004101  f :     0.043684
      f+1     :     0.030206
      f-1     :     0.005106
      f+2     :     0.001152
      f-2     :     0.001676
      f+3     :     0.000695
      f-3     :     0.000749

  6 N s       :     4.266292  s :     4.266292
      pz      :     0.860315  p :     3.296174
      px      :     1.206955
      py      :     1.228903
      dz2     :     0.012129  d :     0.137797
      dxz     :     0.068382
      dyz     :     0.035142
      dx2y2   :     0.003769
      dxy     :     0.018375
      f0      :    -0.001280  f :    -0.000468
      f+1     :    -0.002000
      f-1     :     0.000641
      f+2     :     0.000143
      f-2     :     0.000111
      f+3     :     0.000926
      f-3     :     0.000992

  7 H s       :     1.000358  s :     1.000358
      pz      :    -0.061928  p :     0.003863
      px      :     0.033482
      py      :     0.032309
      dz2     :    -0.001645  d :     0.002194
      dxz     :    -0.002557
      dyz     :     0.000549
      dx2y2   :     0.001858
      dxy     :     0.003989

  8 H s       :     0.547719  s :     0.547719
      pz      :     0.006063  p :    -0.014526
      px      :    -0.035282
      py      :     0.014693
      dz2     :     0.001797  d :     0.009052
      dxz     :     0.002129
      dyz     :     0.001250
      dx2y2   :     0.001070
      dxy     :     0.002806

  9 H s       :     0.760732  s :     0.760732
      pz      :    -0.006526  p :     0.026711
      px      :     0.012151
      py      :     0.021086
      dz2     :     0.000628  d :     0.008616
      dxz     :     0.002463
      dyz     :     0.005483
      dx2y2   :     0.000174
      dxy     :    -0.000132

 10 H s       :     0.464471  s :     0.464471
      pz      :    -0.004746  p :    -0.035133
      px      :    -0.038824
      py      :     0.008437
      dz2     :    -0.001318  d :     0.004859
      dxz     :     0.003324
      dyz     :    -0.000198
      dx2y2   :     0.000661
      dxy     :     0.002390

 11 C s       :     3.060711  s :     3.060711
      pz      :     0.101569  p :     1.608737
      px      :     0.587210
      py      :     0.919958
      dz2     :    -0.030248  d :    -0.121565
      dxz     :    -0.081966
      dyz     :     0.014689
      dx2y2   :    -0.032751
      dxy     :     0.008711
      f0      :    -0.002965  f :    -0.045394
      f+1     :    -0.038004
      f-1     :    -0.001220
      f+2     :    -0.000793
      f-2     :    -0.003730
      f+3     :     0.000502
      f-3     :     0.000815

 12 C s       :     3.716177  s :     3.716177
      pz      :     0.633342  p :     2.773957
      px      :     1.107740
      py      :     1.032875
      dz2     :    -0.006392  d :     0.051145
      dxz     :     0.049352
      dyz     :     0.008605
      dx2y2   :    -0.015769
      dxy     :     0.015349
      f0      :    -0.000245  f :    -0.026475
      f+1     :    -0.024155
      f-1     :    -0.001756
      f+2     :     0.000491
      f-2     :    -0.000042
      f+3     :    -0.000391
      f-3     :    -0.000376

 13 C s       :     3.767052  s :     3.767052
      pz      :     1.203287  p :     3.014094
      px      :     0.875575
      py      :     0.935231
      dz2     :     0.014410  d :     0.101799
      dxz     :     0.034148
      dyz     :     0.019358
      dx2y2   :     0.024254
      dxy     :     0.009629
      f0      :    -0.000116  f :    -0.020787
      f+1     :    -0.020031
      f-1     :    -0.001588
      f+2     :     0.002886
      f-2     :     0.000834
      f+3     :    -0.001509
      f-3     :    -0.001263

 14 C s       :     4.019013  s :     4.019013
      pz      :     0.829564  p :     2.656456
      px      :     0.946487
      py      :     0.880405
      dz2     :    -0.037917  d :     0.083990
      dxz     :     0.026082
      dyz     :     0.050698
      dx2y2   :     0.025782
      dxy     :     0.019344
      f0      :     0.006807  f :     0.043647
      f+1     :     0.027970
      f-1     :     0.004967
      f+2     :     0.001232
      f-2     :     0.001441
      f+3     :     0.000634
      f-3     :     0.000595

 15 N s       :     4.267228  s :     4.267228
      pz      :     0.811988  p :     3.296438
      px      :     1.247081
      py      :     1.237369
      dz2     :     0.013220  d :     0.137616
      dxz     :     0.067603
      dyz     :     0.037012
      dx2y2   :     0.002877
      dxy     :     0.016903
      f0      :    -0.000993  f :    -0.000458
      f+1     :    -0.003014
      f-1     :     0.000219
      f+2     :     0.000719
      f-2     :     0.000809
      f+3     :     0.000845
      f-3     :     0.000957

 16 H s       :     1.000260  s :     1.000260
      pz      :    -0.065066  p :     0.003686
      px      :     0.034129
      py      :     0.034623
      dz2     :    -0.002122  d :     0.002190
      dxz     :    -0.002145
      dyz     :     0.001066
      dx2y2   :     0.001740
      dxy     :     0.003651

 17 H s       :     0.547709  s :     0.547709
      pz      :     0.009130  p :    -0.014483
      px      :    -0.037160
      py      :     0.013547
      dz2     :     0.001583  d :     0.009054
      dxz     :     0.002314
      dyz     :     0.000869
      dx2y2   :     0.001240
      dxy     :     0.003048

 18 H s       :     0.760803  s :     0.760803
      pz      :    -0.005820  p :     0.026564
      px      :     0.011444
      py      :     0.020940
      dz2     :     0.000660  d :     0.008623
      dxz     :     0.002467
      dyz     :     0.005570
      dx2y2   :     0.000116
      dxy     :    -0.000191

 19 H s       :     0.464717  s :     0.464717
      pz      :    -0.009008  p :    -0.035207
      px      :    -0.035095
      py      :     0.008896
      dz2     :    -0.001372  d :     0.004856
      dxz     :     0.003224
      dyz     :     0.000022
      dx2y2   :     0.000683
      dxy     :     0.002300


SPIN
  0 C s       :     0.040069  s :     0.040069
      pz      :    -0.002675  p :     0.205014
      px      :     0.014298
      py      :     0.193391
      dz2     :     0.005202  d :     0.012860
      dxz     :     0.001312
      dyz     :     0.002778
      dx2y2   :     0.001768
      dxy     :     0.001801
      f0      :    -0.000052  f :    -0.000952
      f+1     :    -0.000398
      f-1     :     0.000178
      f+2     :     0.000013
      f-2     :     0.000214
      f+3     :    -0.000453
      f-3     :    -0.000455

  1 C s       :    -0.006488  s :    -0.006488
      pz      :     0.024962  p :     0.163093
      px      :     0.017265
      py      :     0.120865
      dz2     :     0.006316  d :     0.014635
      dxz     :    -0.006577
      dyz     :     0.011692
      dx2y2   :     0.001527
      dxy     :     0.001676
      f0      :    -0.000328  f :    -0.005118
      f+1     :    -0.002641
      f-1     :    -0.000448
      f+2     :    -0.000375
      f-2     :    -0.001437
      f+3     :     0.000028
      f-3     :     0.000082

  2 C s       :     0.004428  s :     0.004428
      pz      :     0.016152  p :     0.071074
      px      :    -0.000098
      py      :     0.055020
      dz2     :     0.003237  d :     0.008427
      dxz     :     0.000954
      dyz     :     0.003704
      dx2y2   :    -0.000690
      dxy     :     0.001221
      f0      :    -0.000139  f :    -0.002828
      f+1     :    -0.001222
      f-1     :    -0.000270
      f+2     :    -0.000005
      f-2     :    -0.000773
      f+3     :    -0.000201
      f-3     :    -0.000217

  3 C s       :    -0.043844  s :    -0.043844
      pz      :    -0.007415  p :    -0.013429
      px      :    -0.009121
      py      :     0.003106
      dz2     :    -0.000509  d :     0.005339
      dxz     :    -0.001898
      dyz     :     0.003814
      dx2y2   :     0.000218
      dxy     :     0.003713
      f0      :     0.000210  f :    -0.000689
      f+1     :    -0.000567
      f-1     :    -0.000134
      f+2     :     0.000143
      f-2     :    -0.000170
      f+3     :    -0.000090
      f-3     :    -0.000081

  4 C s       :     0.040087  s :     0.040087
      pz      :    -0.002486  p :     0.204961
      px      :     0.013685
      py      :     0.193762
      dz2     :     0.005057  d :     0.012912
      dxz     :     0.001663
      dyz     :     0.002524
      dx2y2   :     0.001808
      dxy     :     0.001860
      f0      :    -0.000062  f :    -0.000949
      f+1     :    -0.000364
      f-1     :     0.000174
      f+2     :    -0.000022
      f-2     :     0.000171
      f+3     :    -0.000425
      f-3     :    -0.000420

  5 C s       :    -0.018898  s :    -0.018898
      pz      :    -0.013596  p :    -0.087699
      px      :    -0.012519
      py      :    -0.061583
      dz2     :     0.004007  d :     0.018147
      dxz     :     0.000110
      dyz     :     0.007341
      dx2y2   :     0.002397
      dxy     :     0.004292
      f0      :     0.000637  f :     0.003031
      f+1     :     0.001289
      f-1     :     0.000756
      f+2     :     0.000207
      f-2     :     0.000133
      f+3     :     0.000008
      f-3     :     0.000000

  6 N s       :     0.008900  s :     0.008900
      pz      :     0.010587  p :     0.129527
      px      :     0.004698
      py      :     0.114242
      dz2     :    -0.000062  d :     0.005567
      dxz     :    -0.000295
      dyz     :     0.001140
      dx2y2   :     0.001312
      dxy     :     0.003472
      f0      :    -0.000019  f :    -0.000342
      f+1     :    -0.000205
      f-1     :    -0.000162
      f+2     :    -0.000002
      f-2     :    -0.000028
      f+3     :     0.000036
      f-3     :     0.000037

  7 H s       :     0.010236  s :     0.010236
      pz      :     0.000034  p :     0.002229
      px      :     0.001658
      py      :     0.000537
      dz2     :    -0.000126  d :    -0.000662
      dxz     :    -0.000201
      dyz     :    -0.000198
      dx2y2   :     0.000010
      dxy     :    -0.000147

  8 H s       :    -0.006252  s :    -0.006252
      pz      :     0.000474  p :    -0.003312
      px      :    -0.001780
      py      :    -0.002006
      dz2     :    -0.000156  d :    -0.000545
      dxz     :     0.000000
      dyz     :    -0.000172
      dx2y2   :    -0.000022
      dxy     :    -0.000196

  9 H s       :    -0.005943  s :    -0.005943
      pz      :     0.000889  p :    -0.000705
      px      :    -0.001659
      py      :     0.000066
      dz2     :     0.000089  d :     0.000093
      dxz     :    -0.000301
      dyz     :     0.000229
      dx2y2   :     0.000039
      dxy     :     0.000036

 10 H s       :    -0.003193  s :    -0.003193
      pz      :     0.000455  p :    -0.000530
      px      :     0.000544
      py      :    -0.001530
      dz2     :    -0.000029  d :    -0.000828
      dxz     :    -0.000094
      dyz     :    -0.000389
      dx2y2   :    -0.000081
      dxy     :    -0.000234

 11 C s       :    -0.006998  s :    -0.006998
      pz      :     0.026408  p :     0.162734
      px      :     0.016339
      py      :     0.119987
      dz2     :     0.007156  d :     0.014857
      dxz     :    -0.007437
      dyz     :     0.012910
      dx2y2   :     0.001083
      dxy     :     0.001146
      f0      :    -0.000082  f :    -0.005121
      f+1     :    -0.002995
      f-1     :    -0.000467
      f+2     :    -0.000298
      f-2     :    -0.001406
      f+3     :     0.000048
      f-3     :     0.000079

 12 C s       :     0.004354  s :     0.004354
      pz      :     0.018277  p :     0.071244
      px      :    -0.001595
      py      :     0.054563
      dz2     :     0.003517  d :     0.008606
      dxz     :     0.000855
      dyz     :     0.003688
      dx2y2   :    -0.000755
      dxy     :     0.001302
      f0      :     0.000084  f :    -0.002830
      f+1     :    -0.001469
      f-1     :    -0.000398
      f+2     :     0.000020
      f-2     :    -0.000611
      f+3     :    -0.000239
      f-3     :    -0.000217

 13 C s       :    -0.043902  s :    -0.043902
      pz      :    -0.007872  p :    -0.013436
      px      :    -0.008202
      py      :     0.002638
      dz2     :    -0.000154  d :     0.005291
      dxz     :    -0.002596
      dyz     :     0.004479
      dx2y2   :     0.000285
      dxy     :     0.003277
      f0      :     0.000164  f :    -0.000691
      f+1     :    -0.000508
      f-1     :    -0.000009
      f+2     :     0.000073
      f-2     :    -0.000276
      f+3     :    -0.000065
      f-3     :    -0.000070

 14 C s       :    -0.018879  s :    -0.018879
      pz      :    -0.012601  p :    -0.087859
      px      :    -0.013610
      py      :    -0.061649
      dz2     :     0.002929  d :     0.018016
      dxz     :     0.001350
      dyz     :     0.006873
      dx2y2   :     0.002401
      dxy     :     0.004463
      f0      :     0.000848  f :     0.003030
      f+1     :     0.001070
      f-1     :     0.000625
      f+2     :     0.000246
      f-2     :     0.000171
      f+3     :     0.000039
      f-3     :     0.000029

 15 N s       :     0.009076  s :     0.009076
      pz      :     0.010596  p :     0.129515
      px      :     0.005035
      py      :     0.113884
      dz2     :    -0.000427  d :     0.005548
      dxz     :    -0.000023
      dyz     :     0.001635
      dx2y2   :     0.001119
      dxy     :     0.003245
      f0      :    -0.000056  f :    -0.000350
      f+1     :    -0.000209
      f-1     :    -0.000155
      f+2     :     0.000013
      f-2     :    -0.000007
      f+3     :     0.000030
      f-3     :     0.000033

 16 H s       :     0.009958  s :     0.009958
      pz      :     0.000718  p :     0.002182
      px      :     0.000916
      py      :     0.000548
      dz2     :    -0.000148  d :    -0.000657
      dxz     :    -0.000171
      dyz     :    -0.000173
      dx2y2   :    -0.000011
      dxy     :    -0.000155

 17 H s       :    -0.006254  s :    -0.006254
      pz      :     0.000374  p :    -0.003320
      px      :    -0.001737
      py      :    -0.001957
      dz2     :    -0.000126  d :    -0.000544
      dxz     :    -0.000036
      dyz     :    -0.000186
      dx2y2   :    -0.000017
      dxy     :    -0.000179

 18 H s       :    -0.005849  s :    -0.005849
      pz      :     0.000858  p :    -0.000688
      px      :    -0.001642
      py      :     0.000096
      dz2     :     0.000101  d :     0.000088
      dxz     :    -0.000320
      dyz     :     0.000225
      dx2y2   :     0.000043
      dxy     :     0.000039

 19 H s       :    -0.003201  s :    -0.003201
      pz      :     0.000619  p :    -0.000515
      px      :     0.000411
      py      :    -0.001545
      dz2     :    -0.000027  d :    -0.000829
      dxz     :    -0.000102
      dyz     :    -0.000398
      dx2y2   :    -0.000078
      dxy     :    -0.000223



                     *******************************
                     * LOEWDIN POPULATION ANALYSIS *
                     *******************************

-------------------------------------------
LOEWDIN ATOMIC CHARGES AND SPIN POPULATIONS
-------------------------------------------
   0 C :    0.148779    0.111501
   1 C :   -0.363437    0.121556
   2 C :    0.165452    0.060288
   3 C :    0.133183    0.050354
   4 C :    0.148735    0.111507
   5 C :   -0.085844    0.017814
   6 N :    0.304461    0.101408
   7 H :   -0.213122    0.009369
   8 H :   -0.181270    0.004300
   9 H :   -0.205234    0.028265
  10 H :   -0.202976   -0.004837
  11 C :   -0.363374    0.121547
  12 C :    0.165432    0.060283
  13 C :    0.133237    0.050314
  14 C :   -0.085907    0.017825
  15 N :    0.304532    0.101402
  16 H :   -0.213168    0.009378
  17 H :   -0.181225    0.004290
  18 H :   -0.205237    0.028268
  19 H :   -0.203016   -0.004833

----------------------------------------------------
LOEWDIN REDUCED ORBITAL CHARGES AND SPIN POPULATIONS
----------------------------------------------------
CHARGE
  0 C s       :     2.503328  s :     2.503328
      pz      :     0.833140  p :     2.350933
      px      :     0.835852
      py      :     0.681940
      dz2     :     0.199901  d :     0.675701
      dxz     :     0.163307
      dyz     :     0.058796
      dx2y2   :     0.137960
      dxy     :     0.115737
      f0      :     0.030615  f :     0.321260
      f+1     :     0.109445
      f-1     :     0.011988
      f+2     :     0.047761
      f-2     :     0.053969
      f+3     :     0.034014
      f-3     :     0.033468

  1 C s       :     2.469677  s :     2.469677
      pz      :     0.826359  p :     2.283703
      px      :     0.802084
      py      :     0.655260
      dz2     :     0.269568  d :     1.041609
      dxz     :     0.286319
      dyz     :     0.175856
      dx2y2   :     0.164348
      dxy     :     0.145519
      f0      :     0.069705  f :     0.568448
      f+1     :     0.205974
      f-1     :     0.057730
      f+2     :     0.066784
      f-2     :     0.068973
      f+3     :     0.049863
      f-3     :     0.049419

  2 C s       :     2.483199  s :     2.483199
      pz      :     0.851429  p :     2.296504
      px      :     0.806863
      py      :     0.638212
      dz2     :     0.203915  d :     0.719795
      dxz     :     0.238603
      dyz     :     0.132525
      dx2y2   :     0.079019
      dxy     :     0.065733
      f0      :     0.059194  f :     0.335050
      f+1     :     0.121116
      f-1     :     0.043572
      f+2     :     0.033640
      f-2     :     0.034452
      f+3     :     0.021499
      f-3     :     0.021579

  3 C s       :     2.498580  s :     2.498580
      pz      :     0.854359  p :     2.298050
      px      :     0.821682
      py      :     0.622009
      dz2     :     0.165755  d :     0.731558
      dxz     :     0.270965
      dyz     :     0.121240
      dx2y2   :     0.089307
      dxy     :     0.084292
      f0      :     0.053168  f :     0.338629
      f+1     :     0.122719
      f-1     :     0.049410
      f+2     :     0.032296
      f-2     :     0.022897
      f+3     :     0.029218
      f-3     :     0.028921

  4 C s       :     2.503328  s :     2.503328
      pz      :     0.833551  p :     2.350941
      px      :     0.835919
      py      :     0.681471
      dz2     :     0.194659  d :     0.675728
      dxz     :     0.170524
      dyz     :     0.058357
      dx2y2   :     0.137223
      dxy     :     0.114966
      f0      :     0.035450  f :     0.321267
      f+1     :     0.103400
      f-1     :     0.012363
      f+2     :     0.049188
      f-2     :     0.053479
      f+3     :     0.034462
      f-3     :     0.032926

  5 C s       :     2.501289  s :     2.501289
      pz      :     0.850436  p :     2.282226
      px      :     0.822413
      py      :     0.609377
      dz2     :     0.254328  d :     0.892361
      dxz     :     0.301323
      dyz     :     0.184312
      dx2y2   :     0.083642
      dxy     :     0.068756
      f0      :     0.090577  f :     0.409968
      f+1     :     0.146290
      f-1     :     0.062869
      f+2     :     0.033830
      f-2     :     0.034465
      f+3     :     0.020963
      f-3     :     0.020974

  6 N s       :     2.781072  s :     2.781072
      pz      :     1.089707  p :     3.088779
      px      :     1.104696
      py      :     0.894376
      dz2     :     0.173447  d :     0.601618
      dxz     :     0.194346
      dyz     :     0.103838
      dx2y2   :     0.064970
      dxy     :     0.065017
      f0      :     0.037562  f :     0.224070
      f+1     :     0.081970
      f-1     :     0.034991
      f+2     :     0.018142
      f-2     :     0.016438
      f+3     :     0.017531
      f-3     :     0.017436

  7 H s       :     0.639397  s :     0.639397
      pz      :     0.116663  p :     0.333555
      px      :     0.126170
      py      :     0.090721
      dz2     :     0.061850  d :     0.240170
      dxz     :     0.059675
      dyz     :     0.021658
      dx2y2   :     0.048169
      dxy     :     0.048817

  8 H s       :     0.667577  s :     0.667577
      pz      :     0.096337  p :     0.301542
      px      :     0.119582
      py      :     0.085622
      dz2     :     0.054513  d :     0.212151
      dxz     :     0.048451
      dyz     :     0.025718
      dx2y2   :     0.042743
      dxy     :     0.040726

  9 H s       :     0.676324  s :     0.676324
      pz      :     0.139174  p :     0.316619
      px      :     0.077080
      py      :     0.100365
      dz2     :     0.062404  d :     0.212291
      dxz     :     0.075505
      dyz     :     0.065139
      dx2y2   :     0.005322
      dxy     :     0.003920

 10 H s       :     0.681166  s :     0.681166
      pz      :     0.092889  p :     0.303769
      px      :     0.128455
      py      :     0.082426
      dz2     :     0.041995  d :     0.218041
      dxz     :     0.058745
      dyz     :     0.019103
      dx2y2   :     0.048949
      dxy     :     0.049250

 11 C s       :     2.469683  s :     2.469683
      pz      :     0.823150  p :     2.283682
      px      :     0.804312
      py      :     0.656220
      dz2     :     0.271685  d :     1.041587
      dxz     :     0.285147
      dyz     :     0.177847
      dx2y2   :     0.162702
      dxy     :     0.144206
      f0      :     0.070880  f :     0.568422
      f+1     :     0.204827
      f-1     :     0.057065
      f+2     :     0.068833
      f-2     :     0.071335
      f+3     :     0.047775
      f-3     :     0.047707

 12 C s       :     2.483204  s :     2.483204
      pz      :     0.850254  p :     2.296566
      px      :     0.807136
      py      :     0.639176
      dz2     :     0.191832  d :     0.719771
      dxz     :     0.249227
      dyz     :     0.127761
      dx2y2   :     0.081081
      dxy     :     0.069871
      f0      :     0.056081  f :     0.335028
      f+1     :     0.121044
      f-1     :     0.046544
      f+2     :     0.032462
      f-2     :     0.030234
      f+3     :     0.024683
      f-3     :     0.023981

 13 C s       :     2.498580  s :     2.498580
      pz      :     0.856150  p :     2.297978
      px      :     0.819475
      py      :     0.622354
      dz2     :     0.180418  d :     0.731559
      dxz     :     0.258307
      dyz     :     0.129084
      dx2y2   :     0.085088
      dxy     :     0.078661
      f0      :     0.052713  f :     0.338646
      f+1     :     0.127866
      f-1     :     0.047068
      f+2     :     0.031616
      f-2     :     0.026586
      f+3     :     0.026063
      f-3     :     0.026733

 14 C s       :     2.501279  s :     2.501279
      pz      :     0.845894  p :     2.282247
      px      :     0.825770
      py      :     0.610583
      dz2     :     0.230291  d :     0.892406
      dxz     :     0.324272
      dyz     :     0.178564
      dx2y2   :     0.085750
      dxy     :     0.073529
      f0      :     0.081811  f :     0.409974
      f+1     :     0.152997
      f-1     :     0.067593
      f+2     :     0.030986
      f-2     :     0.029024
      f+3     :     0.024110
      f-3     :     0.023455

 15 N s       :     2.781074  s :     2.781074
      pz      :     1.077707  p :     3.088723
      px      :     1.114344
      py      :     0.896672
      dz2     :     0.182786  d :     0.601598
      dxz     :     0.192326
      dyz     :     0.109835
      dx2y2   :     0.058375
      dxy     :     0.058277
      f0      :     0.037470  f :     0.224073
      f+1     :     0.085171
      f-1     :     0.033450
      f+2     :     0.018528
      f-2     :     0.019119
      f+3     :     0.014953
      f-3     :     0.015382

 16 H s       :     0.639395  s :     0.639395
[...]
      f+2     :     0.000933
      f-2     :     0.002609
      f+3     :     0.001058
      f-3     :     0.001101

  7 H s       :    -0.001121  s :    -0.001121
      pz      :     0.000061  p :     0.006903
      px      :     0.000547
      py      :     0.006295
      dz2     :    -0.000187  d :     0.003588
      dxz     :     0.000289
      dyz     :     0.002679
      dx2y2   :     0.000215
      dxy     :     0.000591

  8 H s       :    -0.000377  s :    -0.000377
      pz      :     0.000016  p :     0.002169
      px      :    -0.000011
      py      :     0.002164
      dz2     :    -0.000191  d :     0.002507
      dxz     :     0.000241
      dyz     :     0.003349
      dx2y2   :    -0.000204
      dxy     :    -0.000688

  9 H s       :    -0.003843  s :    -0.003843
      pz      :     0.001353  p :     0.021616
      px      :     0.001245
      py      :     0.019018
      dz2     :     0.000407  d :     0.010491
      dxz     :     0.000799
      dyz     :     0.009358
      dx2y2   :     0.000033
      dxy     :    -0.000106

 10 H s       :     0.000875  s :     0.000875
      pz      :    -0.000385  p :    -0.005021
      px      :    -0.000655
      py      :    -0.003981
      dz2     :    -0.000211  d :    -0.000691
      dxz     :    -0.000057
      dyz     :     0.001782
      dx2y2   :    -0.000563
      dxy     :    -0.001641

 11 C s       :     0.002183  s :     0.002183
      pz      :    -0.001674  p :     0.070826
      px      :     0.004410
      py      :     0.068090
      dz2     :    -0.000410  d :     0.031946
      dxz     :     0.001731
      dyz     :     0.026890
      dx2y2   :     0.001119
      dxy     :     0.002617
      f0      :     0.000126  f :     0.016591
      f+1     :     0.000032
      f-1     :     0.002456
      f+2     :     0.000608
      f-2     :     0.001399
      f+3     :     0.005660
      f-3     :     0.006310

 12 C s       :     0.000907  s :     0.000907
      pz      :    -0.000318  p :     0.029705
      px      :     0.001537
      py      :     0.028486
      dz2     :    -0.000387  d :     0.025828
      dxz     :     0.000977
      dyz     :     0.010647
      dx2y2   :     0.003588
      dxy     :     0.011004
      f0      :    -0.000069  f :     0.003842
      f+1     :    -0.000444
      f-1     :    -0.001507
      f+2     :     0.001123
      f-2     :     0.003050
      f+3     :     0.000859
      f-3     :     0.000830

 13 C s       :    -0.000091  s :    -0.000091
      pz      :    -0.001309  p :     0.005503
      px      :    -0.000471
      py      :     0.007282
      dz2     :     0.000181  d :     0.035738
      dxz     :     0.001415
      dyz     :     0.015454
      dx2y2   :     0.004361
      dxy     :     0.014327
      f0      :     0.000069  f :     0.009163
      f+1     :     0.000157
      f-1     :     0.000721
      f+2     :     0.000992
      f-2     :     0.002944
      f+3     :     0.001959
      f-3     :     0.002321

 14 C s       :    -0.001767  s :    -0.001767
      pz      :    -0.002412  p :    -0.033070
      px      :    -0.003548
      py      :    -0.027111
      dz2     :     0.000412  d :     0.041952
      dxz     :     0.002434
      dyz     :     0.027335
      dx2y2   :     0.003373
      dxy     :     0.008399
      f0      :     0.000391  f :     0.010710
      f+1     :     0.000446
      f-1     :     0.003574
      f+2     :     0.001083
      f-2     :     0.002917
      f+3     :     0.001159
      f-3     :     0.001140

 15 N s       :     0.002757  s :     0.002757
      pz      :     0.001797  p :     0.083739
      px      :     0.005402
      py      :     0.076541
      dz2     :    -0.000628  d :     0.011789
      dxz     :    -0.000254
      dyz     :    -0.000751
      dx2y2   :     0.003162
      dxy     :     0.010260
      f0      :    -0.000098  f :     0.003116
      f+1     :    -0.000498
      f-1     :    -0.001633
      f+2     :     0.000840
      f-2     :     0.002870
      f+3     :     0.000728
      f-3     :     0.000908

 16 H s       :    -0.001123  s :    -0.001123
      pz      :     0.000107  p :     0.006911
      px      :     0.000513
      py      :     0.006291
      dz2     :    -0.000209  d :     0.003590
      dxz     :     0.000322
      dyz     :     0.002918
      dx2y2   :     0.000125
      dxy     :     0.000433

 17 H s       :    -0.000376  s :    -0.000376
      pz      :    -0.000019  p :     0.002162
      px      :     0.000017
      py      :     0.002164
      dz2     :    -0.000179  d :     0.002503
      dxz     :     0.000246
      dyz     :     0.003229
      dx2y2   :    -0.000174
      dxy     :    -0.000618

 18 H s       :    -0.003841  s :    -0.003841
      pz      :     0.001358  p :     0.021618
      px      :     0.001287
      py      :     0.018973
      dz2     :     0.000418  d :     0.010491
      dxz     :     0.000818
      dyz     :     0.009286
      dx2y2   :     0.000048
      dxy     :    -0.000078

 19 H s       :     0.000875  s :     0.000875
      pz      :    -0.000403  p :    -0.005019
      px      :    -0.000646
      py      :    -0.003971
      dz2     :    -0.000218  d :    -0.000689
      dxz     :    -0.000042
      dyz     :     0.001504
      dx2y2   :    -0.000466
      dxy     :    -0.001468



                      *****************************
                      * MAYER POPULATION ANALYSIS *
                      *****************************

  NA   - Mulliken gross atomic population
  ZA   - Total nuclear charge
  QA   - Mulliken gross atomic charge
  VA   - Mayer's total valence
  BVA  - Mayer's bonded valence
  FA   - Mayer's free valence

  ATOM       NA         ZA         QA         VA         BVA        FA
  0 C      6.3379     6.0000    -0.3379     2.4844     2.4365     0.0479
  1 C      4.5053     6.0000     1.4947     0.4248     0.3980     0.0268
  2 C      6.5123     6.0000    -0.5123     2.8204     2.8113     0.0091
  3 C      6.8632     6.0000    -0.8632     2.8664     2.8603     0.0061
  4 C      6.3366     6.0000    -0.3366     2.4838     2.4359     0.0479
  5 C      6.8039     6.0000    -0.8039     2.6664     2.6614     0.0050
  6 N      7.6998     7.0000    -0.6998     1.4209     1.4030     0.0180
  7 H      1.0064     1.0000    -0.0064     0.9460     0.9457     0.0003
  8 H      0.5422     1.0000     0.4578     0.5414     0.5413     0.0001
  9 H      0.7961     1.0000     0.2039     0.9851     0.9850     0.0001
 10 H      0.4342     1.0000     0.5658     0.3673     0.3673    -0.0000
 11 C      4.5025     6.0000     1.4975     0.4182     0.3914     0.0268
 12 C      6.5148     6.0000    -0.5148     2.8211     2.8120     0.0091
 13 C      6.8622     6.0000    -0.8622     2.8654     2.8592     0.0061
 14 C      6.8031     6.0000    -0.8031     2.6655     2.6605     0.0050
 15 N      7.7008     7.0000    -0.7008     1.4187     1.4008     0.0180
 16 H      1.0061     1.0000    -0.0061     0.9458     0.9456     0.0002
 17 H      0.5423     1.0000     0.4577     0.5415     0.5415     0.0001
 18 H      0.7960     1.0000     0.2040     0.9848     0.9847     0.0001
 19 H      0.4344     1.0000     0.5656     0.3677     0.3677    -0.0000

  Mayer bond orders larger than 0.100000
B(  0-C , 13-C ) :   0.9954 B(  0-C , 14-C ) :   0.6271 B(  0-C , 15-N ) :  -0.1579 
B(  0-C , 16-H ) :  -0.1125 B(  0-C , 18-H ) :   1.0662 B(  1-C ,  2-C ) :   0.3987 
B(  1-C ,  3-C ) :  -0.2233 B(  1-C ,  5-C ) :  -0.3139 B(  1-C ,  6-N ) :  -0.2971 
B(  1-C ,  7-H ) :  -0.1703 B(  1-C , 10-H ) :   0.1385 B(  1-C , 11-C ) :   0.4318 
B(  1-C , 13-C ) :   0.1234 B(  1-C , 15-N ) :   0.3570 B(  1-C , 16-H ) :  -0.1084 
B(  2-C ,  3-C ) :   1.1614 B(  2-C ,  5-C ) :  -0.2256 B(  2-C ,  7-H ) :   1.5636 
B(  2-C , 10-H ) :   0.1033 B(  2-C , 12-C ) :  -0.1198 B(  2-C , 16-H ) :  -0.1342 
B(  3-C ,  4-C ) :   0.9950 B(  3-C ,  5-C ) :   0.4641 B(  3-C ,  7-H ) :  -0.2919 
B(  3-C ,  8-H ) :   0.6327 B(  3-C ,  9-H ) :  -0.1199 B(  3-C , 11-C ) :   0.1237 
B(  4-C ,  5-C ) :   0.6272 B(  4-C ,  6-N ) :  -0.1575 B(  4-C ,  7-H ) :  -0.1127 
B(  4-C ,  9-H ) :   1.0663 B(  5-C ,  6-N ) :   1.6490 B(  5-C ,  7-H ) :   0.1105 
B(  5-C ,  8-H ) :  -0.1069 B(  5-C , 10-H ) :   0.3536 B(  5-C , 14-C ) :   0.1116 
B(  6-N , 10-H ) :  -0.1119 B(  6-N , 11-C ) :   0.3563 B(  6-N , 15-N ) :  -0.3068 
B(  7-H ,  9-H ) :   0.1258 B(  7-H , 11-C ) :  -0.1094 B(  7-H , 12-C ) :  -0.1344 
B( 11-C , 12-C ) :   0.3976 B( 11-C , 13-C ) :  -0.2235 B( 11-C , 14-C ) :  -0.3136 
B( 11-C , 15-N ) :  -0.2997 B( 11-C , 16-H ) :  -0.1709 B( 11-C , 19-H ) :   0.1382 
B( 12-C , 13-C ) :   1.1605 B( 12-C , 14-C ) :  -0.2255 B( 12-C , 16-H ) :   1.5640 
B( 12-C , 19-H ) :   0.1035 B( 13-C , 14-C ) :   0.4647 B( 13-C , 16-H ) :  -0.2927 
B( 13-C , 17-H ) :   0.6331 B( 13-C , 18-H ) :  -0.1199 B( 14-C , 15-N ) :   1.6487 
B( 14-C , 16-H ) :   0.1098 B( 14-C , 17-H ) :  -0.1067 B( 14-C , 19-H ) :   0.3535 
B( 15-N , 19-H ) :  -0.1113 B( 16-H , 18-H ) :   0.1262 

-------
TIMINGS
-------

Total SCF time: 0 days 0 hours 3 min 46 sec 

Total time                  ....     226.976 sec
Sum of individual times     ....     223.746 sec  ( 98.6%)

SCF preparation             ....       1.559 sec  (  0.7%)
Fock matrix formation       ....     150.682 sec  ( 66.4%)
  Startup                   ....      10.019 sec  (  6.6% of F)
  Split-RI-J                ....      19.633 sec  ( 13.0% of F)
  XC integration            ....      95.873 sec  ( 63.6% of F)
    XC Preparation          ....       0.000 sec  (  0.0% of XC)
    Basis function eval.    ....       3.618 sec  (  3.8% of XC)
    Density eval.           ....      35.124 sec  ( 36.6% of XC)
    XC-Functional eval.     ....       0.604 sec  (  0.6% of XC)
    XC-Potential eval.      ....      46.500 sec  ( 48.5% of XC)
  CPCM terms                ....       7.851 sec  (  5.2% of F)
Diagonalization             ....       0.000 sec  (  0.0%)
Density matrix formation    ....      21.348 sec  (  9.4%)
Total Energy calculation    ....      10.221 sec  (  4.5%)
Population analysis         ....       2.052 sec  (  0.9%)
Orbital Transformation      ....       3.175 sec  (  1.4%)
Orbital Orthonormalization  ....       0.000 sec  (  0.0%)
DIIS solution               ....      23.166 sec  ( 10.2%)
SOSCF solution              ....      11.542 sec  (  5.1%)
Finished LeanSCF after 228.0 sec

Maximum memory used throughout the entire LEANSCF-calculation: 85.4 MB


-------------------------------------------------------------------------------
                          DFT DISPERSION CORRECTION                            
                                                                               
                              DFTD3 V3.1  Rev 1                                
                          USING Becke-Johnson damping                          
-------------------------------------------------------------------------------
The R2SCAN functional is recognized
Active option DFTDOPT                   ...         4   

molecular C6(AA) [au] = 5330.710838 


            DFT-D V3
 parameters
 s6 scaling factor         :     1.0000 
 a1 scaling factor         :     0.4948 
 s8 scaling factor         :     0.7898 
 a2 scaling factor         :     5.7308 
 ad hoc parameters k1-k3   :    16.0000     1.3333    -4.0000 

 Edisp/kcal,au: -4.440016586777  -0.007075616061 
 E6   /kcal   :  -3.462181829 
 E8   /kcal   :  -0.977834758 
 % E8         :  22.023223083 

-------------------------   ----------------
Dispersion correction           -0.007075616
-------------------------   ----------------


-------------------------   --------------------
FINAL SINGLE POINT ENERGY      -495.371856411392
-------------------------   --------------------



           ************************************************************
           *        Program running with 15 parallel MPI-processes    *
           *              working on a common directory               *
           ************************************************************

------------------------------------------------------------------------------
                              ORCA PROPERTY CALCULATIONS
------------------------------------------------------------------------------

GBWName                                 ... cs_rporg_w01_red_solv_03.gbw
Number of atoms                         ...     20
Number of basis functions               ...    808
Max core memory                         ...   3500 MB

Electric properties:
Dipole moment                           ... YES
Quadrupole moment                       ...  NO
Static polarizability (Dipole/Dipole)   ...  NO
Static polarizability (Dipole/Quad.)    ...  NO
Static polarizability (Quad./Quad.)     ...  NO
Static polarizability (Velocity)        ...  NO

Atomic electric properties:
Dipole moment                           ...  NO
Quadrupole moment                       ...  NO
Static polarizability                   ...  NO

Choice of electric origin               ... Center of mass
Position of electric origin             ...    -0.161553    -0.072090    -0.008178

General magnetic properties:
Magnetizability                         ...  NO

EPR properties:
g-Tensor (aka g-matrix)                 ...  NO
Zero-Field splitting spin-orbit         ...  NO
Zero-field splitting spin-spin          ...  NO
Hyperfine couplings                     ...  NO (   0 nuclei)
Quadrupole couplings                    ...  NO (   0 nuclei)
Contact density                         ...  NO (   0 nuclei)

NMR properties:
Chemical shifts                         ...  NO (   0 nuclei)
Spin-rotation constants                 ...  NO (   0 nuclei)
Spin-spin couplings                     ...  NO (   0 nuclei,    0 pairs)

Choice of magnetic origin               ... GIAO
Position of magnetic origin             ...     0.000000     0.000000     0.000000

Properties with geometric perturbations:
SCF Hessian                             ...  NO
IR spectrum                             ...  NO
VCD spectrum                            ...  NO
X-ray spectroscopy properties:
SCF XES/XAS/RIXS spectra                ...  NO


-------------
DIPOLE MOMENT
-------------

Method             : SCF
Type of density    : Electron Density
Multiplicity       :   2
Irrep              :   0
Energy             :  -495.3647807953305460 Eh
Relativity type    : 
Basis              : AO
                                X                 Y                 Z
Electronic contribution:     -1.741919735      -0.448658290      -0.072767300
Nuclear contribution   :      3.614122503       0.929387637       0.150326208
                        -----------------------------------------
Total Dipole Moment    :      1.872202769       0.480729347       0.077558908
                        -----------------------------------------
Magnitude (a.u.)       :      1.934491999
Magnitude (Debye)      :      4.917087895



--------------------
Rotational spectrum 
--------------------
 
Rotational constants in cm-1:             0.097712             0.019197             0.016045 
Rotational constants in MHz :          2929.325358           575.521768           481.017920 

Dipole components along the rotational axes: 
x,y,z [a.u.] :    -0.000473     1.934492     0.000813 
x,y,z [Debye]:    -0.001202     4.917087     0.002066 

 

Dipole moment calculation done in   0.3 sec 

Maximum memory used throughout the entire PROP-calculation: 64.2 MB

--------------------------------
SUGGESTED CITATIONS FOR THIS RUN
--------------------------------

Below you find a list of papers that are relevant to this ORCA run
We neither can nor want to force you to cite these papers, but we appreciate if you do
You receive ORCA, which is the product of decades of hard work by many enthusiastic individuals, for free
The only thing we kindly ask in return is that you cite our papers,
We deeply appreciate it, if you show your appreciation for ORCA by not just citing the generic ORCA reference.

Please note that relegating all ORCA citations to the supporting information does *not* help us.
SI sections are not indexed - citations you put there will not count into any citation statistics
But we need these citations in order to attract the funding resources that allow us to do what we are doing

Therefore, if you are a happy ORCA user, please consider citing a few of the papers listed below in the main body of your paper

In addition to the list printed below, the program has created the file cs_rporg_w01_red_solv_03.bibtex that contains the list in bibtex format
You can import this file easily into all common literature databanks and citation aid programs


List of essential papers. We consider these as the minimum necessary citations

  1. Neese,F.
     Software update: the ORCA program system, version 5.0
     WIRES Comput. Molec. Sci., 2022 12(1)e1606
     doi.org/10.1002/wcms.1606

List of papers to cite with high priority. The work reported in these papers was absolutely
necessary for this run to complete.
Our perspective: the developers of density functionals and basis sets usually get cited in chemistry papers
Good! But without the algorithms to do something with them, the functionals or basis sets would not do anything.
Hence, in our opinion, the algorithm design and method developments papers are equally worthy of getting cited

  1. Neese,F.
     An improvement of the resolution of the identity approximation for the formation of the Coulomb matrix
     J. Comp. Chem., 2003 24(14)1740-1747
     doi.org/10.1002/jcc.10318
  2. Garcia-Rates,M.; Neese,F.
     Effect of the Solute Cavity on the Solvation Energy and its Derivatives within the Framework of the Gaussian Charge Scheme
     J. Comput. Chem., 2020 41 922-939
     doi.org/10.1002/jcc.26139
  3. Neese,F.
     The SHARK Integral Generation and Digestion System
     J. Comp. Chem., 2022  1-16
     doi.org/10.1002/jcc.26942
  4. Lehtola,S.; Steigemann,C.; Oliveira,M.; Marques,M.
     Recent developments in Libxc - A comprehensive library of functionals for density functional theory
     Software X, 2018 7 
     doi.org/10.1016/j.softx.2017.11.002
  5. Grimme,S.; Antony,J.; Ehrlich,S.; Krieg,H.
     A consistent and accurate ab initio parametrization of density functional dispersion correction (DFT-D) for the 94 elements H-Pu
     J. Chem. Phys., 2010 132 154104-XXXX
     doi.org/10.1063/1.3382344
  6. Grimme,S.; Ehrlich,S.; Goerigk,L.
     Effect of the damping function in dispersion corrected density functional theory
     J. Comput. Chem., 2011 32(7)1456-1465
     doi.org/10.1002/jcc.21759

List of suggested additional citations. These are papers that are important in the 'surrounding' of 
of this run, or papers that preceded the highly important papers. If you like your results we are grateful for a citation.

  1. Neese,F.
     The ORCA program system
     WIRES Comput. Molec. Sci., 2012 2(1)73-78
     doi.org/10.1002/wcms.81
  2. Neese,F.
     Software update: the ORCA program system, version 4.0
     WIRES Comput. Molec. Sci., 2018 8(1)1-6
     doi.org/10.1002/wcms.1327
  3. Neese,F.; Wennmohs,F.; Becker,U.; Riplinger,C.
     The ORCA quantum chemistry program package
     J. Chem. Phys., 2020 152 Art. No. L224108
     doi.org/10.1063/5.0004608

List of optional additional citations

  1. Neese,F.
     Approximate second-order SCF convergence for spin unrestricted wavefunctions
     Chem. Phys. Lett., 2000 325(1-3)93-98
     doi.org/10.1016/s0009-2614(00)00662-x

Timings for individual modules:

Sum of individual times          ...      246.244 sec (=   4.104 min)
Startup calculation              ...        7.716 sec (=   0.129 min)   3.1 %
SCF iterations                   ...      236.044 sec (=   3.934 min)  95.9 %
Property calculations            ...        2.484 sec (=   0.041 min)   1.0 %
                             ****ORCA TERMINATED NORMALLY****
TOTAL RUN TIME: 0 days 0 hours 4 minutes 10 seconds 113 msec
