
                                 *****************
                                 * O   R   C   A *
                                 *****************

                                            #,                                       
                                            ###                                      
                                            ####                                     
                                            #####                                    
                                            ######                                   
                                           ########,                                 
                                     ,,################,,,,,                         
                               ,,#################################,,                 
                          ,,##########################################,,             
                       ,#########################################, ''#####,          
                    ,#############################################,,   '####,        
                  ,##################################################,,,,####,       
                ,###########''''           ''''###############################       
              ,#####''   ,,,,##########,,,,          '''####'''          '####       
            ,##' ,,,,###########################,,,                        '##       
           ' ,,###''''                  '''############,,,                           
         ,,##''                                '''############,,,,        ,,,,,,###''
      ,#''                                            '''#######################'''  
     '                                                          ''''####''''         
             ,#######,   #######,   ,#######,      ##                                
            ,#'     '#,  ##    ##  ,#'     '#,    #''#        ,####,   ,####,        
            ##       ##  ##   ,#'  ##            #'  '#       #'       #'  '#        
            ##       ##  #######   ##           ,######,      #####,   #    #        
            '#,     ,#'  ##    ##  '#,     ,#' ,#      #,     #,   #   #,  ,#        
             '#######'   ##     ##  '#######'  #'      '#     '####' # '####'        



                #########################################################
                #                        -***-                          #
                #          Department of theory and spectroscopy        #
                #                                                       #
                #                      Frank Neese                      #
                #                                                       #
                #     Directorship, Architecture, Infrastructure        #
                #                    SHARK, DRIVERS                     #
                #        Core code/Algorithms in most modules           #
                #                                                       #
                #        Max Planck Institute fuer Kohlenforschung      #
                #                Kaiser Wilhelm Platz 1                 #
                #                 D-45470 Muelheim/Ruhr                 #
                #                      Germany                          #
                #                                                       #
                #                  All rights reserved                  #
                #                        -***-                          #
                #########################################################


                         Program Version 6.0.0  -   RELEASE  -


 With contributions from (in alphabetic order):
   Daniel Aravena         : Magnetic Suceptibility
   Michael Atanasov       : Ab Initio Ligand Field Theory (pilot matlab implementation)
   Alexander A. Auer      : GIAO ZORA, VPT2 properties, NMR spectrum
   Ute Becker             : All parallelization in ORCA, NUMFREQ, NUMCALC
   Giovanni Bistoni       : ED, misc. LED, open-shell LED, HFLD
   Martin Brehm           : Molecular dynamics
   Dmytro Bykov           : pre 5.0 version of the SCF Hessian
   Marcos Casanova-Páez   : Triplet and SCS-CIS(D). UHF-(DLPNO)-IP/EA/STEOM-CCSD. UHF-CVS-IP/STEOM-CCSD
   Vijay G. Chilkuri      : MRCI spin determinant printing, contributions to CSF-ICE
   Pauline Colinet        : FMM embedding
   Dipayan Datta          : RHF DLPNO-CCSD density
   Achintya Kumar Dutta   : EOM-CC, STEOM-CC
   Nicolas Foglia         : Exact transition moments, OPA infrastructure, MCD improvements
   Dmitry Ganyushin       : Spin-Orbit,Spin-Spin,Magnetic field MRCI
   Miquel Garcia          : C-PCM and meta-GGA Hessian, CCSD/C-PCM, Gaussian charge scheme
   Tiago L. C. Gouveia    : GS-ROHF, GS-ROCIS
   Yang Guo               : DLPNO-NEVPT2, F12-NEVPT2, CIM, IAO-localization
   Andreas Hansen         : Spin unrestricted coupled pair/coupled cluster methods
   Ingolf Harden          : AUTO-CI MPn and infrastructure 
   Benjamin Helmich-Paris : MC-RPA, TRAH-(SCF,CASSCF), AVAS, COSX integrals, SCF dyn. polar.
   Lee Huntington         : MR-EOM, pCC
   Robert Izsak           : Overlap fitted RIJCOSX, COSX-SCS-MP3, EOM
   Riya Kayal             : Wick's Theorem for AUTO-CI, AUTO-CI UHF-CCSDT
   Emily Kempfer          : AUTO-CI, RHF CISDT and CCSDT
   Christian Kollmar      : KDIIS, OOCD, Brueckner-CCSD(T), CCSD density, CASPT2, CASPT2-K, improved NEVPT2
   Axel Koslowski         : Symmetry handling
   Simone Kossmann        : Meta GGA functionals, TD-DFT gradient, OOMP2, (MP2 Hessian; deprecated post 5.0)
   Lucas Lang             : DCDCAS
   Marvin Lechner         : AUTO-CI (C++ implementation), FIC-MRCC
   Spencer Leger          : CASSCF response
   Dagmar Lenk            : GEPOL surface, SMD, ORCA-2-JSON
   Dimitrios Liakos       : Extrapolation schemes; Compound Job, initial MDCI parallelization
   Dimitrios Manganas     : Further ROCIS development; embedding schemes. LFT, Crystal Embedding
   Dimitrios Pantazis     : SARC Basis sets
   Anastasios Papadopoulos: AUTO-CI, single reference methods and gradients
   Taras Petrenko         : pre 6.0 DFT Hessian and TD-DFT gradient, (ASA, deprecated), ECA, 1-Electron XAS/XES, NRVS
   Peter Pinski           : DLPNO-MP2, DLPNO-MP2 Gradient
   Christoph Reimann      : Effective Core Potentials
   Marius Retegan         : Local ZFS, SOC
   Christoph Riplinger    : Optimizer, TS searches, QM/MM, DLPNO-CCSD(T), (RO)-DLPNO pert. Triples
   Michael Roemelt        : Original ROCIS implementation
   Masaaki Saitow         : Open-shell DLPNO-CCSD energy and density
   Barbara Sandhoefer     : DKH picture change effects
   Kantharuban Sivalingam : CASSCF convergence/infrastructure, NEVPT2 and variants, FIC-MRCI
   Bernardo de Souza      : ESD, SOC TD-DFT
   Georgi Stoychev        : AutoAux, RI-MP2 NMR, DLPNO-MP2 response, X2C
   Van Anh Tran           : RI-MP2 g-tensors
   Willem Van den Heuvel  : Paramagnetic NMR
   Zikuan Wang            : NOTCH, Electric field optimization 
   Frank Wennmohs         : Technical directorship and infrastructure
   Hang Xu                : AUTO-CI-Response properties 


 We gratefully acknowledge several colleagues who have allowed us to
 interface, adapt or use parts of their codes:
   Stefan Grimme, W. Hujo, H. Kruse, P. Pracht,  : VdW corrections, initial TS optimization,
                  C. Bannwarth, S. Ehlert,         DFT functionals, gCP, sTDA/sTD-DF
                  L. Wittmann, M. Mueller
   Ed Valeev, F. Pavosevic, A. Kumar             : LibInt (2-el integral package), F12 methods
   Garnet Chan, S. Sharma, J. Yang, R. Olivares  : DMRG
   Ulf Ekstrom                                   : XCFun DFT Library
   Mihaly Kallay                                 : mrcc  (arbitrary order and MRCC methods)
   Frank Weinhold                                : gennbo (NPA and NBO analysis)
   Simon Mueller                                 : openCOSMO-RS
   Christopher J. Cramer and Donald G. Truhlar   : smd solvation model
   Lars Goerigk                                  : TD-DFT with DH, B97 family of functionals
   V. Asgeirsson, H. Jonsson                     : NEB implementation
   FAccTs GmbH                                   : IRC, NEB, NEB-TS, DLPNO-Multilevel, CI-OPT
                                                   MM, QMMM, 2- and 3-layer-ONIOM, Crystal-QMMM,
                                                   LR-CPCM, SF, NACMEs, symmetry and pop. for TD-DFT,
                                                   nearIR, NL-DFT gradient (VV10), updates on ESD,
                                                   ML-optimized integration grids, MBIS, APM,
                                                   GOAT, DOCKER, SOLVATOR, interface openCOSMO-RS
   S Lehtola, MJT Oliveira, MAL Marques          : LibXC Library
   Liviu Ungur et al                             : ANISO software


 Your calculation uses the libint2 library for the computation of 2-el integrals
 For citations please refer to: http://libint.valeyev.net

 Your ORCA version has been built with support for libXC version: 6.2.2
 For citations please refer to: https://libxc.gitlab.io

 This ORCA versions uses:
   CBLAS   interface :  Fast vector & matrix operations
   LAPACKE interface :  Fast linear algebra routines
   SCALAPACK package :  Parallel linear algebra routines
   Shared memory     :  Shared parallel matrices
   BLAS/LAPACK       :  OpenBLAS 0.3.27  USE64BITINT DYNAMIC_ARCH NO_AFFINITY SkylakeX SINGLE_THREADED
        Core in use  :  SkylakeX
   Copyright (c) 2011-2014, The OpenBLAS Project


NOTE: MaxCore=3000 MB was set to SCF,MP2,MDCI,CIPSI,MRCI and CIS
      => If you want to overwrite this, your respective input block should be placed after the MaxCore statement
Your calculation utilizes the atom-pairwise dispersion correction
with the Becke-Johnson damping scheme (D3BJ)


Your calculation utilizes the SMD solvation module
Please cite in your paper:
A.V. Marenich, C.J. Cramer, D.G. Truhlar J. Phys. Chem. B, 113, (2009), 6378 

Warning: RI is on but no J-basis has been assigned. Assigning Def2/J (nothing to worry about!)
================================================================================

----- Orbital basis set information -----
Your calculation utilizes the basis: aug-cc-pVTZ 
    H, B-Ne : Obtained from the ccRepo (grant-hill.group.shef.ac.uk/ccrepo) Feb. 2017
              R. A. Kendall, T. H. Dunning, Jr., R. J. Harrison, J. Chem. Phys. 96, 6796 (1992)
         He : Obtained from the ccRepo (grant-hill.group.shef.ac.uk/ccrepo) Feb. 2017
              D. E. Woon, T. H. Dunning, Jr., J. Chem. Phys. 100, 2975 (1994)
  Li-Be, Na : Obtained from the ccRepo (grant-hill.group.shef.ac.uk/ccrepo) Feb. 2017
              B. P. Prascher, D. E. Woon, K. A. Peterson, T. H. Dunning, Jr., A. K. Wilson, Theor. Chem. Acc. 128, 69 (2011)
         Mg : Obtained from the Peterson Research Group Website (tyr0.chem.wsu.edu/~kipeters) Feb. 2017
              B. P. Prascher, D. E. Woon, K. A. Peterson, T. H. Dunning, Jr., A. K. Wilson, Theor. Chem. Acc. 128, 69 (2011)
      Al-Ar : Obtained from the ccRepo (grant-hill.group.shef.ac.uk/ccrepo) Feb. 2017
              D. E. Woon, T. H. Dunning, Jr., J. Chem. Phys. 98, 1358 (1993)
      Sc-Zn : Obtained from the ccRepo (grant-hill.group.shef.ac.uk/ccrepo) Feb. 2017
              N. B. Balabanov, K. A. Peterson, J. Chem. Phys. 123, 064107 (2005)
              N. B. Balabanov, K. A. Peterson, J. Chem. Phys. 125, 074110 (2006)
      Ga-Kr : Obtained from the ccRepo (grant-hill.group.shef.ac.uk/ccrepo) Feb. 2017
              A. K. Wilson, D. E. Woon, K. A. Peterson, T. H. Dunning, Jr., J. Chem. Phys. 110, 7667 (1999)
     Ag, Au : Obtained from the Peterson Research Group Website (tyr0.chem.wsu.edu/~kipeters) Feb. 2017
              K. A. Peterson, C. Puzzarini, Theor. Chem. Acc. 114, 283 (2005)

----- AuxJ basis set information -----
Your calculation utilizes the auxiliary basis: def2/J
   F. Weigend, Phys. Chem. Chem. Phys. 8, 1057 (2006).

================================================================================
                                        WARNINGS
                       Please study these warnings very carefully!
================================================================================


================================================================================
                                       INPUT FILE
================================================================================
NAME = cs_rporg_140_red_solv_02.inp
|  1> !B3LYP aug-cc-pVTZ d3 TightSCF SlowConv RIJCOSX defgrid2
|  2>  
|  3> %pal
|  4> nprocs 4
|  5> end
|  6>  
|  7> %scf
|  8> MaxIter 1500
|  9> end
| 10>  
| 11> %maxcore 3000
| 12>  
| 13> !CPCM
| 14> %cpcm smd true
| 15> SMDsolvent "MeCN"
| 16> surfacetype gepol_ses
| 17> rsolv 2.19
| 18> end 
| 19>  
| 20> * xyz 0 1
| 21> C           0.94968287453071     -1.27993729727395      0.00000683726847
| 22> C           2.32072584922403     -1.03066468402730     -0.00000570192654
| 23> C           2.79045486785265      0.28126328538775     -0.00000619644263
| 24> C           1.88129493900205      1.34320110702256      0.00000552102250
| 25> C           0.51414900986878      1.09690334373603      0.00001977591165
| 26> C           0.03124775758730     -0.22186358373352      0.00001975571628
| 27> C          -1.40109719375212     -0.51811607942485      0.00002773818787
| 28> N          -2.27722630544222      0.40983670208196      0.00003187543002
| 29> O          -3.54943597920683     -0.07892856387383      0.00003589961153
| 30> H          -4.10699565150034      0.71269395667835      0.00004041054052
| 31> H          -1.72077053189788     -1.57247842719527      0.00002621709873
| 32> H          -0.20517984986564      1.91961492482438      0.00002936627338
| 33> H           2.24665800678188      2.37456842670514      0.00000344087776
| 34> H           3.86637191838654      0.47947397298735     -0.00001641660649
| 35> H           3.02594458116043     -1.86704493909579     -0.00001599324974
| 36> H           0.58187010727067     -2.31112044479903      0.00000487028669
| 37> *
| 38> 
| 39>                          ****END OF INPUT****
================================================================================

                       ****************************
                       * Single Point Calculation *
                       ****************************

---------------------------------
CARTESIAN COORDINATES (ANGSTROEM)
---------------------------------
  C      0.949683   -1.279937    0.000007
  C      2.320726   -1.030665   -0.000006
  C      2.790455    0.281263   -0.000006
  C      1.881295    1.343201    0.000006
  C      0.514149    1.096903    0.000020
  C      0.031248   -0.221864    0.000020
  C     -1.401097   -0.518116    0.000028
  N     -2.277226    0.409837    0.000032
  O     -3.549436   -0.078929    0.000036
  H     -4.106996    0.712694    0.000040
  H     -1.720771   -1.572478    0.000026
  H     -0.205180    1.919615    0.000029
  H      2.246658    2.374568    0.000003
  H      3.866372    0.479474   -0.000016
  H      3.025945   -1.867045   -0.000016
  H      0.581870   -2.311120    0.000005

----------------------------
CARTESIAN COORDINATES (A.U.)
----------------------------
  NO LB      ZA    FRAG     MASS         X           Y           Z
   0 C     6.0000    0    12.011    1.794641   -2.418731    0.000013
   1 C     6.0000    0    12.011    4.385536   -1.947674   -0.000011
   2 C     6.0000    0    12.011    5.273195    0.531511   -0.000012
   3 C     6.0000    0    12.011    3.555132    2.538282    0.000010
   4 C     6.0000    0    12.011    0.971601    2.072847    0.000037
   5 C     6.0000    0    12.011    0.059050   -0.419261    0.000037
   6 C     6.0000    0    12.011   -2.647690   -0.979097    0.000052
   7 N     7.0000    0    14.007   -4.303334    0.774479    0.000060
   8 O     8.0000    0    15.999   -6.707462   -0.149153    0.000068
   9 H     1.0000    0     1.008   -7.761097    1.346796    0.000076
  10 H     1.0000    0     1.008   -3.251785   -2.971554    0.000050
  11 H     1.0000    0     1.008   -0.387734    3.627546    0.000055
  12 H     1.0000    0     1.008    4.245568    4.487284    0.000007
  13 H     1.0000    0     1.008    7.306384    0.906074   -0.000031
  14 H     1.0000    0     1.008    5.718207   -3.528204   -0.000030
  15 H     1.0000    0     1.008    1.099575   -4.367385    0.000009

--------------------------------
INTERNAL COORDINATES (ANGSTROEM)
--------------------------------
 C      0   0   0     0.000000000000     0.00000000     0.00000000
 C      1   0   0     1.393519168985     0.00000000     0.00000000
 C      2   1   0     1.393484965070   120.00416959     0.00000000
 C      3   2   1     1.397956978374   119.73243572     0.00000000
 C      4   3   2     1.389154627804   120.35536155     0.00000000
 C      1   2   3     1.401086381165   120.65429285     0.00000000
 C      6   1   2     1.462661136728   119.27308350   179.99977613
 N      7   6   1     1.276204758287   121.66885107   180.00040499
 O      8   7   6     1.362867909682   112.33850511   179.99985376
 H      9   8   7     0.968265977526   104.14191978   179.99989865
 H      7   6   1     1.101758142026   118.55257455     0.00000000
 H      5   4   3     1.092835007765   120.95191083   179.99997849
 H      4   3   2     1.094170333820   119.92532967   180.00010442
 H      3   2   1     1.094022383872   120.13791448   180.00002351
 H      2   1   3     1.094013432755   119.83237638   180.00005144
 H      1   2   3     1.094817297773   119.93533737   179.99985856

---------------------------
INTERNAL COORDINATES (A.U.)
---------------------------
 C      0   0   0     0.000000000000     0.00000000     0.00000000
 C      1   0   0     2.633369591751     0.00000000     0.00000000
 C      2   1   0     2.633304955719   120.00416959     0.00000000
 C      3   2   1     2.641755836130   119.73243572     0.00000000
 C      4   3   2     2.625121804219   120.35536155     0.00000000
 C      1   2   3     2.647669550369   120.65429285     0.00000000
 C      6   1   2     2.764028975146   119.27308350   179.99977613
 N      7   6   1     2.411677483969   121.66885107   180.00040499
 O      8   7   6     2.575447106009   112.33850511   179.99985376
 H      9   8   7     1.829757522317   104.14191978   179.99989865
 H      7   6   1     2.082021154246   118.55257455     0.00000000
 H      5   4   3     2.065158874237   120.95191083   179.99997849
 H      4   3   2     2.067682274780   119.92532967   180.00010442
 H      3   2   1     2.067402689898   120.13791448   180.00002351
 H      2   1   3     2.067385774738   119.83237638   180.00005144
 H      1   2   3     2.068904859471   119.93533737   179.99985856

---------------------
BASIS SET INFORMATION
---------------------
There are 4 groups of distinct atoms

 Group   1 Type C   : 19s6p3d2f contracted to 5s4p3d2f pattern {88111/3111/111/11}
 Group   2 Type N   : 19s6p3d2f contracted to 5s4p3d2f pattern {88111/3111/111/11}
 Group   3 Type O   : 19s6p3d2f contracted to 5s4p3d2f pattern {88111/3111/111/11}
 Group   4 Type H   : 6s3p2d contracted to 4s3p2d pattern {3111/111/11}

Atom   0C    basis set group =>   1
Atom   1C    basis set group =>   1
Atom   2C    basis set group =>   1
Atom   3C    basis set group =>   1
Atom   4C    basis set group =>   1
Atom   5C    basis set group =>   1
Atom   6C    basis set group =>   1
Atom   7N    basis set group =>   2
Atom   8O    basis set group =>   3
Atom   9H    basis set group =>   4
Atom  10H    basis set group =>   4
Atom  11H    basis set group =>   4
Atom  12H    basis set group =>   4
Atom  13H    basis set group =>   4
Atom  14H    basis set group =>   4
Atom  15H    basis set group =>   4
---------------------------------
AUXILIARY/J BASIS SET INFORMATION
---------------------------------
There are 4 groups of distinct atoms

 Group   1 Type C   : 12s5p4d2f1g contracted to 6s4p3d1f1g pattern {711111/2111/211/2/1}
 Group   2 Type N   : 12s5p4d2f1g contracted to 6s4p3d1f1g pattern {711111/2111/211/2/1}
 Group   3 Type O   : 12s5p4d2f1g contracted to 6s4p3d1f1g pattern {711111/2111/211/2/1}
 Group   4 Type H   : 5s2p1d contracted to 3s1p1d pattern {311/2/1}

Atom   0C    basis set group =>   1
Atom   1C    basis set group =>   1
Atom   2C    basis set group =>   1
Atom   3C    basis set group =>   1
Atom   4C    basis set group =>   1
Atom   5C    basis set group =>   1
Atom   6C    basis set group =>   1
Atom   7N    basis set group =>   2
Atom   8O    basis set group =>   3
Atom   9H    basis set group =>   4
Atom  10H    basis set group =>   4
Atom  11H    basis set group =>   4
Atom  12H    basis set group =>   4
Atom  13H    basis set group =>   4
Atom  14H    basis set group =>   4
Atom  15H    basis set group =>   4


           ************************************************************
           *        Program running with 4 parallel MPI-processes     *
           *              working on a common directory               *
           ************************************************************
------------------------------------------------------------------------------
                             ORCA STARTUP CALCULATIONS
                           -- RI-GTO INTEGRALS CHOSEN --
------------------------------------------------------------------------------
------------------------------------------------------------------------------
                   ___                                                        
                  /   \      - P O W E R E D   B Y -                         
                 /     \                                                     
                 |  |  |   _    _      __       _____    __    __             
                 |  |  |  | |  | |    /  \     |  _  \  |  |  /  |          
                  \  \/   | |  | |   /    \    | | | |  |  | /  /          
                 / \  \   | |__| |  /  /\  \   | |_| |  |  |/  /          
                |  |  |   |  __  | /  /__\  \  |    /   |      \           
                |  |  |   | |  | | |   __   |  |    \   |  |\   \          
                \     /   | |  | | |  |  |  |  | |\  \  |  | \   \       
                 \___/    |_|  |_| |__|  |__|  |_| \__\ |__|  \__/        
                                                                              
                      - O R C A' S   B I G   F R I E N D -                    
                                      &                                       
                       - I N T E G R A L  F E E D E R -                       
                                                                              
 v1 FN, 2020, v2 2021, v3 2022-2024                                           
------------------------------------------------------------------------------


----------------------
SHARK INTEGRAL PACKAGE
----------------------

Number of atoms                             ...     16
Number of basis functions                   ...    629
Number of shells                            ...    243
Maximum angular momentum                    ...      3
Integral batch strategy                     ... SHARK/LIBINT Hybrid
RI-J (if used) integral strategy            ... SPLIT-RIJ (Revised 2003 algorithm where possible)
Printlevel                                  ...      1
Contraction scheme used                     ... PARTIAL GENERAL contraction
Prescreening option                         ... SCHWARTZ
   Thresh                                   ... 2.500e-11
   Tcut                                     ... 2.500e-12
   Tpresel                                  ... 2.500e-12 
Coulomb Range Separation                    ... NOT USED
Exchange Range Separation                   ... NOT USED
Multipole approximations                    ... NOT USED
Finite Nucleus Model                        ... NOT USED
CABS basis                                  ... NOT available
Auxiliary Coulomb fitting basis             ... AVAILABLE
   # of basis functions in Aux-J            ...    518
   # of shells in Aux-J                     ...    170
   Maximum angular momentum in Aux-J        ...      4
Auxiliary J/K fitting basis                 ... NOT available
Auxiliary Correlation fitting basis         ... NOT available
Auxiliary 'external' fitting basis          ... NOT available

Checking pre-screening integrals            ... done (  0.0 sec) Dimension = 243
Save PGC pre-screening integrals            ... done (  0.1 sec) Dimension = 243
Calculate PGC overlap integrals             ... done (  0.2 sec) Dimension = 189
Calculating pre-screening integrals (ORCA)  ... done (  0.3 sec) Dimension = 189
Check shell pair data                       ... done (  0.0 sec)
Shell pair information
Shell pair cut-off parameter TPreSel        ...   2.5e-12
Total number of shell pairs                 ...     29646
Shell pairs after pre-screening             ...     24571
Total number of primitive shell pairs       ...     37998
Primitive shell pairs kept                  ...     29375
          la=0 lb=0:   5607 shell pairs
          la=1 lb=0:   6247 shell pairs
          la=1 lb=1:   1547 shell pairs
          la=2 lb=0:   4399 shell pairs
          la=2 lb=1:   2167 shell pairs
          la=2 lb=2:    796 shell pairs
          la=3 lb=0:   1986 shell pairs
          la=3 lb=1:    964 shell pairs
          la=3 lb=2:    695 shell pairs
          la=3 lb=3:    163 shell pairs

Calculating one electron integrals          ... done (  0.1 sec)
Calculating RI/J V-Matrix + Cholesky decomp.... done (  0.1 sec)
Calculating Nuclear repulsion               ... done (  0.0 sec) ENN=    392.900609210968 Eh

Diagonalization of the overlap matrix:
Smallest eigenvalue                        ... 6.132e-07
Time for diagonalization                   ...    0.057 sec
Threshold for overlap eigenvalues          ... 1.000e-07
Number of eigenvalues below threshold      ... 0

IMPORTANT:
Smallest eigenvalue of S below the DiffSThresh (1.000e-06) while
Thresh>1e-12 and/or TCut>1e-13! In order to avoid SCF convergence issues,
Thresh will be set to at least 1e-12 and TCut to at least 1e-13.
This can be turned off by adding %SCF DiffSThresh -1 END to the input.

Time for construction of square roots      ...    0.065 sec
Total time needed                          ...    0.166 sec

-------------------
DFT GRID GENERATION
-------------------

General Integration Accuracy     IntAcc      ... 4.388
Radial Grid Type                 RadialGrid  ... OptM3 with GC (2021)
Angular Grid (max. ang.)         AngularGrid ... 4 (Lebedev-302)
Angular grid pruning method      GridPruning ... 4 (adaptive)
Weight generation scheme         WeightScheme... mBecke (2022)
Basis function cutoff            BFCut       ... 1.0000e-11
Integration weight cutoff        WCut        ... 1.0000e-14
Partially contracted basis set               ... off
Rotationally invariant grid construction     ... off
Angular grids for H and He will be reduced by one unit
Diffuse basis detected: some atoms will have their outermost
                        angular grid increased by 1.

Total number of grid points                  ...    80602
Total number of batches                      ...     1269
Average number of points per batch           ...       63
Average number of grid points per atom       ...     5038

---------------------
SHARK GRID GENERATION
---------------------

General Integration Accuracy     IntAcc      ... 4.388
Radial Grid Type                 RadialGrid  ... OptM3 with GC (2021)
Angular Grid (max. ang.)         AngularGrid ... 4 (Lebedev-302)
Angular grid pruning method      GridPruning ... 4 (adaptive)
Weight generation scheme         WeightScheme... mBecke (2022)
Basis function cutoff            BFCut       ... 1.0000e-11
Integration weight cutoff        WCut        ... 1.0000e-14
Partially contracted basis set               ... off
Rotationally invariant grid construction     ... off
Angular grids for H and He will be reduced by one unit
Diffuse basis detected: some atoms will have their outermost
                        angular grid increased by 1.
Steep s-basis detected: some atoms will have their radial
                        grid points doubled.

Total number of grid points                  ...   137711
Total number of batches                      ...     2161
Average number of points per batch           ...       63
Average number of grid points per atom       ...     8607

--------------------
COSX GRID GENERATION
--------------------

GRIDX 1
-------
General Integration Accuracy     IntAcc      ... 3.816
Radial Grid Type                 RadialGrid  ... OptM3 with GC (2021)
Angular Grid (max. ang.)         AngularGrid ... 1 (Lebedev-50)
Angular grid pruning method      GridPruning ... 4 (adaptive)
Weight generation scheme         WeightScheme... mBecke (2022)
Basis function cutoff            BFCut       ... 1.0000e-11
Integration weight cutoff        WCut        ... 1.0000e-14
Partially contracted basis set               ... on
Rotationally invariant grid construction     ... off
Angular grids for H and He will be reduced by one unit
Diffuse basis detected: some atoms will have their outermost
                        angular grid increased by 1.

Total number of grid points                  ...    10133
Total number of batches                      ...       87
Average number of points per batch           ...      116
Average number of grid points per atom       ...      633
UseSFitting                                  ... on

GRIDX 2
-------
General Integration Accuracy     IntAcc      ... 4.020
Radial Grid Type                 RadialGrid  ... OptM3 with GC (2021)
Angular Grid (max. ang.)         AngularGrid ... 2 (Lebedev-110)
Angular grid pruning method      GridPruning ... 4 (adaptive)
Weight generation scheme         WeightScheme... mBecke (2022)
Basis function cutoff            BFCut       ... 1.0000e-11
Integration weight cutoff        WCut        ... 1.0000e-14
Partially contracted basis set               ... on
Rotationally invariant grid construction     ... off
Angular grids for H and He will be reduced by one unit
Diffuse basis detected: some atoms will have their outermost
                        angular grid increased by 1.

Total number of grid points                  ...    25075
Total number of batches                      ...      205
Average number of points per batch           ...      122
Average number of grid points per atom       ...     1567
UseSFitting                                  ... on

GRIDX 3
-------
General Integration Accuracy     IntAcc      ... 4.338
Radial Grid Type                 RadialGrid  ... OptM3 with GC (2021)
Angular Grid (max. ang.)         AngularGrid ... 3 (Lebedev-194)
Angular grid pruning method      GridPruning ... 4 (adaptive)
Weight generation scheme         WeightScheme... mBecke (2022)
Basis function cutoff            BFCut       ... 1.0000e-11
Integration weight cutoff        WCut        ... 1.0000e-14
Partially contracted basis set               ... on
Rotationally invariant grid construction     ... off
Angular grids for H and He will be reduced by one unit
Diffuse basis detected: some atoms will have their outermost
                        angular grid increased by 1.

Total number of grid points                  ...    55522
Total number of batches                      ...      440
Average number of points per batch           ...      126
Average number of grid points per atom       ...     3470
UseSFitting                                  ... on
Initializing property integral containers    ... done (  0.2 sec)

SHARK setup successfully completed in   8.7 seconds

Maximum memory used throughout the entire STARTUP-calculation: 65.3 MB


           ************************************************************
           *        Program running with 4 parallel MPI-processes     *
           *              working on a common directory               *
           ************************************************************
-------------------------------------------------------------------------------
                                 ORCA GUESS
                   Start orbitals & Density for SCF / CASSCF
-------------------------------------------------------------------------------

------------
SCF SETTINGS
------------
Hamiltonian:
 Density Functional     Method          .... DFT(GTOs)
 Exchange Functional    Exchange        .... B88
   X-Alpha parameter    XAlpha          ....  0.666667
   Becke's b parameter  XBeta           ....  0.004200
 Correlation Functional Correlation     .... LYP
 LDA part of GGA corr.  LDAOpt          .... VWN-5
 Gradients option       PostSCFGGA      .... off
 Hybrid DFT is turned on
   Fraction HF Exchange ScalHFX         ....  0.200000
   Scaling of DF-GGA-X  ScalDFX         ....  0.720000
   Scaling of DF-GGA-C  ScalDFC         ....  0.810000
   Scaling of DF-LDA-C  ScalLDAC        ....  1.000000
   Perturbative correction              ....  0.000000
   NL short-range parameter             ....  4.800000
 RI-approximation to the Coulomb term is turned on
   Number of AuxJ basis functions       .... 518
   RIJ-COSX (HFX calculated with COS-X)).... on


General Settings:
 Integral files         IntName         .... cs_rporg_140_red_solv_02
 Hartree-Fock type      HFTyp           .... RHF
 Total Charge           Charge          ....    0
 Multiplicity           Mult            ....    1
 Number of Electrons    NEL             ....   64
 Basis Dimension        Dim             ....  575
 Nuclear Repulsion      ENuc            ....    392.9006092110 Eh

Convergence Acceleration:
 AO-DIIS                CNVDIIS         .... on
   Start iteration      DIISMaxIt       ....     0
   Startup error        DIISStart       ....  0.200000
   # of expansion vecs  DIISMaxEq       ....     5
   Bias factor          DIISBfac        ....   1.050
   Max. coefficient     DIISMaxC        ....  10.000
 MO-DIIS                CNVKDIIS        .... off
 Trust-Rad. Augm. Hess. CNVTRAH         .... auto
   Auto Start mean grad. ratio tolernc. ....  1.125000
   Auto Start start iteration           ....    50
   Auto Start num. interpolation iter.  ....    10
   Max. Number of Micro iterations      ....    24
   Max. Number of Macro iterations      .... Maxiter - #DIIS iter
   Number of Davidson start vectors     ....     2
   Converg. threshold    (grad. norm)   ....   1.000e-05
   Grad. Scal. Fac. for Micro threshold ....   0.100
   Minimum threshold for Micro iter.    ....   1.000e-02
   NR start threshold (gradient norm)   ....   1.000e-04
   Initial trust radius                 ....   0.400
   Minimum AH scaling param. (alpha)    ....   1.000
   Maximum AH scaling param. (alpha)    .... 1000.000
   Quad. conv. algorithm                .... NR
   White noise on init. David. guess    .... on
   Maximum white noise                  ....   0.010
   Pseudo random numbers                .... off
   Inactive MOs                         .... canonical
   Orbital update algorithm             .... Taylor
   Preconditioner                       .... Diag
   Full preconditioner red. dimension   ....   250
 SOSCF                  CNVSOSCF        .... on
   Start iteration      SOSCFMaxIt      ....   150
   Startup grad/error   SOSCFStart      ....  0.001000
   Hessian update       SOSCFHessUp     .... L-BFGS
 Level Shifting         CNVShift        .... on
   Level shift para.    LevelShift      ....    0.2500
   Turn off err/grad.   ShiftErr        ....    0.0000
 Zerner damping         CNVZerner       .... off
 Static damping         CNVDamp         .... on
   Fraction old density DampFac         ....    0.8500
   Max. Damping (<1)    DampMax         ....    0.9800
   Min. Damping (>=0)   DampMin         ....    0.0000
   Turn off err/grad.   DampErr         ....    0.0300

SCF Procedure:
 Maximum # iterations   MaxIter         ....  1500
 SCF integral mode      SCFMode         .... Direct
   Integral package                     .... SHARK and LIBINT hybrid scheme
 Reset frequency        DirectResetFreq ....    20
 Integral Threshold     Thresh          ....  1.000e-12 Eh
 Primitive CutOff       TCut            ....  1.000e-13 Eh

Convergence Tolerance:
 Convergence Check Mode ConvCheckMode   .... Total+1el-Energy
 Convergence forced     ConvForced      .... 0
 Energy Change          TolE            ....  1.000e-08 Eh
 1-El. energy change                    ....  1.000e-05 Eh
 Orbital Gradient       TolG            ....  1.000e-05
 Orbital Rotation angle TolX            ....  1.000e-05
 DIIS Error             TolErr          ....  5.000e-07

------------------------------
INITIAL GUESS: MODEL POTENTIAL
------------------------------
Loading Hartree-Fock densities                     ... done
Calculating cut-offs                               ... done
Initializing the effective Hamiltonian             ... done
Setting up the integral package (SHARK)            ... done
Starting the Coulomb interaction                   ... done (   0.6 sec)
Making the grid                                    ... done (   0.4 sec)
Mapping shells                                     ... done
Starting the XC term evaluation                    ... done (   0.6 sec)
  promolecular density results
     # of electrons  =     63.994183559
     EX              =    -52.800620902
     EC              =     -2.162861306
     EX+EC           =    -54.963482208
Transforming the Hamiltonian                       ... done (   0.1 sec)
Diagonalizing the Hamiltonian                      ... done (   0.1 sec)
Back transforming the eigenvectors                 ... done (   0.1 sec)
Now organizing SCF variables                       ... done
                      ------------------
                      INITIAL GUESS DONE (   2.1 sec)
                      ------------------
             **** ENERGY FILE WAS UPDATED (cs_rporg_140_red_solv_02.en.tmp) ****
Finished Guess after   3.3 sec
Maximum memory used throughout the entire GUESS-calculation: 45.9 MB


           ************************************************************
           *        Program running with 4 parallel MPI-processes     *
           *              working on a common directory               *
           ************************************************************

-------------------------------------------------------------------------------------------
                                      ORCA LEAN-SCF
                              memory conserving SCF solver
-------------------------------------------------------------------------------------------

--------------------
CPCM SOLVATION MODEL
--------------------
CPCM parameters:
  Epsilon                                         ...      35.6880
  Refrac                                          ...       1.3442
  Rsolv                                           ...       2.1900
  Surface type                                    ...    GEPOL SES
  Discretization scheme                           ... Constant num. charges
  Epsilon function type                           ...         CPCM
Solvent:                                          ... ACETONITRILE
SMD-CDS solvent descriptors:
  Soln                                            ...       1.3442
  Soln25                                          ...       1.3416
  Sola                                            ...       0.0700
  Solb                                            ...       0.3200
  Solg                                            ...      41.2500
  Solc                                            ...       0.0000
  Solh                                            ...       0.0000
Radii:
  Scheme                                          ... Element-dependent radii
  Radius for C  used is    3.4960 Bohr (=   1.8500 Ang.)
  Radius for N  used is    3.5716 Bohr (=   1.8900 Ang.)
  Radius for O  used is    4.0969 Bohr (=   2.1680 Ang.)
  Radius for H  used is    2.2677 Bohr (=   1.2000 Ang.)
Calculating surface                               ...        done! (  0.0s)
Cavity surface points                             ...          502
Cavity Volume                                     ...    1005.0518
Cavity Surface-area                               ...     584.2350
Calculating surface distance matrix               ...        done! (  0.0s)
Performing Cholesky decomposition & store         ...        done! (  0.0s)
Overall time for CPCM initialization              ...                 0.1s

----------------------------------------D-I-I-S--------------------------------------------
Iteration    Energy (Eh)           Delta-E    RMSDP     MaxDP     DIISErr   Damp  Time(sec)
-------------------------------------------------------------------------------------------
               ***  Starting incremental Fock matrix formation  ***
    1    -400.6079385569402689     0.00e+00  9.37e-04  4.48e-02  2.01e-01  0.850  15.9
    2    -400.6557146888405327    -4.78e-02  8.35e-04  3.82e-02  1.45e-01  0.850  11.2
                               ***Turning on AO-DIIS***
    3    -400.6889405005900358    -3.32e-02  5.94e-04  2.99e-02  9.63e-02  0.850   9.2
    4    -400.7110409903106643    -2.21e-02  4.78e-04  2.56e-02  8.06e-02  0.850   8.8
    5    -400.7273186198099779    -1.63e-02  3.97e-04  2.17e-02  6.96e-02  0.850   8.8
    6    -400.7401818179890256    -1.29e-02  3.34e-04  1.82e-02  5.94e-02  0.850   8.5
    7    -400.7507025393401250    -1.05e-02  2.82e-04  1.52e-02  4.92e-02  0.850  10.2
    8    -400.7593670503333101    -8.66e-03  2.39e-04  1.28e-02  4.03e-02  0.850   8.8
    9    -400.7664874243434383    -7.12e-03  2.02e-04  1.08e-02  3.40e-02  0.850   9.5
   10    -400.7723633912322043    -5.88e-03  1.71e-04  9.11e-03  2.90e-02  0.850   9.0
   11    -400.7772400563212045    -4.88e-03  9.68e-04  5.15e-02  2.45e-02  0.000   8.8
   12    -400.8029528816492189    -2.57e-02  2.60e-05  1.46e-03  2.82e-03  0.000   8.9
   13    -400.8029678778065659    -1.50e-05  8.41e-06  4.68e-04  1.10e-03  0.000   8.0
                              *** Initializing SOSCF ***
---------------------------------------S-O-S-C-F--------------------------------------
Iteration    Energy (Eh)           Delta-E    RMSDP     MaxDP     MaxGrad    Time(sec)
--------------------------------------------------------------------------------------
   14    -400.8029697011078838    -1.82e-06  3.75e-06  3.13e-04  2.75e-04     8.2
               *** Restarting incremental Fock matrix formation ***
   15    -400.8029795460979017    -9.84e-06  2.60e-04  1.20e-02  1.98e-05    15.3
   16    -400.8029795688071886    -2.27e-08  9.44e-05  4.41e-03  2.09e-05    13.4
   17    -400.8029795652709595     3.54e-09  9.40e-05  4.42e-03  1.71e-05    13.7
                 **** Energy Check signals convergence ****

               *****************************************************
               *                     SUCCESS                       *
               *           SCF CONVERGED AFTER  17 CYCLES          *
               *****************************************************

Recomputing exchange energy using gridx3       ... done (   24.415 sec)
Old exchange energy                            :    -10.703097345 Eh
New exchange energy                            :    -10.703131662 Eh
Exchange energy change after final integration :     -0.000034317 Eh
Total energy after final integration           :   -400.803013883 Eh

SMD CDS free energy correction energy :                -1.32545     Kcal/mol
Total Energy after SMD CDS correction =              -400.805126121 Eh
             **** ENERGY FILE WAS UPDATED (cs_rporg_140_red_solv_02.en.tmp) ****

----------------
TOTAL SCF ENERGY
----------------

Total Energy       :       -400.80512612065269 Eh          -10906.46196 eV

Components:
Nuclear Repulsion  :        392.90060921096841 Eh           10691.36912 eV
Electronic Energy  :       -793.69164019706363 Eh          -21597.44752 eV
One Electron Energy:      -1321.43063077218744 Eh          -35957.95553 eV
Two Electron Energy:        527.73899057512381 Eh           14360.50801 eV
CPCM Dielectric    :         -0.01194857917569 Eh              -0.32514 eV
SMD CDS (Gcds)     :         -0.00211223796582 Eh              -0.05748 eV

Virial components:
Potential Energy   :       -799.25881094694932 Eh          -21748.93794 eV
Kinetic Energy     :        398.45368482629658 Eh           10842.47598 eV
Virial Ratio       :          2.00590141686199

DFT components:
N(Alpha)           :       31.999988450962 electrons
N(Beta)            :       31.999988450962 electrons
N(Total)           :       63.999976901923 electrons
E(X)               :      -42.571471023657 Eh       
E(C)               :       -2.556766085299 Eh       
E(XC)              :      -45.128237108955 Eh       

CPCM Solvation Model Properties:
Surface-charge          :         -0.03788130836819
Corrected charge        :         -0.00000000000000
Outlying charge corr.   :          0.00010323430372 Eh               0.00281 eV
Free-energy (cav+disp)  :         -0.00211223796582 Eh              -0.05748 eV

---------------
SCF CONVERGENCE
---------------

  Last Energy change         ...   -3.5362e-09  Tolerance :   1.0000e-08
  Last MAX-Density change    ...    4.4158e-03  Tolerance :   1.0000e-07
  Last RMS-Density change    ...    9.4040e-05  Tolerance :   5.0000e-09
  Last DIIS Error            ...    2.7544e-04  Tolerance :   5.0000e-07
  Last Orbital Gradient      ...    1.7070e-05  Tolerance :   1.0000e-05
  Last Orbital Rotation      ...    2.1797e-05  Tolerance :   1.0000e-05


----------------
ORBITAL ENERGIES
----------------

  NO   OCC          E(Eh)            E(eV) 
   0   2.0000     -19.178636      -521.8772 
   1   2.0000     -14.372134      -391.0856 
   2   2.0000     -10.211194      -277.8607 
   3   2.0000     -10.193130      -277.3692 
   4   2.0000     -10.181561      -277.0544 
   5   2.0000     -10.179740      -277.0048 
   6   2.0000     -10.179433      -276.9964 
   7   2.0000     -10.178890      -276.9817 
   8   2.0000     -10.178685      -276.9761 
   9   2.0000      -1.105295       -30.0766 
  10   2.0000      -0.882867       -24.0240 
  11   2.0000      -0.848957       -23.1013 
  12   2.0000      -0.756120       -20.5751 
  13   2.0000      -0.748037       -20.3551 
  14   2.0000      -0.640299       -17.4234 
  15   2.0000      -0.609575       -16.5874 
  16   2.0000      -0.570049       -15.5118 
  17   2.0000      -0.535603       -14.5745 
  18   2.0000      -0.513735       -13.9795 
  19   2.0000      -0.474021       -12.8988 
  20   2.0000      -0.454516       -12.3680 
  21   2.0000      -0.437612       -11.9080 
  22   2.0000      -0.432667       -11.7735 
  23   2.0000      -0.420254       -11.4357 
  24   2.0000      -0.412536       -11.2257 
  25   2.0000      -0.379172       -10.3178 
  26   2.0000      -0.351869        -9.5749 
  27   2.0000      -0.343375        -9.3437 
  28   2.0000      -0.301860        -8.2140 
  29   2.0000      -0.287990        -7.8366 
  30   2.0000      -0.261295        -7.1102 
  31   2.0000      -0.234141        -6.3713 
  32   0.0000      -0.053320        -1.4509 
  33   0.0000      -0.017138        -0.4664 
  34   0.0000      -0.002967        -0.0807 
  35   0.0000       0.003399         0.0925 
  36   0.0000       0.012673         0.3448 
  37   0.0000       0.024036         0.6540 
  38   0.0000       0.025157         0.6846 
  39   0.0000       0.030378         0.8266 
  40   0.0000       0.040984         1.1152 
  41   0.0000       0.042982         1.1696 
  42   0.0000       0.052443         1.4270 
*Only the first 10 virtual orbitals were printed.

                    ********************************
                    * MULLIKEN POPULATION ANALYSIS *
                    ********************************

-----------------------
MULLIKEN ATOMIC CHARGES
-----------------------
   0 C :   -1.002501
   1 C :   -0.559257
   2 C :   -0.207828
   3 C :   -0.709888
   4 C :   -0.660608
   5 C :    1.855761
   6 C :   -0.071824
   7 N :   -0.444216
   8 O :   -0.324414
   9 H :    0.174595
  10 H :    0.441122
  11 H :    0.029270
  12 H :    0.550943
  13 H :    0.379983
  14 H :    0.577259
  15 H :   -0.028399
Sum of atomic charges:   -0.0000000

--------------------------------
MULLIKEN REDUCED ORBITAL CHARGES
--------------------------------
  0 C s       :     4.093128  s :     4.093128
      pz      :     0.949493  p :     2.816104
      px      :     0.850915
      py      :     1.015696
      dz2     :    -0.022023  d :     0.111152
      dxz     :     0.003172
      dyz     :     0.004905
      dx2y2   :     0.011864
      dxy     :     0.113234
      f0      :     0.000928  f :    -0.017884
      f+1     :    -0.000980
      f-1     :    -0.000012
      f+2     :     0.000334
      f-2     :    -0.000189
      f+3     :    -0.001505
      f-3     :    -0.016460

  1 C s       :     3.490075  s :     3.490075
      pz      :     0.961109  p :     2.950610
      px      :     1.046079
      py      :     0.943422
      dz2     :     0.005540  d :     0.128903
      dxz     :     0.019317
      dyz     :     0.016894
      dx2y2   :    -0.019832
      dxy     :     0.106984
      f0      :     0.000852  f :    -0.010331
      f+1     :     0.000675
      f-1     :    -0.000042
      f+2     :     0.000430
      f-2     :     0.000177
      f+3     :    -0.002303
      f-3     :    -0.010120

  2 C s       :     3.516511  s :     3.516511
      pz      :     0.942113  p :     2.802645
      px      :     0.955265
      py      :     0.905267
      dz2     :    -0.023181  d :    -0.103628
      dxz     :     0.002244
      dyz     :     0.025588
      dx2y2   :    -0.094291
      dxy     :    -0.013987
      f0      :     0.000573  f :    -0.007699
      f+1     :     0.000091
      f-1     :     0.000399
      f+2     :     0.000448
      f-2     :     0.000449
      f+3     :    -0.003367
      f-3     :    -0.006292

  3 C s       :     3.638084  s :     3.638084
      pz      :     0.959752  p :     2.928926
      px      :     1.034437
      py      :     0.934736
      dz2     :     0.006695  d :     0.154520
      dxz     :     0.020916
      dyz     :     0.015497
      dx2y2   :     0.011546
      dxy     :     0.099866
      f0      :     0.000884  f :    -0.011641
      f+1     :     0.000301
      f-1     :     0.000018
      f+2     :     0.000695
      f-2     :     0.000194
      f+3     :    -0.005506
      f-3     :    -0.008227

  4 C s       :     3.943654  s :     3.943654
      pz      :     0.935960  p :     2.634082
      px      :     0.748449
      py      :     0.949673
      dz2     :    -0.021673  d :     0.103542
      dxz     :     0.012986
      dyz     :    -0.000051
      dx2y2   :    -0.090617
      dxy     :     0.202897
      f0      :     0.000351  f :    -0.020670
      f+1     :    -0.000282
      f-1     :    -0.000231
      f+2     :     0.000849
      f-2     :    -0.000753
      f+3     :    -0.008047
      f-3     :    -0.012557

  5 C s       :     2.611456  s :     2.611456
      pz      :     0.987631  p :     1.749120
      px      :     0.196158
      py      :     0.565332
      dz2     :    -0.023138  d :    -0.121237
      dxz     :     0.025475
      dyz     :    -0.005219
      dx2y2   :    -0.095691
      dxy     :    -0.022664
      f0      :     0.001114  f :    -0.095101
      f+1     :    -0.006793
      f-1     :    -0.001454
      f+2     :    -0.000846
      f-2     :    -0.001090
      f+3     :    -0.041889
      f-3     :    -0.044142

  6 C s       :     3.763965  s :     3.763965
      pz      :     0.829311  p :     2.307899
      px      :     0.603467
      py      :     0.875122
      dz2     :     0.010028  d :     0.006818
      dxz     :     0.034482
      dyz     :     0.002696
      dx2y2   :     0.028104
      dxy     :    -0.068493
      f0      :     0.000987  f :    -0.006858
      f+1     :    -0.001372
      f-1     :     0.000679
      f+2     :     0.001882
      f-2     :     0.000601
      f+3     :    -0.006287
      f-3     :    -0.003347

  7 N s       :     4.047933  s :     4.047933
      pz      :     1.190938  p :     3.269333
      px      :     0.721829
      py      :     1.356566
      dz2     :    -0.003333  d :     0.114539
      dxz     :     0.041167
      dyz     :     0.013794
      dx2y2   :     0.045557
      dxy     :     0.017352
      f0      :     0.001800  f :     0.012412
      f+1     :     0.000000
      f-1     :    -0.000099
      f+2     :     0.001417
      f-2     :     0.005029
      f+3     :     0.001591
      f-3     :     0.002675

  8 O s       :     3.917148  s :     3.917148
      pz      :     1.823742  p :     4.358302
      px      :     1.134209
      py      :     1.400351
      dz2     :     0.000225  d :     0.043255
      dxz     :     0.015164
      dyz     :     0.003101
      dx2y2   :     0.016306
      dxy     :     0.008458
      f0      :     0.001101  f :     0.005709
      f+1     :     0.000502
      f-1     :     0.000166
      f+2     :     0.000616
      f-2     :     0.000571
      f+3     :     0.001978
      f-3     :     0.000775

  9 H s       :     0.713131  s :     0.713131
      pz      :     0.042280  p :     0.090001
      px      :     0.034932
      py      :     0.012790
      dz2     :     0.000913  d :     0.022273
      dxz     :     0.003179
      dyz     :     0.006376
      dx2y2   :     0.010262
      dxy     :     0.001543

 10 H s       :     0.615660  s :     0.615660
      pz      :     0.002154  p :    -0.056548
      px      :    -0.004385
      py      :    -0.054318
      dz2     :    -0.001444  d :    -0.000233
      dxz     :     0.001002
      dyz     :     0.002209
      dx2y2   :    -0.003145
      dxy     :     0.001145

 11 H s       :     0.908079  s :     0.908079
      pz      :     0.010936  p :     0.056457
      px      :     0.020063
      py      :     0.025458
      dz2     :    -0.000012  d :     0.006195
      dxz     :     0.001997
      dyz     :     0.001904
      dx2y2   :     0.001588
      dxy     :     0.000717

 12 H s       :     0.442510  s :     0.442510
      pz      :     0.016925  p :     0.000730
      px      :    -0.004204
      py      :    -0.011991
      dz2     :    -0.000503  d :     0.005817
      dxz     :     0.000347
      dyz     :     0.003734
      dx2y2   :     0.000287
      dxy     :     0.001952

 13 H s       :     0.615613  s :     0.615613
      pz      :     0.013576  p :    -0.001090
      px      :    -0.012478
      py      :    -0.002188
      dz2     :    -0.000744  d :     0.005493
      dxz     :     0.003851
      dyz     :    -0.000067
      dx2y2   :     0.001203
      dxy     :     0.001251

 14 H s       :     0.429488  s :     0.429488
      pz      :     0.016677  p :    -0.012398
      px      :    -0.016864
      py      :    -0.012211
      dz2     :    -0.000530  d :     0.005651
      dxz     :     0.001567
      dyz     :     0.002415
      dx2y2   :     0.001278
      dxy     :     0.000922

 15 H s       :     0.970543  s :     0.970543
      pz      :     0.013284  p :     0.051916
      px      :    -0.020612
      py      :     0.059245
      dz2     :    -0.000278  d :     0.005939
      dxz     :     0.000520
      dyz     :     0.003557
      dx2y2   :     0.001879
      dxy     :     0.000262



                     *******************************
                     * LOEWDIN POPULATION ANALYSIS *
                     *******************************

----------------------
LOEWDIN ATOMIC CHARGES
----------------------
   0 C :    0.192782
   1 C :    0.189807
   2 C :    0.186096
   3 C :    0.189268
   4 C :    0.186108
   5 C :   -0.179411
   6 C :   -0.021098
   7 N :    0.113953
   8 O :    0.667066
   9 H :   -0.503339
  10 H :   -0.171240
  11 H :   -0.184258
  12 H :   -0.167558
  13 H :   -0.167990
  14 H :   -0.167110
  15 H :   -0.163076

-------------------------------
LOEWDIN REDUCED ORBITAL CHARGES
-------------------------------
  0 C s       :     2.483854  s :     2.483854
      pz      :     0.596755  p :     2.284356
      px      :     0.857862
      py      :     0.829738
      dz2     :     0.069408  d :     0.700661
      dxz     :     0.120555
      dyz     :     0.047630
      dx2y2   :     0.246645
      dxy     :     0.216422
      f0      :     0.019713  f :     0.338347
      f+1     :     0.030427
      f-1     :     0.020879
      f+2     :     0.030420
      f-2     :     0.041449
      f+3     :     0.081044
      f-3     :     0.114416

  1 C s       :     2.492098  s :     2.492098
      pz      :     0.603276  p :     2.298715
      px      :     0.847698
      py      :     0.847742
      dz2     :     0.067642  d :     0.690055
      dxz     :     0.086022
      dyz     :     0.074136
      dx2y2   :     0.175029
      dxy     :     0.287227
      f0      :     0.018647  f :     0.329325
      f+1     :     0.026179
      f-1     :     0.024450
      f+2     :     0.055551
      f-2     :     0.012558
      f+3     :     0.077604
      f-3     :     0.114336

  2 C s       :     2.493875  s :     2.493875
      pz      :     0.599767  p :     2.297511
      px      :     0.836927
      py      :     0.860817
      dz2     :     0.067832  d :     0.693144
      dxz     :     0.041660
      dyz     :     0.119707
      dx2y2   :     0.276028
      dxy     :     0.187916
      f0      :     0.018789  f :     0.329374
      f+1     :     0.020194
      f-1     :     0.030335
      f+2     :     0.016850
      f-2     :     0.051645
      f+3     :     0.077280
      f-3     :     0.114282

  3 C s       :     2.492248  s :     2.492248
      pz      :     0.601768  p :     2.297654
      px      :     0.857793
      py      :     0.838093
      dz2     :     0.067615  d :     0.691087
      dxz     :     0.112083
      dyz     :     0.048345
      dx2y2   :     0.242429
      dxy     :     0.220614
      f0      :     0.018586  f :     0.329743
      f+1     :     0.029635
      f-1     :     0.020992
      f+2     :     0.029931
      f-2     :     0.038288
      f+3     :     0.077939
      f-3     :     0.114373

  4 C s       :     2.483265  s :     2.483265
      pz      :     0.595587  p :     2.289342
      px      :     0.857138
      py      :     0.836618
      dz2     :     0.069701  d :     0.703140
      dxz     :     0.093053
      dyz     :     0.074689
      dx2y2   :     0.190648
      dxy     :     0.275049
      f0      :     0.019951  f :     0.338144
      f+1     :     0.027324
      f-1     :     0.024092
      f+2     :     0.056758
      f-2     :     0.016260
      f+3     :     0.080050
      f-3     :     0.113709

  5 C s       :     2.470564  s :     2.470564
      pz      :     0.617806  p :     2.299214
      px      :     0.824524
      py      :     0.856883
      dz2     :     0.089905  d :     0.916975
      dxz     :     0.132999
      dyz     :     0.120626
      dx2y2   :     0.301296
      dxy     :     0.272149
      f0      :     0.029271  f :     0.492658
      f+1     :     0.035413
      f-1     :     0.033985
      f+2     :     0.052790
      f-2     :     0.053804
      f+3     :     0.113218
      f-3     :     0.174177

  6 C s       :     2.512348  s :     2.512348
      pz      :     0.603800  p :     2.286710
      px      :     0.839291
      py      :     0.843619
      dz2     :     0.080990  d :     0.810201
      dxz     :     0.150156
      dyz     :     0.046548
      dx2y2   :     0.281299
      dxy     :     0.251208
      f0      :     0.028012  f :     0.411839
      f+1     :     0.037418
      f-1     :     0.023859
      f+2     :     0.032921
      f-2     :     0.048800
      f+3     :     0.134217
      f-3     :     0.106612

  7 N s       :     2.839374  s :     2.839374
      pz      :     0.882834  p :     2.981104
      px      :     0.872468
      py      :     1.225802
      dz2     :     0.071461  d :     0.732850
      dxz     :     0.180393
      dyz     :     0.019746
      dx2y2   :     0.235465
      dxy     :     0.225784
      f0      :     0.023057  f :     0.332719
      f+1     :     0.029470
      f-1     :     0.014556
      f+2     :     0.027671
      f-2     :     0.051143
      f+3     :     0.088448
      f-3     :     0.098373

  8 O s       :     3.036808  s :     3.036808
      pz      :     1.411117  p :     3.821155
      px      :     1.083713
      py      :     1.326325
      dz2     :     0.036546  d :     0.364818
      dxz     :     0.079340
      dyz     :     0.005869
      dx2y2   :     0.081256
      dxy     :     0.161807
      f0      :     0.010762  f :     0.110153
      f+1     :     0.010952
      f-1     :     0.004281
      f+2     :     0.012580
      f-2     :     0.006140
      f+3     :     0.039825
      f-3     :     0.025612

  9 H s       :     0.595469  s :     0.595469
      pz      :     0.155392  p :     0.533677
      px      :     0.155614
      py      :     0.222671
      dz2     :     0.037021  d :     0.374193
      dxz     :     0.042127
      dyz     :     0.078796
      dx2y2   :     0.132372
      dxy     :     0.083876

 10 H s       :     0.657550  s :     0.657550
      pz      :     0.065244  p :     0.293312
      px      :     0.088326
      py      :     0.139743
      dz2     :     0.026402  d :     0.220378
      dxz     :     0.007789
      dyz     :     0.055207
      dx2y2   :     0.059977
      dxy     :     0.071002

 11 H s       :     0.652819  s :     0.652819
      pz      :     0.077310  p :     0.310636
      px      :     0.121342
      py      :     0.111983
      dz2     :     0.025551  d :     0.220803
      dxz     :     0.029829
      dyz     :     0.032787
      dx2y2   :     0.082322
      dxy     :     0.050314

 12 H s       :     0.663683  s :     0.663683
      pz      :     0.080921  p :     0.295243
      px      :     0.082411
      py      :     0.131910
      dz2     :     0.022486  d :     0.208633
      dxz     :     0.009842
      dyz     :     0.051340
      dx2y2   :     0.058691
      dxy     :     0.066273

 13 H s       :     0.664765  s :     0.664765
      pz      :     0.081065  p :     0.295556
      px      :     0.136954
      py      :     0.077537
      dz2     :     0.022408  d :     0.207668
      dxz     :     0.055430
      dyz     :     0.005169
      dx2y2   :     0.049045
      dxy     :     0.075616

 14 H s       :     0.663425  s :     0.663425
      pz      :     0.081264  p :     0.295195
      px      :     0.101340
      py      :     0.112592
      dz2     :     0.022458  d :     0.208491
      dxz     :     0.026070
      dyz     :     0.035235
      dx2y2   :     0.079185
      dxy     :     0.045542

 15 H s       :     0.651270  s :     0.651270
      pz      :     0.079101  p :     0.298739
      px      :     0.089317
      py      :     0.130320
      dz2     :     0.023647  d :     0.213067
      dxz     :     0.009981
      dyz     :     0.051483
      dx2y2   :     0.061329
      dxy     :     0.066628



                      *****************************
                      * MAYER POPULATION ANALYSIS *
                      *****************************

  NA   - Mulliken gross atomic population
  ZA   - Total nuclear charge
  QA   - Mulliken gross atomic charge
  VA   - Mayer's total valence
  BVA  - Mayer's bonded valence
  FA   - Mayer's free valence

  ATOM       NA         ZA         QA         VA         BVA        FA
  0 C      7.0025     6.0000    -1.0025     2.7344     2.7344    -0.0000
  1 C      6.5593     6.0000    -0.5593     2.9399     2.9399     0.0000
  2 C      6.2078     6.0000    -0.2078     2.9948     2.9948     0.0000
  3 C      6.7099     6.0000    -0.7099     2.8750     2.8750     0.0000
  4 C      6.6606     6.0000    -0.6606     2.8249     2.8249     0.0000
  5 C      4.1442     6.0000     1.8558     0.3124     0.3124     0.0000
  6 C      6.0718     6.0000    -0.0718     2.3546     2.3546    -0.0000
  7 N      7.4442     7.0000    -0.4442     1.7752     1.7752     0.0000
  8 O      8.3244     8.0000    -0.3244     1.7516     1.7516     0.0000
  9 H      0.8254     1.0000     0.1746     1.0232     1.0232    -0.0000
 10 H      0.5589     1.0000     0.4411     0.5485     0.5485     0.0000
 11 H      0.9707     1.0000     0.0293     1.2428     1.2428    -0.0000
 12 H      0.4491     1.0000     0.5509     0.5306     0.5306    -0.0000
 13 H      0.6200     1.0000     0.3800     0.7771     0.7771     0.0000
 14 H      0.4227     1.0000     0.5773     0.4493     0.4493    -0.0000
 15 H      1.0284     1.0000    -0.0284     1.2881     1.2881    -0.0000

  Mayer bond orders larger than 0.100000
B(  0-C ,  1-C ) :   1.1769 B(  0-C ,  2-C ) :  -0.1694 B(  0-C ,  4-C ) :  -0.4719 
B(  0-C ,  6-C ) :   0.1550 B(  0-C , 11-H ) :   0.1336 B(  0-C , 13-H ) :   0.1098 
B(  0-C , 14-H ) :  -0.2099 B(  0-C , 15-H ) :   1.7684 B(  1-C ,  2-C ) :   1.2377 
B(  1-C ,  3-C ) :   0.1703 B(  1-C , 14-H ) :   0.4578 B(  1-C , 15-H ) :  -0.1372 
B(  2-C ,  3-C ) :   1.1674 B(  2-C ,  4-C ) :  -0.1875 B(  2-C ,  5-C ) :  -0.1111 
B(  2-C ,  6-C ) :   0.1423 B(  2-C , 13-H ) :   0.7781 B(  3-C ,  4-C ) :   1.1564 
B(  3-C ,  5-C ) :   0.1371 B(  3-C , 12-H ) :   0.4714 B(  3-C , 15-H ) :  -0.1042 
B(  4-C ,  5-C ) :   0.4735 B(  4-C ,  6-C ) :   0.3049 B(  4-C , 11-H ) :   1.3728 
B(  4-C , 12-H ) :  -0.1001 B(  4-C , 15-H ) :   0.1310 B(  5-C ,  7-N ) :  -0.1536 
B(  5-C , 11-H ) :  -0.2104 B(  5-C , 12-H ) :   0.1033 B(  5-C , 14-H ) :   0.1513 
B(  5-C , 15-H ) :  -0.2797 B(  6-C ,  7-N ) :   1.1343 B(  6-C , 10-H ) :   0.6018 
B(  6-C , 15-H ) :  -0.1185 B(  7-N ,  8-O ) :   0.6473 B(  8-O ,  9-H ) :   0.9899 
B( 11-H , 15-H ) :   0.1878 

-------
TIMINGS
-------

Total SCF time: 0 days 0 hours 3 min 22 sec 

Total time                  ....     202.738 sec
Sum of individual times     ....     201.485 sec  ( 99.4%)

SCF preparation             ....       1.204 sec  (  0.6%)
Fock matrix formation       ....     186.846 sec  ( 92.2%)
  Startup                   ....       1.465 sec  (  0.8% of F)
  Split-RI-J                ....      12.812 sec  (  6.9% of F)
  Chain of spheres X        ....     125.228 sec  ( 67.0% of F)
  XC integration            ....      37.091 sec  ( 19.9% of F)
    XC Preparation          ....       0.000 sec  (  0.0% of XC)
    Basis function eval.    ....       6.540 sec  ( 17.6% of XC)
    Density eval.           ....       8.180 sec  ( 22.1% of XC)
    XC-Functional eval.     ....       0.448 sec  (  1.2% of XC)
    XC-Potential eval.      ....      17.660 sec  ( 47.6% of XC)
  CPCM terms                ....       6.055 sec  (  3.2% of F)
Diagonalization             ....       0.000 sec  (  0.0%)
Density matrix formation    ....       3.907 sec  (  1.9%)
Total Energy calculation    ....       1.407 sec  (  0.7%)
Population analysis         ....       0.271 sec  (  0.1%)
Orbital Transformation      ....       0.606 sec  (  0.3%)
Orbital Orthonormalization  ....       0.000 sec  (  0.0%)
DIIS solution               ....       6.421 sec  (  3.2%)
SOSCF solution              ....       0.822 sec  (  0.4%)
Finished LeanSCF after 203.0 sec

Maximum memory used throughout the entire LEANSCF-calculation: 79.1 MB


-------------------------------------------------------------------------------
                          DFT DISPERSION CORRECTION                            
                                                                               
                              DFTD3 V3.1  Rev 1                                
                          USING Becke-Johnson damping                          
-------------------------------------------------------------------------------
The B3LYP functional is recognized
Active option DFTDOPT                   ...         4   

molecular C6(AA) [au] = 3025.167907 


            DFT-D V3
 parameters
 s6 scaling factor         :     1.0000 
 a1 scaling factor         :     0.3981 
 s8 scaling factor         :     1.9889 
 a2 scaling factor         :     4.4211 
 ad hoc parameters k1-k3   :    16.0000     1.3333    -4.0000 

 Edisp/kcal,au: -17.163716996810  -0.027352121164 
 E6   /kcal   :  -7.965848163 
 E8   /kcal   :  -9.197868834 
 % E8         :  53.589026407 

-------------------------   ----------------
Dispersion correction           -0.027352121
-------------------------   ----------------


-------------------------   --------------------
FINAL SINGLE POINT ENERGY      -400.832478241816
-------------------------   --------------------



           ************************************************************
           *        Program running with 4 parallel MPI-processes     *
           *              working on a common directory               *
           ************************************************************

------------------------------------------------------------------------------
                              ORCA PROPERTY CALCULATIONS
------------------------------------------------------------------------------

GBWName                                 ... cs_rporg_140_red_solv_02.gbw
Number of atoms                         ...     16
Number of basis functions               ...    629
Max core memory                         ...   3000 MB

Electric properties:
Dipole moment                           ... YES
Quadrupole moment                       ...  NO
Static polarizability (Dipole/Dipole)   ...  NO
Static polarizability (Dipole/Quad.)    ...  NO
Static polarizability (Quad./Quad.)     ...  NO
Static polarizability (Velocity)        ...  NO

Atomic electric properties:
Dipole moment                           ...  NO
Quadrupole moment                       ...  NO
Static polarizability                   ...  NO

Choice of electric origin               ... Center of mass
Position of electric origin             ...     0.002314     0.004012     0.000030

General magnetic properties:
Magnetizability                         ...  NO

EPR properties:
g-Tensor (aka g-matrix)                 ...  NO
Zero-Field splitting spin-orbit         ...  NO
Zero-field splitting spin-spin          ...  NO
Hyperfine couplings                     ...  NO (   0 nuclei)
Quadrupole couplings                    ...  NO (   0 nuclei)
Contact density                         ...  NO (   0 nuclei)

NMR properties:
Chemical shifts                         ...  NO (   0 nuclei)
Spin-rotation constants                 ...  NO (   0 nuclei)
Spin-spin couplings                     ...  NO (   0 nuclei,    0 pairs)

Choice of magnetic origin               ... GIAO
Position of magnetic origin             ...     0.000000     0.000000     0.000000

Properties with geometric perturbations:
SCF Hessian                             ...  NO
IR spectrum                             ...  NO
VCD spectrum                            ...  NO
X-ray spectroscopy properties:
SCF XES/XAS/RIXS spectra                ...  NO


-------------
DIPOLE MOMENT
-------------

Method             : SCF
Type of density    : Electron Density
Multiplicity       :   1
Irrep              :   0
Energy             :  -400.8051261206526874 Eh
Relativity type    : 
Basis              : AO
                                X                 Y                 Z
Electronic contribution:     -3.055804784       0.151904768       0.000061194
Nuclear contribution   :      3.386800554      -0.260850522      -0.000035535
                        -----------------------------------------
Total Dipole Moment    :      0.330995769      -0.108945754       0.000025659
                        -----------------------------------------
Magnitude (a.u.)       :      0.348464313
Magnitude (Debye)      :      0.885725893



--------------------
Rotational spectrum 
--------------------
 
Rotational constants in cm-1:             0.173273             0.029980             0.025558 
Rotational constants in MHz :          5194.584681           898.778188           766.207349 

Dipole components along the rotational axes: 
x,y,z [a.u.] :    -0.330323    -0.110968     0.000028 
x,y,z [Debye]:    -0.839615    -0.282059     0.000072 

 

Dipole moment calculation done in   0.1 sec 

Maximum memory used throughout the entire PROP-calculation: 46.3 MB

--------------------------------
SUGGESTED CITATIONS FOR THIS RUN
--------------------------------

Below you find a list of papers that are relevant to this ORCA run
We neither can nor want to force you to cite these papers, but we appreciate if you do
You receive ORCA, which is the product of decades of hard work by many enthusiastic individuals, for free
The only thing we kindly ask in return is that you cite our papers,
We deeply appreciate it, if you show your appreciation for ORCA by not just citing the generic ORCA reference.

Please note that relegating all ORCA citations to the supporting information does *not* help us.
SI sections are not indexed - citations you put there will not count into any citation statistics
But we need these citations in order to attract the funding resources that allow us to do what we are doing

Therefore, if you are a happy ORCA user, please consider citing a few of the papers listed below in the main body of your paper

In addition to the list printed below, the program has created the file cs_rporg_140_red_solv_02.bibtex that contains the list in bibtex format
You can import this file easily into all common literature databanks and citation aid programs


List of essential papers. We consider these as the minimum necessary citations

  1. Neese,F.
     Software update: the ORCA program system, version 5.0
     WIRES Comput. Molec. Sci., 2022 12(1)e1606
     doi.org/10.1002/wcms.1606

List of papers to cite with high priority. The work reported in these papers was absolutely
necessary for this run to complete.
Our perspective: the developers of density functionals and basis sets usually get cited in chemistry papers
Good! But without the algorithms to do something with them, the functionals or basis sets would not do anything.
Hence, in our opinion, the algorithm design and method developments papers are equally worthy of getting cited

  1. Neese,F.
     An improvement of the resolution of the identity approximation for the formation of the Coulomb matrix
     J. Comp. Chem., 2003 24(14)1740-1747
     doi.org/10.1002/jcc.10318
  2. Neese,F.; Wennmohs,F.; Hansen,A.; Becker,U.
     Efficient, approximate and parallel Hartree-Fock and hybrid DFT calculations. A 'chain-of-spheres' algorithm for the Hartree-Fock exchange
     Chem. Phys., 2009 356(1-3)98-109
     doi.org/10.1016/j.chemphys.2008.10.036
  3. Garcia-Rates,M.; Neese,F.
     Effect of the Solute Cavity on the Solvation Energy and its Derivatives within the Framework of the Gaussian Charge Scheme
     J. Comput. Chem., 2020 41 922-939
     doi.org/10.1002/jcc.26139
  4. Helmich-Paris,B.; de Souza,B.; Neese,F.; Izsák,R.
     An improved chain of spheres for exchange algorithm
     J. Chem. Phys., 2021 155 104109
     doi.org/doi: 10.1063/5.0058766.
  5. Neese,F.
     The SHARK Integral Generation and Digestion System
     J. Comp. Chem., 2022  1-16
     doi.org/10.1002/jcc.26942
  6. Grimme,S.; Antony,J.; Ehrlich,S.; Krieg,H.
     A consistent and accurate ab initio parametrization of density functional dispersion correction (DFT-D) for the 94 elements H-Pu
     J. Chem. Phys., 2010 132 154104-XXXX
     doi.org/10.1063/1.3382344
  7. Grimme,S.; Ehrlich,S.; Goerigk,L.
     Effect of the damping function in dispersion corrected density functional theory
     J. Comput. Chem., 2011 32(7)1456-1465
     doi.org/10.1002/jcc.21759

List of suggested additional citations. These are papers that are important in the 'surrounding' of 
of this run, or papers that preceded the highly important papers. If you like your results we are grateful for a citation.

  1. Izsak,R.; Neese,F.
     An overlap fitted chain of spheres exchange method
     J. Chem. Phys., 2011 135 144105
     doi.org/10.1063/1.3646921
  2. Izsak,R.; Hansen,A.; Neese,F.
     The resolution of identity and chain of spheres approximations for the LPNO-CCSD singles Fock term
     Molec. Phys., 2012 110 2413-2417
     doi.org/10.1080/00268976.2012.687466
  3. Neese,F.
     The ORCA program system
     WIRES Comput. Molec. Sci., 2012 2(1)73-78
     doi.org/10.1002/wcms.81
  4. Izsak,R.; Neese,F.; Klopper,W.
     Robust fitting techniques in the chain of spheres approximation to the Fock exchange: The role of the complementary space
     J. Chem. Phys., 2013 139 
     doi.org/10.1063/1.4819264
  5. Neese,F.
     Software update: the ORCA program system, version 4.0
     WIRES Comput. Molec. Sci., 2018 8(1)1-6
     doi.org/10.1002/wcms.1327
  6. Neese,F.; Wennmohs,F.; Becker,U.; Riplinger,C.
     The ORCA quantum chemistry program package
     J. Chem. Phys., 2020 152 Art. No. L224108
     doi.org/10.1063/5.0004608

List of optional additional citations

  1. Neese,F.
     Approximate second-order SCF convergence for spin unrestricted wavefunctions
     Chem. Phys. Lett., 2000 325(1-3)93-98
     doi.org/10.1016/s0009-2614(00)00662-x

Timings for individual modules:

Sum of individual times          ...      221.553 sec (=   3.693 min)
Startup calculation              ...       10.715 sec (=   0.179 min)   4.8 %
SCF iterations                   ...      208.884 sec (=   3.481 min)  94.3 %
Property calculations            ...        1.955 sec (=   0.033 min)   0.9 %
                             ****ORCA TERMINATED NORMALLY****
TOTAL RUN TIME: 0 days 0 hours 3 minutes 44 seconds 811 msec
