 vasp.6.3.2 27Jun22 (build Oct 25 2024 11:36:28) complex                        
  
 executed on             LinuxIFC date 2025.01.03  15:47:04
 running on   80 total cores
 distrk:  each k-point on   80 cores,    1 groups
 distr:  one band on NCORE=  10 cores,    8 groups


--------------------------------------------------------------------------------------------------------


 INCAR:
   SYSTEM = 006_red
   ISTART = 1
   ICHARG = 2
   INIWAV = 1
   METAGGA = R2SCAN
   LASPH = .TRUE.
   NELM = 100
   ALGO = fast   	
   ISPIN = 2
   EDIFF = 1E-05
   ISMEAR = 0
   SIGMA = 0.05
   PREC = accurate
   ENCUT = 500
   LREAL = auto  	
   LWAVE = .TRUE.
   LCHARG = .FALSE.
   LAECHG = .FALSE.
   LVHAR = .FALSE.
   LVTOT = .FALSE.
   EDIFFG = -0.02
   IBRION = 2
   NSW = 500
   ISIF = 2
   POTIM = 0.5
   IVDW = 12
   VDW_A1 = 0.49484001
   VDW_S8 = 0.78981345
   VDW_A2 = 5.73083694
   LPLANE = .TRUE.
   NCORE = 10
   LSCALU = .FALSE.
   NSIM = 4
   LSOL = .TRUE.
   ISOL = 2
   EPSILON_INF = 1.8069
   N_MOL = 0.0115
   P_MOL = 0.82
   R_SOLV = 2.1900
   EB_K = 35.6880

 POTCAR:    PAW_PBE C 08Apr2002                   
 POTCAR:    PAW_PBE H 15Jun2001                   
 -----------------------------------------------------------------------------
|                                                                             |
|           W    W    AA    RRRRR   N    N  II  N    N   GGGG   !!!           |
|           W    W   A  A   R    R  NN   N  II  NN   N  G    G  !!!           |
|           W    W  A    A  R    R  N N  N  II  N N  N  G       !!!           |
|           W WW W  AAAAAA  RRRRR   N  N N  II  N  N N  G  GGG   !            |
|           WW  WW  A    A  R   R   N   NN  II  N   NN  G    G                |
|           W    W  A    A  R    R  N    N  II  N    N   GGGG   !!!           |
|                                                                             |
|     You use a magnetic or noncollinear calculation, but did not specify     |
|     the initial magnetic moment with the MAGMOM tag. Note that a            |
|     default of 1 will be used for all atoms. This ferromagnetic setup       |
|     may break the symmetry of the crystal, in particular it may rule        |
|     out finding an antiferromagnetic solution. Thence, we recommend         |
|     setting the initial magnetic moment manually or verifying carefully     |
|     that this magnetic setup is desired.                                    |
|                                                                             |
 -----------------------------------------------------------------------------

 POTCAR:    PAW_PBE C 08Apr2002                   
   SHA256 =  253f7b50bb8d59471dbedb8285d89021f4a42ed1a2c5d38a03a736e69125dd95 C/POTCAR              
   COPYR  = (c) Copyright 08Apr2002 Georg Kresse                                                    
   COPYR  = This file is part of the software VASP. Any use, copying, and all other rights are regul
   COPYR  = If you do not have a valid VASP license, you may not use, copy or distribute this file. 
   VRHFIN =C: s2p2                                                                                  
   LEXCH  = PE                                                                                      
   EATOM  =   147.1560 eV,   10.8157 Ry                                                             
                                                                                                    
   TITEL  = PAW_PBE C 08Apr2002                                                                     
   LULTRA =        F    use ultrasoft PP ?                                                          
   IUNSCR =        1    unscreen: 0-lin 1-nonlin 2-no                                               
   RPACOR =    1.200    partial core radius                                                         
   POMASS =   12.011; ZVAL   =    4.000    mass and valenz                                          
   RCORE  =    1.500    outmost cutoff radius                                                       
   RWIGS  =    1.630; RWIGS  =    0.863    wigner-seitz radius (au A)                               
   ENMAX  =  400.000; ENMIN  =  300.000 eV                                                          
   ICORE  =        2    local potential                                                             
   LCOR   =        T    correct aug charges                                                         
   LPAW   =        T    paw PP                                                                      
   EAUG   =  644.873                                                                                
   DEXC   =    0.000                                                                                
   RMAX   =    1.529    core radius for proj-oper                                                   
   RAUG   =    1.300    factor for augmentation sphere                                              
   RDEP   =    1.501    radius for radial grids                                                     
   RDEPT  =    1.300    core radius for aug-charge                                                  
                                                                                                    
   Atomic configuration                                                                             
    4 entries                                                                                       
     n  l   j            E        occ.                                                              
     1  0  0.50      -273.3789   2.0000                                                             
     2  0  0.50       -13.7508   2.0000                                                             
     2  1  0.50        -5.2854   2.0000                                                             
     3  2  1.50        -5.4423   0.0000                                                             
   Description                                                                                      
     l       E           TYP  RCUT    TYP  RCUT                                                     
     0    -13.7508458     23  1.200                                                                 
     0     -8.2022199     23  1.200                                                                 
     1     -5.2854383     23  1.500                                                                 
     1     34.0145650     23  1.500                                                                 
     2     -5.4423304      7  1.500                                                                 
  local pseudopotential read in
  partial core-charges read in
  partial kinetic energy density read in
  atomic valenz-charges read in
  non local Contribution for L=           0  read in
    real space projection operators read in
  non local Contribution for L=           0  read in
    real space projection operators read in
  non local Contribution for L=           1  read in
    real space projection operators read in
  non local Contribution for L=           1  read in
    real space projection operators read in
    PAW grid and wavefunctions read in
 
   number of l-projection  operators is LMAX  =           4
   number of lm-projection operators is LMMAX =           8
 
 POTCAR:    PAW_PBE H 15Jun2001                   
   SHA256 =  030f79b5d3ab3cf0e668861823c8fb652ff669f3e15e46930bd03bfd63a607b6 H/POTCAR              
   COPYR  = (c) Copyright 15Jun2001 Georg Kresse                                                    
   COPYR  = This file is part of the software VASP. Any use, copying, and all other rights are regul
   COPYR  = If you do not have a valid VASP license, you may not use, copy or distribute this file. 
   VRHFIN =H: ultrasoft test                                                                        
   LEXCH  = PE                                                                                      
   EATOM  =    12.4884 eV,    0.9179 Ry                                                             
                                                                                                    
   TITEL  = PAW_PBE H 15Jun2001                                                                     
   LULTRA =        F    use ultrasoft PP ?                                                          
   IUNSCR =        0    unscreen: 0-lin 1-nonlin 2-no                                               
   RPACOR =    0.000    partial core radius                                                         
   POMASS =    1.000; ZVAL   =    1.000    mass and valenz                                          
   RCORE  =    1.100    outmost cutoff radius                                                       
   RWIGS  =    0.700; RWIGS  =    0.370    wigner-seitz radius (au A)                               
   ENMAX  =  250.000; ENMIN  =  200.000 eV                                                          
   RCLOC  =    0.701    cutoff for local pot                                                        
   LCOR   =        T    correct aug charges                                                         
   LPAW   =        T    paw PP                                                                      
   EAUG   =  400.000                                                                                
   RMAX   =    1.123    core radius for proj-oper                                                   
   RAUG   =    1.200    factor for augmentation sphere                                              
   RDEP   =    1.112    radius for radial grids                                                     
   RDEPT  =    0.926    core radius for aug-charge                                                  
                                                                                                    
   Atomic configuration                                                                             
    2 entries                                                                                       
     n  l   j            E        occ.                                                              
     1  0  0.50        -6.4927   1.0000                                                             
     2  1  0.50        -3.4015   0.0000                                                             
   Description                                                                                      
     l       E           TYP  RCUT    TYP  RCUT                                                     
     0     -6.4927494     23  1.100                                                                 
     0      6.8029130     23  1.100                                                                 
     1     -4.0817478     23  1.100                                                                 
  local pseudopotential read in
  atomic valenz-charges read in
  non local Contribution for L=           0  read in
    real space projection operators read in
  non local Contribution for L=           0  read in
    real space projection operators read in
  non local Contribution for L=           1  read in
    real space projection operators read in
    PAW grid and wavefunctions read in
 
   number of l-projection  operators is LMAX  =           3
   number of lm-projection operators is LMMAX =           5
 
 Optimization of the real space projectors (new method)

 maximal supplied QI-value         = 25.13
 optimisation between [QCUT,QGAM] = [ 11.31, 22.87] = [ 35.82,146.48] Ry 
 Optimized for a Real-space Cutoff    1.03 Angstroem

   l    n(q)    QCUT    max X(q) W(low)/X(q) W(high)/X(q)  e(spline) 
   0      7    11.310   115.676    0.20E-03    0.90E-03    0.20E-06
   0      7    11.310    87.132    0.20E-03    0.89E-03    0.19E-06
   1      6    11.310     4.429    0.16E-03    0.28E-03    0.12E-06
   1      6    11.310     2.733    0.12E-03    0.21E-03    0.99E-07
 Optimization of the real space projectors (new method)

 maximal supplied QI-value         = 34.20
 optimisation between [QCUT,QGAM] = [ 11.29, 22.57] = [ 35.68,142.71] Ry 
 Optimized for a Real-space Cutoff    1.20 Angstroem

   l    n(q)    QCUT    max X(q) W(low)/X(q) W(high)/X(q)  e(spline) 
   0      8    11.287    19.460    0.22E-03    0.50E-03    0.19E-06
   0      8    11.287    12.209    0.21E-03    0.48E-03    0.18E-06
   1      8    11.287     4.655    0.21E-03    0.11E-04    0.26E-06
  PAW_PBE C 08Apr2002                   :
 energy of atom  1       EATOM= -147.1560
 kinetic energy error for atom=    0.0076 (will be added to EATOM!!)
  PAW_PBE H 15Jun2001                   :
 energy of atom  2       EATOM=  -12.4884
 kinetic energy error for atom=    0.0020 (will be added to EATOM!!)
 
 
 POSCAR: C H
  positions in direct lattice
  velocities in cartesian coordinates

 METAGGA = R2SCA    LMAXTAU =  6    LMIXTAU =  F

 exchange correlation table for  LEXCH =        8
   RHO(1)=    0.500       N(1)  =     2000
   RHO(2)=  100.500       N(2)  =     4000
 
 POSCAR: C H
  positions in direct lattice
  velocities in cartesian coordinates
 
 POSCAR: C H
  positions in direct lattice
  velocities in cartesian coordinates
 


--------------------------------------------------------------------------------------------------------


 ion  position               nearest neighbor table
   1  0.445  0.483  0.500-  18 1.08   8 1.39   2 1.39
   2  0.475  0.465  0.500-  17 1.09   1 1.39   3 1.40
   3  0.506  0.482  0.500-   2 1.40   5 1.41   4 1.50
   4  0.538  0.463  0.500-  10 1.09  11 1.09   9 1.09   3 1.50
   5  0.506  0.518  0.500-   7 1.40   3 1.41   6 1.50
   6  0.538  0.537  0.500-  13 1.09  12 1.09  14 1.09   5 1.50
   7  0.475  0.535  0.500-  16 1.09   8 1.39   5 1.40
   8  0.445  0.517  0.500-  15 1.08   1 1.39   7 1.39
   9  0.553  0.469  0.522-   4 1.09
  10  0.533  0.436  0.500-   4 1.09
  11  0.553  0.469  0.478-   4 1.09
  12  0.553  0.531  0.478-   6 1.09
  13  0.533  0.564  0.500-   6 1.09
  14  0.553  0.531  0.522-   6 1.09
  15  0.421  0.531  0.500-   8 1.08
  16  0.475  0.562  0.500-   7 1.09
  17  0.475  0.438  0.500-   2 1.09
  18  0.421  0.469  0.500-   1 1.08
 
  LATTYP: Found a simple cubic cell.
 ALAT       =    40.0000000000
  
  Lattice vectors:
  
 A1 = (  40.0000000000,   0.0000000000,   0.0000000000)
 A2 = (   0.0000000000,  40.0000000000,   0.0000000000)
 A3 = (   0.0000000000,   0.0000000000,  40.0000000000)


Analysis of symmetry for initial positions (statically):
=====================================================================
 Subroutine PRICEL returns:
 Original cell was already a primitive cell.
 

 Routine SETGRP: Setting up the symmetry group for a 
 simple cubic supercell.


 Subroutine GETGRP returns: Found  4 space group operations
 (whereof  4 operations were pure point group operations)
 out of a pool of 48 trial point group operations.


The static configuration has the point symmetry C_2v.


Analysis of symmetry for dynamics (positions and initial velocities):
=====================================================================
 Subroutine PRICEL returns:
 Original cell was already a primitive cell.
 

 Routine SETGRP: Setting up the symmetry group for a 
 simple cubic supercell.


 Subroutine GETGRP returns: Found  4 space group operations
 (whereof  4 operations were pure point group operations)
 out of a pool of 48 trial point group operations.


The dynamic configuration has the point symmetry C_2v.


Analysis of constrained symmetry for selective dynamics:
=====================================================================
 Subroutine PRICEL returns:
 Original cell was already a primitive cell.
 

 Routine SETGRP: Setting up the symmetry group for a 
 simple cubic supercell.


 Subroutine GETGRP returns: Found  4 space group operations
 (whereof  4 operations were pure point group operations)
 out of a pool of 48 trial point group operations.


The constrained configuration has the point symmetry C_2v.


Analysis of structural, dynamic, and magnetic symmetry:
=====================================================================
 Subroutine PRICEL returns:
 Original cell was already a primitive cell.
 

 Routine SETGRP: Setting up the symmetry group for a 
 simple cubic supercell.


 Subroutine GETGRP returns: Found  4 space group operations
 (whereof  4 operations were pure point group operations)
 out of a pool of 48 trial point group operations.


The overall configuration has the point symmetry C_2v.


 Subroutine INISYM returns: Found  4 space group operations
 (whereof  4 operations are pure point group operations),
 and found     1 'primitive' translations


----------------------------------------------------------------------------------------

                                     Primitive cell                                     

  volume of cell :   64000.0000

  direct lattice vectors                    reciprocal lattice vectors
    40.000000000  0.000000000  0.000000000     0.025000000  0.000000000  0.000000000
     0.000000000 40.000000000  0.000000000     0.000000000  0.025000000  0.000000000
     0.000000000  0.000000000 40.000000000     0.000000000  0.000000000  0.025000000

  length of vectors
    40.000000000 40.000000000 40.000000000     0.025000000  0.025000000  0.025000000

  position of ions in fractional coordinates (direct lattice)
     0.444803921  0.482618421  0.500000896
     0.475114527  0.465461598  0.500000370
     0.505663585  0.482383240  0.499999785
     0.538004701  0.463267668  0.499998668
     0.505663585  0.517616760  0.500000215
     0.538004701  0.536731332  0.500000332
     0.475114527  0.534538402  0.500000630
     0.444803921  0.517381579  0.500001104
     0.553196898  0.469379084  0.521926873
     0.533471904  0.436375785  0.500000883
     0.553193113  0.469375957  0.478067152
     0.553195898  0.530620916  0.478071127
     0.533471904  0.563624215  0.499998117
     0.553194113  0.530624043  0.521931848
     0.421419228  0.531124493  0.500001106
     0.475133122  0.561703266  0.500001019
     0.475133122  0.438296734  0.499999981
     0.421419228  0.468875507  0.500000894

  ion indices of the primitive-cell ions
   primitive index   ion index
                 1           1
                 2           2
                 3           3
                 4           4
                 5           5
                 6           6
                 7           7
                 8           8
                 9           9
                10          10
                11          11
                12          12
                13          13
                14          14
                15          15
                16          16
                17          17
                18          18

----------------------------------------------------------------------------------------

 
 
 KPOINTS: K-Point Grid                            

Automatic generation of k-mesh.
 Grid dimensions read from file:
 generate k-points for:    1    1    1

 Generating k-lattice:

  Cartesian coordinates                     Fractional coordinates (reciprocal lattice)
     0.025000000  0.000000000  0.000000000     1.000000000  0.000000000  0.000000000
     0.000000000  0.025000000  0.000000000     0.000000000  1.000000000  0.000000000
     0.000000000  0.000000000  0.025000000     0.000000000  0.000000000  1.000000000

  Length of vectors
     0.025000000  0.025000000  0.025000000

  Shift w.r.t. Gamma in fractional coordinates (k-lattice)
     0.000000000  0.000000000  0.000000000

 
 Subroutine IBZKPT returns following result:
 ===========================================
 
 Found      1 irreducible k-points:
 
 Following reciprocal coordinates:
            Coordinates               Weight
  0.000000  0.000000  0.000000      1.000000
 
 Following cartesian coordinates:
            Coordinates               Weight
  0.000000  0.000000  0.000000      1.000000
 


--------------------------------------------------------------------------------------------------------




 Dimension of arrays:
   k-points           NKPTS =      1   k-points in BZ     NKDIM =      1   number of bands    NBANDS=     40
   number of dos      NEDOS =    301   number of ions     NIONS =     18
   non local maximal  LDIM  =      4   non local SUM 2l+1 LMDIM =      8
   total plane-waves  NPLWV = ******
   max r-space proj   IRMAX =   2915   max aug-charges    IRDMAX=   4885
   dimension x,y,z NGX =   294 NGY =  294 NGZ =  294
   dimension x,y,z NGXF=   588 NGYF=  588 NGZF=  588
   support grid    NGXF=   588 NGYF=  588 NGZF=  588
   ions per type =               8  10
   NGX,Y,Z   is equivalent  to a cutoff of  12.22, 12.22, 12.22 a.u.
   NGXF,Y,Z  is equivalent  to a cutoff of  24.44, 24.44, 24.44 a.u.

 SYSTEM =  006_red                                 
 POSCAR =  C H                                     

 Startparameter for this run:
   NWRITE =      2    write-flag & timer
   PREC   = accura    normal or accurate (medium, high low for compatibility)
   ISTART =      1    job   : 0-new  1-cont  2-samecut
   ICHARG =      2    charge: 1-file 2-atom 10-const
   ISPIN  =      2    spin polarized calculation?
   LNONCOLLINEAR =      F non collinear calculations
   LSORBIT =      F    spin-orbit coupling
   INIWAV =      1    electr: 0-lowe 1-rand  2-diag
   LASPH  =      T    aspherical Exc in radial PAW
 Electronic Relaxation 1
   ENCUT  =  500.0 eV  36.75 Ry    6.06 a.u.  72.93 72.93 72.93*2*pi/ulx,y,z
   ENINI  =  500.0     initial cutoff
   ENAUG  =  644.9 eV  augmentation charge cutoff
   NELM   =    100;   NELMIN=  2; NELMDL=  0     # of ELM steps 
   EDIFF  = 0.1E-04   stopping-criterion for ELM
   LREAL  =      T    real-space projection
   NLSPLINE    = F    spline interpolate recip. space projectors
   LCOMPAT=      F    compatible to vasp.4.4
   GGA_COMPAT  = T    GGA compatible to vasp.4.4-vasp.4.6
   LMAXPAW     = -100 max onsite density
   LMAXMIX     =    2 max onsite mixed and CHGCAR
   VOSKOWN=      0    Vosko Wilk Nusair interpolation
   ROPT   =   -0.00025  -0.00025
 Ionic relaxation
   EDIFFG = -.2E-01   stopping-criterion for IOM
   NSW    =    500    number of steps for IOM
   NBLOCK =      1;   KBLOCK =    500    inner block; outer block 
   IBRION =      2    ionic relax: 0-MD 1-quasi-New 2-CG
   NFREE  =      1    steps in history (QN), initial steepest desc. (CG)
   ISIF   =      2    stress and relaxation
   IWAVPR =     11    prediction:  0-non 1-charg 2-wave 3-comb
   ISYM   =      2    0-nonsym 1-usesym 2-fastsym
   LCORR  =      T    Harris-Foulkes like correction to forces

   POTIM  = 0.5000    time-step for ionic-motion
   TEIN   =    0.0    initial temperature
   TEBEG  =    0.0;   TEEND  =   0.0 temperature during run
   SMASS  =  -3.00    Nose mass-parameter (am)
   estimated Nose-frequenzy (Omega)   =  0.10E-29 period in steps = 0.13E+47 mass=  -0.366E-25a.u.
   SCALEE = 1.0000    scale energy and forces
   NPACO  =    256;   APACO  = 10.0  distance and # of slots for P.C.
   PSTRESS=    0.0 pullay stress

  Mass of Ions in am
   POMASS =  12.01  1.00
  Ionic Valenz
   ZVAL   =   4.00  1.00
  Atomic Wigner-Seitz radii
   RWIGS  =  -1.00 -1.00
  virtual crystal weights 
   VCA    =   1.00  1.00
   NELECT =      42.0000    total number of electrons
   NUPDOWN=      -1.0000    fix difference up-down

 DOS related values:
   EMIN   =  10.00;   EMAX   =-10.00  energy-range for DOS
   EFERMI =   0.00
   ISMEAR =     0;   SIGMA  =   0.05  broadening in eV -4-tet -1-fermi 0-gaus

 Electronic relaxation 2 (details)
   IALGO  =     68    algorithm
   LDIAG  =      T    sub-space diagonalisation (order eigenvalues)
   LSUBROT=      F    optimize rotation matrix (better conditioning)
   TURBO    =      0    0=normal 1=particle mesh
   IRESTART =      0    0=no restart 2=restart with 2 vectors
   NREBOOT  =      0    no. of reboots
   NMIN     =      0    reboot dimension
   EREF     =   0.00    reference energy to select bands
   IMIX   =      4    mixing-type and parameters
     AMIX     =   0.40;   BMIX     =  1.00
     AMIX_MAG =   1.60;   BMIX_MAG =  1.00
     AMIN     =   0.10
     WC   =   100.;   INIMIX=   1;  MIXPRE=   1;  MAXMIX= -45

 Intra band minimization:
   WEIMIN = 0.0010     energy-eigenvalue tresh-hold
   EBREAK =  0.63E-07  absolut break condition
   DEPER  =   0.30     relativ break condition  

   TIME   =   0.40     timestep for ELM

  volume/ion in A,a.u.               =    3555.56     23994.07
  Fermi-wavevector in a.u.,A,eV,Ry     =   0.142265  0.268842  0.275373  0.020239
  Thomas-Fermi vector in A             =   0.804272
 
 Write flags
   LWAVE        =      T    write WAVECAR
   LDOWNSAMPLE  =      F    k-point downsampling of WAVECAR
   LCHARG       =      F    write CHGCAR
   LVTOT        =      F    write LOCPOT, total local potential
   LVHAR        =      F    write LOCPOT, Hartree potential only
   LELF         =      F    write electronic localiz. function (ELF)
   LORBIT       =      0    0 simple, 1 ext, 2 COOP (PROOUT), +10 PAW based schemes


 Dipole corrections
   LMONO  =      F    monopole corrections only (constant potential shift)
   LDIPOL =      F    correct potential (dipole corrections)
   IDIPOL =      0    1-x, 2-y, 3-z, 4-all directions 
   EPSILON=  1.0000000 bulk dielectric constant

 Exchange correlation treatment:
   GGA     =    --    GGA type
   LEXCH   =     8    internal setting for exchange type
   LIBXC   =     F    Libxc                    
   VOSKOWN =     0    Vosko Wilk Nusair interpolation
   LHFCALC =     F    Hartree Fock is set to
   LHFONE  =     F    Hartree Fock one center treatment
   AEXX    =    0.0000 exact exchange contribution

 Linear response parameters
   LEPSILON=     F    determine dielectric tensor
   LRPA    =     F    only Hartree local field effects (RPA)
   LNABLA  =     F    use nabla operator in PAW spheres
   LVEL    =     F    velocity operator in full k-point grid
   CSHIFT  =0.1000    complex shift for real part using Kramers Kronig
   OMEGAMAX=  -1.0    maximum frequency
   DEG_THRESHOLD= 0.2000000E-02 threshold for treating states as degnerate
   RTIME   =   -0.100 relaxation time in fs
  (WPLASMAI=    0.000 imaginary part of plasma frequency in eV, 0.658/RTIME)
   DFIELD  = 0.0000000 0.0000000 0.0000000 field for delta impulse in time
 
  Optional k-point grid parameters
   LKPOINTS_OPT  =     F    use optional k-point grid
   KPOINTS_OPT_MODE=     1    mode for optional k-point grid
 
 Orbital magnetization related:
   ORBITALMAG=     F  switch on orbital magnetization
   LCHIMAG   =     F  perturbation theory with respect to B field
   DQ        =  0.001000  dq finite difference perturbation B field
   LLRAUG    =     F  two centre corrections for induced B field

 Solvation model:
   LSOL             =     T         switch on solvation model
   LSOL_SCF         =     T         include solvation in SCF
   ISOL             =     2         solvation model type
   EFERMI_ref       =  0.000000         reference Fermi level
   capacitance_init =  1.000000         initial capacitance
 Nonlinear solvation model:
   LNLDIEL     =     T         switch on non-linear dielectric mode
   LNLION      =     T         switch on non-linear ionic mode
   LNLTEST     =     F         test non-linear model in linear regime
   I_NLOC_SOL  =     1         type of nonlocal dielectric response
   NC_K        =  0.015000     cutoff charge density for cavities (1/Angstrom**3)
   TAU         =  0.000879     cavity formation energy (eV/Angstrom**2)
   SIGMA_K     =  0.600000     cavity width
   A_K         =  0.125000     smoothing length (Angstrom)
   R_SOLV      =  2.190000     solvent radius (Angstrom)
   R_CAV       =  0.000000     cavity radius (Angstrom)
   R_DIEL      =  1.000000     dielectric radius (Angstrom)
   R_ION       =  0.000000     ionic radius (Angstrom)
   R_B         =  0.000000     bound charge radius (Angstrom)
   SOLTEMP     =298.000000     solvent temperature (K)
   EB_K        = 35.688000     relative permittivity of the bulk solvent
   EPSILON_INF =  1.806900     optical relative permittivity of bulk solvent
   N_MOL       =  0.011500     molar density of solvent (1/Angstrom**3)
   P_MOL       =  0.820000     solvent dipole moment (e*Angstrom)
   C_MOLAR     =  0.000000     electrolyte concentration (mol/L)
   LAMBDA_D_K  =  0.000000     Debye length (Angstrom)
   ZION        =  1.000000     charge of ions in electrolyte (e)
   D_ION       = -1.000000     minimum ion packing diameter (Angstrom)



--------------------------------------------------------------------------------------------------------


 conjugate gradient relaxation of ions
   using selective dynamics as specified on POSCAR
 charge density and potential will be updated during run
 spin polarized calculation
 RMM-DIIS sequential band-by-band and
  variant of blocked Davidson during initial phase
 perform sub-space diagonalisation
    before iterative eigenvector-optimisation
 modified Broyden-mixing scheme, WC =      100.0
 initial mixing is a Kerker type mixing with AMIX =  0.4000 and BMIX =      1.0000
 Hartree-type preconditioning will be used
 using additional bands           19
 real space projection scheme for non local part
 use partial core corrections
 calculate Harris-corrections to forces 
   (improved forces if not selfconsistent)
 use gradient corrections 
 use of overlap-Matrix (Vanderbilt PP)
 Gauss-broadening in eV      SIGMA  =   0.05


--------------------------------------------------------------------------------------------------------


  energy-cutoff  :      500.00
  volume of cell :    64000.00
      direct lattice vectors                 reciprocal lattice vectors
    40.000000000  0.000000000  0.000000000     0.025000000  0.000000000  0.000000000
     0.000000000 40.000000000  0.000000000     0.000000000  0.025000000  0.000000000
     0.000000000  0.000000000 40.000000000     0.000000000  0.000000000  0.025000000

  length of vectors
    40.000000000 40.000000000 40.000000000     0.025000000  0.025000000  0.025000000


 
 old parameters found on file WAVECAR:
  energy-cutoff  :      500.00
  volume of cell :    64000.00
      direct lattice vectors                 reciprocal lattice vectors
    40.000000000  0.000000000  0.000000000     0.025000000  0.000000000  0.000000000
     0.000000000 40.000000000  0.000000000     0.000000000  0.025000000  0.000000000
     0.000000000  0.000000000 40.000000000     0.000000000  0.000000000  0.025000000

  length of vectors

 
 k-points in units of 2pi/SCALE and weight: K-Point Grid                            
   0.00000000  0.00000000  0.00000000       1.000
 
 k-points in reciprocal lattice and weights: K-Point Grid                            
   0.00000000  0.00000000  0.00000000       1.000
 
 position of ions in fractional coordinates (direct lattice) 
   0.44480392  0.48261842  0.50000090
   0.47511453  0.46546160  0.50000037
   0.50566359  0.48238324  0.49999978
   0.53800470  0.46326767  0.49999867
   0.50566359  0.51761676  0.50000022
   0.53800470  0.53673133  0.50000033
   0.47511453  0.53453840  0.50000063
   0.44480392  0.51738158  0.50000110
   0.55319690  0.46937908  0.52192687
   0.53347190  0.43637578  0.50000088
   0.55319311  0.46937596  0.47806715
   0.55319590  0.53062092  0.47807113
   0.53347190  0.56362422  0.49999812
   0.55319411  0.53062404  0.52193185
   0.42141923  0.53112449  0.50000111
   0.47513312  0.56170327  0.50000102
   0.47513312  0.43829673  0.49999998
   0.42141923  0.46887551  0.50000089
 
 position of ions in cartesian coordinates  (Angst):
  17.79215685 19.30473685 20.00003585
  19.00458109 18.61846391 20.00001482
  20.22654340 19.29532958 19.99999139
  21.52018805 18.53070674 19.99994671
  20.22654340 20.70467042 20.00000861
  21.52018805 21.46925326 20.00001329
  19.00458109 21.38153609 20.00002518
  17.79215685 20.69526315 20.00004415
  22.12787593 18.77516337 20.87707493
  21.33887614 17.45503139 20.00003533
  22.12772452 18.77503828 19.12268610
  22.12783593 21.22483663 19.12284507
  21.33887614 22.54496861 19.99992467
  22.12776452 21.22496172 20.87727390
  16.85676912 21.24497971 20.00004426
  19.00532489 22.46813064 20.00004077
  19.00532489 17.53186936 19.99999923
  16.85676912 18.75502029 20.00003574
 


--------------------------------------------------------------------------------------------------------


 k-point   1 :   0.0000 0.0000 0.0000  plane waves: 1624525

 maximum and minimum number of plane-waves per node :    162473   162437

 maximum number of plane-waves:   1624525
 maximum index in each direction: 
   IXMAX=   72   IYMAX=   72   IZMAX=   72
   IXMIN=  -72   IYMIN=  -72   IZMIN=  -72


 real space projection operators:
  total allocation   :       1982.05 KBytes
  max/ min on nodes  :        202.97        190.92


 parallel 3D FFT for wavefunctions:
    minimum data exchange during FFTs selected (reduces bandwidth)
 parallel 3D FFT for charge:
    minimum data exchange during FFTs selected (reduces bandwidth)


 total amount of memory used by VASP MPI-rank0   864794. kBytes
=======================================================================

   base      :      30000. kBytes
   nonlr-proj:       1126. kBytes
   fftplans  :     167689. kBytes
   grid      :     639968. kBytes
   one-center:         12. kBytes
   wavefun   :      25999. kBytes
 
     INWAV:  cpu time      7.2727: real time      7.2949
 Broyden mixing: mesh for mixing (old mesh)
   NGX =145   NGY =145   NGZ =145
  (NGX  =588   NGY  =588   NGZ  =588)
  gives a total of ****** points

 initial charge density was supplied:
 charge density of overlapping atoms calculated
 number of electron      42.0000000 magnetization      18.0000000
 keeping initial charge density in first step


--------------------------------------------------------------------------------------------------------


 Maximum index for non-local projection operator          312
 Maximum index for augmentation-charges          286 (set IRDMAX)


--------------------------------------------------------------------------------------------------------


 First call to EWALD:  gamma=   0.044
 Maximum number of real-space cells 3x 3x 3
 Maximum number of reciprocal cells 3x 3x 3

    FEWALD:  cpu time      0.0036: real time      0.0036


--------------------------------------- Iteration      1(   1)  ---------------------------------------


    POTLOK:  cpu time      9.5493: real time      9.5707
    SETDIJ:  cpu time      0.4092: real time      0.4099
     EDDAV:  cpu time     48.9761: real time     49.0741
       DOS:  cpu time      0.0014: real time      0.0014
    CHARGE:  cpu time     48.8298: real time     48.9394
    MIXING:  cpu time      0.2387: real time      0.2390
    --------------------------------------------
      LOOP:  cpu time    108.0045: real time    108.2345

 eigenvalue-minimisations  :   224
 total energy-change (2. order) :-0.1093543E+03  (-0.8206141E+01)
 number of electron      41.9999993 magnetization      17.3064999
 augmentation part        1.0400286 magnetization      17.3258984

 Broyden mixing:
  rms(total) = 0.26796E+01    rms(broyden)= 0.26794E+01
  rms(prec ) = 0.27074E+01
  weight for this iteration     100.00

 Free energy of the ion-electron system (eV)
  ---------------------------------------------------
  alpha Z        PSCENC =         0.12380491
  Ewald energy   TEWEN  =      3985.04014781
  -Hartree energ DENC   =     -4803.32731570
  -exchange      EXHF   =         0.00000000
  -V(xc)+E(xc)   XCENC  =       156.86613355
  PAW double counting   =       862.38220565     -878.96983318
  entropy T*S    EENTRO =        -0.00000000
  eigenvalues    EBANDS =      -733.52114979
  atomic energy  EATOM  =      1302.05167215
  Solvation  Ecorr_sol  =         0.00000000
  ---------------------------------------------------
  free energy    TOTEN  =      -109.35433460 eV

  energy without entropy =     -109.35433460  energy(sigma->0) =     -109.35433460


--------------------------------------------------------------------------------------------------------




--------------------------------------- Iteration      1(   2)  ---------------------------------------


    --------------------------------------------
      INIT:  cpu time      0.2510: real time      0.2511
  FINALIZE:  cpu time     22.7165: real time     22.7489
    --------------------------------------------
    POTLOK:  cpu time     32.6063: real time     32.6619
    SETDIJ:  cpu time      0.4064: real time      0.4072
    EDDIAG:  cpu time      9.7000: real time      9.7191
  RMM-DIIS:  cpu time     53.7675: real time     53.8791
    ORTHCH:  cpu time      0.1091: real time      0.1094
       DOS:  cpu time      0.0010: real time      0.0010
    CHARGE:  cpu time     49.2205: real time     49.3550
    MIXING:  cpu time      0.1866: real time      0.1866
    --------------------------------------------
      LOOP:  cpu time    145.9973: real time    146.3194

 eigenvalue-minimisations  :   160
 total energy-change (2. order) : 0.1104419E+02  (-0.7739058E+01)
 number of electron      41.9999993 magnetization      16.5456938
 augmentation part        1.0367928 magnetization      16.5026192

 Broyden mixing:
  rms(total) = 0.12957E+01    rms(broyden)= 0.12957E+01
  rms(prec ) = 0.13164E+01
  weight for this iteration     100.00

 eigenvalues of (default mixing * dielectric matrix)
  average eigenvalue GAMMA=   0.9654
  0.9654

 Free energy of the ion-electron system (eV)
  ---------------------------------------------------
  alpha Z        PSCENC =         0.12380491
  Ewald energy   TEWEN  =      3985.04014781
  -Hartree energ DENC   =     -4891.52234522
  -exchange      EXHF   =         0.00000000
  -V(xc)+E(xc)   XCENC  =       170.03600545
  PAW double counting   =      1674.08430297    -1691.61243663
  entropy T*S    EENTRO =        -0.00000000
  eigenvalues    EBANDS =      -642.48502048
  atomic energy  EATOM  =      1302.05167215
  Solvation  Ecorr_sol  =        -4.02627228
  ---------------------------------------------------
  free energy    TOTEN  =       -98.31014131 eV

  energy without entropy =      -98.31014131  energy(sigma->0) =      -98.31014131


--------------------------------------------------------------------------------------------------------




--------------------------------------- Iteration      1(   3)  ---------------------------------------


    --------------------------------------------
      INIT:  cpu time      0.2513: real time      0.2515
  FINALIZE:  cpu time     27.1339: real time     27.1612
    --------------------------------------------
    POTLOK:  cpu time     37.0567: real time     37.1099
    SETDIJ:  cpu time      0.4069: real time      0.4076
    EDDIAG:  cpu time      9.5990: real time      9.6185
  RMM-DIIS:  cpu time     58.4718: real time     58.5987
    ORTHCH:  cpu time      0.1084: real time      0.1087
       DOS:  cpu time      0.0004: real time      0.0004
    CHARGE:  cpu time     49.4590: real time     49.5918
    MIXING:  cpu time      0.1972: real time      0.1973
    --------------------------------------------
      LOOP:  cpu time    155.2995: real time    155.6330

 eigenvalue-minimisations  :   173
 total energy-change (2. order) :-0.1759081E+02  (-0.3349172E+01)
 number of electron      41.9999993 magnetization      15.6406584
 augmentation part        1.0119236 magnetization      15.5823812

 Broyden mixing:
  rms(total) = 0.79290E+00    rms(broyden)= 0.79286E+00
  rms(prec ) = 0.80075E+00
  weight for this iteration     100.00

 eigenvalues of (default mixing * dielectric matrix)
  average eigenvalue GAMMA=   1.1172
  0.7957  1.4386

 Free energy of the ion-electron system (eV)
  ---------------------------------------------------
  alpha Z        PSCENC =         0.12380491
  Ewald energy   TEWEN  =      3985.04014781
  -Hartree energ DENC   =     -4958.11174530
  -exchange      EXHF   =         0.00000000
  -V(xc)+E(xc)   XCENC  =       159.58695181
  PAW double counting   =      2429.86370826    -2447.91103686
  entropy T*S    EENTRO =        -0.00000000
  eigenvalues    EBANDS =      -579.38774734
  atomic energy  EATOM  =      1302.05167215
  Solvation  Ecorr_sol  =        -7.15670387
  ---------------------------------------------------
  free energy    TOTEN  =      -115.90094842 eV

  energy without entropy =     -115.90094842  energy(sigma->0) =     -115.90094842


--------------------------------------------------------------------------------------------------------




--------------------------------------- Iteration      1(   4)  ---------------------------------------


    --------------------------------------------
      INIT:  cpu time      0.2496: real time      0.2499
  FINALIZE:  cpu time     27.1806: real time     27.2096
    --------------------------------------------
    POTLOK:  cpu time     37.0950: real time     37.1413
    SETDIJ:  cpu time      0.4093: real time      0.4102
    EDDIAG:  cpu time      9.7028: real time      9.7231
  RMM-DIIS:  cpu time     65.3238: real time     65.4611
    ORTHCH:  cpu time      0.1062: real time      0.1065
       DOS:  cpu time      0.0003: real time      0.0003
    CHARGE:  cpu time     49.2181: real time     49.3443
    MIXING:  cpu time      0.2003: real time      0.2004
    --------------------------------------------
      LOOP:  cpu time    162.0558: real time    162.3871

 eigenvalue-minimisations  :   202
 total energy-change (2. order) :-0.4983185E+01  (-0.1475067E+01)
 number of electron      41.9999993 magnetization      14.8138497
 augmentation part        0.9821598 magnetization      14.7650686

 Broyden mixing:
  rms(total) = 0.55064E+00    rms(broyden)= 0.55058E+00
  rms(prec ) = 0.55487E+00
  weight for this iteration     100.00

 eigenvalues of (default mixing * dielectric matrix)
  average eigenvalue GAMMA=   1.1808
  1.6591  1.1759  0.7074

 Free energy of the ion-electron system (eV)
  ---------------------------------------------------
  alpha Z        PSCENC =         0.12380491
  Ewald energy   TEWEN  =      3985.04014781
  -Hartree energ DENC   =     -5002.03837589
  -exchange      EXHF   =         0.00000000
  -V(xc)+E(xc)   XCENC  =       158.79140142
  PAW double counting   =      3109.64863421    -3127.71975298
  entropy T*S    EENTRO =        -0.00000000
  eigenvalues    EBANDS =      -537.49406380
  atomic energy  EATOM  =      1302.05167215
  Solvation  Ecorr_sol  =        -9.28760174
  ---------------------------------------------------
  free energy    TOTEN  =      -120.88413390 eV

  energy without entropy =     -120.88413390  energy(sigma->0) =     -120.88413390


--------------------------------------------------------------------------------------------------------




--------------------------------------- Iteration      1(   5)  ---------------------------------------


    --------------------------------------------
      INIT:  cpu time      0.2499: real time      0.2501
  FINALIZE:  cpu time     30.1137: real time     30.1009
    --------------------------------------------
    POTLOK:  cpu time     40.0382: real time     40.0446
    SETDIJ:  cpu time      0.4059: real time      0.4067
    EDDIAG:  cpu time      9.7081: real time      9.7298
  RMM-DIIS:  cpu time     75.1490: real time     75.3040
    ORTHCH:  cpu time      0.1092: real time      0.1095
       DOS:  cpu time      0.0005: real time      0.0005
    CHARGE:  cpu time     49.2433: real time     49.3722
    MIXING:  cpu time      0.2116: real time      0.2118
    --------------------------------------------
      LOOP:  cpu time    174.8658: real time    175.1791

 eigenvalue-minimisations  :   243
 total energy-change (2. order) :-0.2223506E+01  (-0.3393103E+00)
 number of electron      41.9999992 magnetization      13.4857627
 augmentation part        0.9754119 magnetization      13.4458362

 Broyden mixing:
  rms(total) = 0.36363E+00    rms(broyden)= 0.36361E+00
  rms(prec ) = 0.36610E+00
  weight for this iteration     100.00

 eigenvalues of (default mixing * dielectric matrix)
  average eigenvalue GAMMA=   1.3654
  2.2151  1.7150  0.8671  0.6643

 Free energy of the ion-electron system (eV)
  ---------------------------------------------------
  alpha Z        PSCENC =         0.12380491
  Ewald energy   TEWEN  =      3985.04014781
  -Hartree energ DENC   =     -5008.17939009
  -exchange      EXHF   =         0.00000000
  -V(xc)+E(xc)   XCENC  =       157.50109725
  PAW double counting   =      3387.73060053    -3405.64596605
  entropy T*S    EENTRO =        -0.00000000
  eigenvalues    EBANDS =      -532.48146736
  atomic energy  EATOM  =      1302.05167215
  Solvation  Ecorr_sol  =        -9.24813880
  ---------------------------------------------------
  free energy    TOTEN  =      -123.10763965 eV

  energy without entropy =     -123.10763965  energy(sigma->0) =     -123.10763965


--------------------------------------------------------------------------------------------------------




--------------------------------------- Iteration      1(   6)  ---------------------------------------


    --------------------------------------------
      INIT:  cpu time      0.2505: real time      0.2507
  FINALIZE:  cpu time     28.6811: real time     28.6644
    --------------------------------------------
    POTLOK:  cpu time     38.5901: real time     38.5962
    SETDIJ:  cpu time      0.4104: real time      0.4112
    EDDIAG:  cpu time      9.7015: real time      9.7212
  RMM-DIIS:  cpu time     73.8048: real time     73.9600
    ORTHCH:  cpu time      0.1024: real time      0.1026
       DOS:  cpu time      0.0031: real time      0.0031
    CHARGE:  cpu time     49.1388: real time     49.2829
    MIXING:  cpu time      0.2109: real time      0.2145
    --------------------------------------------
      LOOP:  cpu time    171.9620: real time    172.2917

 eigenvalue-minimisations  :   238
 total energy-change (2. order) :-0.2608368E+01  (-0.1920923E+00)
 number of electron      41.9999992 magnetization      12.8928610
 augmentation part        0.9741489 magnetization      12.8615993

 Broyden mixing:
  rms(total) = 0.19668E+00    rms(broyden)= 0.19667E+00
  rms(prec ) = 0.19777E+00
  weight for this iteration     100.00

 eigenvalues of (default mixing * dielectric matrix)
  average eigenvalue GAMMA=   1.3920
  2.7677  1.5396  1.1984  0.8015  0.6526

 Free energy of the ion-electron system (eV)
  ---------------------------------------------------
  alpha Z        PSCENC =         0.12380491
  Ewald energy   TEWEN  =      3985.04014781
  -Hartree energ DENC   =     -5014.70975449
  -exchange      EXHF   =         0.00000000
  -V(xc)+E(xc)   XCENC  =       155.65439955
  PAW double counting   =      3703.37330696    -3721.01411221
  entropy T*S    EENTRO =        -0.00000000
  eigenvalues    EBANDS =      -528.27474095
  atomic energy  EATOM  =      1302.05167215
  Solvation  Ecorr_sol  =        -7.96073170
  ---------------------------------------------------
  free energy    TOTEN  =      -125.71600797 eV

  energy without entropy =     -125.71600797  energy(sigma->0) =     -125.71600797


--------------------------------------------------------------------------------------------------------




--------------------------------------- Iteration      1(   7)  ---------------------------------------


    --------------------------------------------
      INIT:  cpu time      0.2491: real time      0.2487
  FINALIZE:  cpu time     30.3230: real time     30.3030
    --------------------------------------------
    POTLOK:  cpu time     40.2640: real time     40.2664
    SETDIJ:  cpu time      0.4078: real time      0.4085
    EDDIAG:  cpu time      9.6879: real time      9.7076
  RMM-DIIS:  cpu time     75.7048: real time     75.8597
    ORTHCH:  cpu time      0.1065: real time      0.1068
       DOS:  cpu time      0.0005: real time      0.0005
    CHARGE:  cpu time     49.3880: real time     49.4924
    MIXING:  cpu time      0.1906: real time      0.1909
    --------------------------------------------
      LOOP:  cpu time    175.7500: real time    176.0328

 eigenvalue-minimisations  :   244
 total energy-change (2. order) : 0.3784570E+00  (-0.5596215E-01)
 number of electron      41.9999992 magnetization      12.0078126
 augmentation part        0.9693057 magnetization      11.9809691

 Broyden mixing:
  rms(total) = 0.16766E+00    rms(broyden)= 0.16766E+00
  rms(prec ) = 0.16846E+00
  weight for this iteration     100.00

 eigenvalues of (default mixing * dielectric matrix)
  average eigenvalue GAMMA=   1.3075
  2.8088  1.6966  0.9779  0.9779  0.7365  0.6470

 Free energy of the ion-electron system (eV)
  ---------------------------------------------------
  alpha Z        PSCENC =         0.12380491
  Ewald energy   TEWEN  =      3985.04014781
  -Hartree energ DENC   =     -5020.66015997
  -exchange      EXHF   =         0.00000000
  -V(xc)+E(xc)   XCENC  =       156.39958263
  PAW double counting   =      3745.52225217    -3763.18268174
  entropy T*S    EENTRO =        -0.00000000
  eigenvalues    EBANDS =      -523.87632773
  atomic energy  EATOM  =      1302.05167215
  Solvation  Ecorr_sol  =        -6.75584124
  ---------------------------------------------------
  free energy    TOTEN  =      -125.33755099 eV

  energy without entropy =     -125.33755099  energy(sigma->0) =     -125.33755099


--------------------------------------------------------------------------------------------------------




--------------------------------------- Iteration      1(   8)  ---------------------------------------


    --------------------------------------------
      INIT:  cpu time      0.2491: real time      0.2485
  FINALIZE:  cpu time     28.7785: real time     28.7690
    --------------------------------------------
    POTLOK:  cpu time     38.6744: real time     38.6853
    SETDIJ:  cpu time      0.4085: real time      0.4092
    EDDIAG:  cpu time      9.6830: real time      9.7042
  RMM-DIIS:  cpu time     74.8952: real time     75.0653
    ORTHCH:  cpu time      0.1070: real time      0.1072
       DOS:  cpu time      0.0008: real time      0.0008
    CHARGE:  cpu time     49.1786: real time     49.3125
    MIXING:  cpu time      0.2026: real time      0.2028
    --------------------------------------------
      LOOP:  cpu time    173.1501: real time    173.4873

 eigenvalue-minimisations  :   242
 total energy-change (2. order) : 0.1531297E+01  (-0.6047697E-01)
 number of electron      41.9999992 magnetization       9.5142552
 augmentation part        0.9665544 magnetization       9.4918855

 Broyden mixing:
  rms(total) = 0.13068E+00    rms(broyden)= 0.13067E+00
  rms(prec ) = 0.13116E+00
  weight for this iteration     100.00

 eigenvalues of (default mixing * dielectric matrix)
  average eigenvalue GAMMA=   1.6597
  4.0854  2.6020  1.3705  1.3705  0.8378  0.7274  0.6242

 Free energy of the ion-electron system (eV)
  ---------------------------------------------------
  alpha Z        PSCENC =         0.12380491
  Ewald energy   TEWEN  =      3985.04014781
  -Hartree energ DENC   =     -5023.19964341
  -exchange      EXHF   =         0.00000000
  -V(xc)+E(xc)   XCENC  =       157.86551109
  PAW double counting   =      3702.36273950    -3720.02441129
  entropy T*S    EENTRO =        -0.00000000
  eigenvalues    EBANDS =      -523.09021144
  atomic energy  EATOM  =      1302.05167215
  Solvation  Ecorr_sol  =        -4.93586363
  ---------------------------------------------------
  free energy    TOTEN  =      -123.80625430 eV

  energy without entropy =     -123.80625430  energy(sigma->0) =     -123.80625430


--------------------------------------------------------------------------------------------------------




--------------------------------------- Iteration      1(   9)  ---------------------------------------


    --------------------------------------------
      INIT:  cpu time      0.2487: real time      0.2488
  FINALIZE:  cpu time     30.1790: real time     30.2111
    --------------------------------------------
    POTLOK:  cpu time     40.1217: real time     40.1733
    SETDIJ:  cpu time      0.4067: real time      0.4075
    EDDIAG:  cpu time      9.6763: real time      9.6960
  RMM-DIIS:  cpu time     75.5369: real time     75.6950
    ORTHCH:  cpu time      0.1045: real time      0.1048
       DOS:  cpu time      0.0033: real time      0.0033
    CHARGE:  cpu time     49.2544: real time     49.3937
    MIXING:  cpu time      0.2082: real time      0.2084
    --------------------------------------------
      LOOP:  cpu time    175.3120: real time    175.6819

 eigenvalue-minimisations  :   244
 total energy-change (2. order) : 0.2244867E+01  (-0.6092967E-01)
 number of electron      41.9999992 magnetization       9.0482886
 augmentation part        0.9658271 magnetization       9.0308822

 Broyden mixing:
  rms(total) = 0.75709E-01    rms(broyden)= 0.75706E-01
  rms(prec ) = 0.76095E-01
  weight for this iteration     100.00

 eigenvalues of (default mixing * dielectric matrix)
  average eigenvalue GAMMA=   1.7327
  5.5840  2.6092  1.6649  0.9125  0.9125  0.7752  0.7752  0.6279

 Free energy of the ion-electron system (eV)
  ---------------------------------------------------
  alpha Z        PSCENC =         0.12380491
  Ewald energy   TEWEN  =      3985.04014781
  -Hartree energ DENC   =     -5030.59888832
  -exchange      EXHF   =         0.00000000
  -V(xc)+E(xc)   XCENC  =       160.10934719
  PAW double counting   =      3647.97620496    -3665.62434388
  entropy T*S    EENTRO =        -0.00000000
  eigenvalues    EBANDS =      -520.44784062
  atomic energy  EATOM  =      1302.05167215
  Solvation  Ecorr_sol  =        -0.19149158
  ---------------------------------------------------
  free energy    TOTEN  =      -121.56138736 eV

  energy without entropy =     -121.56138736  energy(sigma->0) =     -121.56138736


--------------------------------------------------------------------------------------------------------




--------------------------------------- Iteration      1(  10)  ---------------------------------------


    --------------------------------------------
      INIT:  cpu time      0.2501: real time      0.2503
  FINALIZE:  cpu time     31.6312: real time     31.6587
    --------------------------------------------
    POTLOK:  cpu time     41.5391: real time     41.5921
    SETDIJ:  cpu time      0.4102: real time      0.4110
    EDDIAG:  cpu time      9.6821: real time      9.7019
  RMM-DIIS:  cpu time     75.4934: real time     75.6512
    ORTHCH:  cpu time      0.1088: real time      0.1091
       DOS:  cpu time      0.0003: real time      0.0003
    CHARGE:  cpu time     49.2719: real time     49.3983
    MIXING:  cpu time      0.2105: real time      0.2104
    --------------------------------------------
      LOOP:  cpu time    176.7163: real time    177.0744

 eigenvalue-minimisations  :   244
 total energy-change (2. order) : 0.2928351E+00  (-0.1485930E-01)
 number of electron      41.9999992 magnetization       8.1372434
 augmentation part        0.9639662 magnetization       8.1223926

 Broyden mixing:
  rms(total) = 0.59268E-01    rms(broyden)= 0.59267E-01
  rms(prec ) = 0.59622E-01
  weight for this iteration     100.00

 eigenvalues of (default mixing * dielectric matrix)
  average eigenvalue GAMMA=   1.7383
  6.2679  2.4632  1.5052  1.5052  0.9863  0.7707  0.7707  0.6259  0.7495

 Free energy of the ion-electron system (eV)
  ---------------------------------------------------
  alpha Z        PSCENC =         0.12380491
  Ewald energy   TEWEN  =      3985.04014781
  -Hartree energ DENC   =     -5032.25696961
  -exchange      EXHF   =         0.00000000
  -V(xc)+E(xc)   XCENC  =       160.48129447
  PAW double counting   =      3662.58708270    -3680.23881078
  entropy T*S    EENTRO =        -0.00000000
  eigenvalues    EBANDS =      -519.51490240
  atomic energy  EATOM  =      1302.05167215
  Solvation  Ecorr_sol  =         0.45812853
  ---------------------------------------------------
  free energy    TOTEN  =      -121.26855221 eV

  energy without entropy =     -121.26855221  energy(sigma->0) =     -121.26855221


--------------------------------------------------------------------------------------------------------




--------------------------------------- Iteration      1(  11)  ---------------------------------------


    --------------------------------------------
      INIT:  cpu time      0.2486: real time      0.2479
  FINALIZE:  cpu time     27.1845: real time     27.1991
    --------------------------------------------
    POTLOK:  cpu time     37.0972: real time     37.1288
    SETDIJ:  cpu time      0.4084: real time      0.4092
    EDDIAG:  cpu time      9.6898: real time      9.7097
  RMM-DIIS:  cpu time     75.8506: real time     76.0042
    ORTHCH:  cpu time      0.1072: real time      0.1075
       DOS:  cpu time      0.0005: real time      0.0005
    CHARGE:  cpu time     49.4004: real time     49.5071
    MIXING:  cpu time      0.2197: real time      0.2201
    --------------------------------------------
      LOOP:  cpu time    172.7737: real time    173.0870

 eigenvalue-minimisations  :   244
 total energy-change (2. order) : 0.1018641E+01  (-0.7696212E-02)
 number of electron      41.9999992 magnetization       6.9425829
 augmentation part        0.9641555 magnetization       6.9300634

 Broyden mixing:
  rms(total) = 0.45884E-01    rms(broyden)= 0.45883E-01
  rms(prec ) = 0.46061E-01
  weight for this iteration     100.00

 eigenvalues of (default mixing * dielectric matrix)
  average eigenvalue GAMMA=   1.9138
  7.5249  2.5199  2.5199  1.7196  0.9741  0.9741  0.7869  0.7869  0.6281  0.7030

 Free energy of the ion-electron system (eV)
  ---------------------------------------------------
  alpha Z        PSCENC =         0.12380491
  Ewald energy   TEWEN  =      3985.04014781
  -Hartree energ DENC   =     -5032.08343719
  -exchange      EXHF   =         0.00000000
  -V(xc)+E(xc)   XCENC  =       161.46032631
  PAW double counting   =      3674.70286128    -3692.33670634
  entropy T*S    EENTRO =        -0.00000000
  eigenvalues    EBANDS =      -520.66982510
  atomic energy  EATOM  =      1302.05167215
  Solvation  Ecorr_sol  =         1.46124502
  ---------------------------------------------------
  free energy    TOTEN  =      -120.24991114 eV

  energy without entropy =     -120.24991114  energy(sigma->0) =     -120.24991114


--------------------------------------------------------------------------------------------------------




--------------------------------------- Iteration      1(  12)  ---------------------------------------


    --------------------------------------------
      INIT:  cpu time      0.2500: real time      0.2497
  FINALIZE:  cpu time     27.2868: real time     27.2890
    --------------------------------------------
    POTLOK:  cpu time     37.1696: real time     37.1914
    SETDIJ:  cpu time      0.4095: real time      0.4103
    EDDIAG:  cpu time      9.7064: real time      9.7290
  RMM-DIIS:  cpu time     75.8619: real time     76.0138
    ORTHCH:  cpu time      0.1042: real time      0.1045
       DOS:  cpu time      0.0003: real time      0.0003
    CHARGE:  cpu time     49.2478: real time     49.3744
    MIXING:  cpu time      0.2295: real time      0.2297
    --------------------------------------------
      LOOP:  cpu time    172.7291: real time    173.0534

 eigenvalue-minimisations  :   244
 total energy-change (2. order) : 0.1173778E+01  (-0.7815367E-02)
 number of electron      41.9999992 magnetization       6.4348268
 augmentation part        0.9629417 magnetization       6.4244239

 Broyden mixing:
  rms(total) = 0.33465E-01    rms(broyden)= 0.33463E-01
  rms(prec ) = 0.33623E-01
  weight for this iteration     100.00

 eigenvalues of (default mixing * dielectric matrix)
  average eigenvalue GAMMA=   1.9000
  8.1312  3.0839  2.2678  1.6253  1.0801  1.0801  0.7861  0.7861  0.6311  0.7143
  0.7143

 Free energy of the ion-electron system (eV)
  ---------------------------------------------------
  alpha Z        PSCENC =         0.12380491
  Ewald energy   TEWEN  =      3985.04014781
  -Hartree energ DENC   =     -5032.82974573
  -exchange      EXHF   =         0.00000000
  -V(xc)+E(xc)   XCENC  =       162.62054566
  PAW double counting   =      3659.40137990    -3677.05362302
  entropy T*S    EENTRO =        -0.00000000
  eigenvalues    EBANDS =      -521.17297596
  atomic energy  EATOM  =      1302.05167215
  Solvation  Ecorr_sol  =         2.74266096
  ---------------------------------------------------
  free energy    TOTEN  =      -119.07613332 eV

  energy without entropy =     -119.07613332  energy(sigma->0) =     -119.07613332


--------------------------------------------------------------------------------------------------------




--------------------------------------- Iteration      1(  13)  ---------------------------------------


    --------------------------------------------
      INIT:  cpu time      0.2510: real time      0.2498
  FINALIZE:  cpu time     28.6871: real time     28.6701
    --------------------------------------------
    POTLOK:  cpu time     38.5882: real time     38.5903
    SETDIJ:  cpu time      0.4065: real time      0.4073
    EDDIAG:  cpu time      9.6948: real time      9.7213
  RMM-DIIS:  cpu time     75.6771: real time     75.8343
    ORTHCH:  cpu time      0.1058: real time      0.1060
       DOS:  cpu time      0.0012: real time      0.0012
    CHARGE:  cpu time     49.1983: real time     49.3099
    MIXING:  cpu time      0.2373: real time      0.2373
    --------------------------------------------
      LOOP:  cpu time    173.9091: real time    174.2076

 eigenvalue-minimisations  :   244
 total energy-change (2. order) : 0.4128540E+00  ( 0.3375585E-02)
 number of electron      41.9999992 magnetization       5.1617105
 augmentation part        0.9626801 magnetization       5.1520972

 Broyden mixing:
  rms(total) = 0.28896E-01    rms(broyden)= 0.28895E-01
  rms(prec ) = 0.28972E-01
  weight for this iteration     100.00

 eigenvalues of (default mixing * dielectric matrix)
  average eigenvalue GAMMA=   1.9793
  8.6680  3.4848  2.2374  1.8534  1.8534  1.0537  1.0537  0.7568  0.7568  0.7292
  0.6299  0.6743

 Free energy of the ion-electron system (eV)
  ---------------------------------------------------
  alpha Z        PSCENC =         0.12380491
  Ewald energy   TEWEN  =      3985.04014781
  -Hartree energ DENC   =     -5032.90118210
  -exchange      EXHF   =         0.00000000
  -V(xc)+E(xc)   XCENC  =       163.02944280
  PAW double counting   =      3655.04143346    -3672.69992916
  entropy T*S    EENTRO =        -0.00000000
  eigenvalues    EBANDS =      -521.33672298
  atomic energy  EATOM  =      1302.05167215
  Solvation  Ecorr_sol  =         2.98805383
  ---------------------------------------------------
  free energy    TOTEN  =      -118.66327928 eV

  energy without entropy =     -118.66327928  energy(sigma->0) =     -118.66327928


--------------------------------------------------------------------------------------------------------




--------------------------------------- Iteration      1(  14)  ---------------------------------------


    --------------------------------------------
      INIT:  cpu time      0.2509: real time      0.2501
  FINALIZE:  cpu time     28.6871: real time     28.6875
    --------------------------------------------
    POTLOK:  cpu time     38.5732: real time     38.5956
    SETDIJ:  cpu time      0.4073: real time      0.4081
    EDDIAG:  cpu time      9.7169: real time      9.7376
  RMM-DIIS:  cpu time     75.2381: real time     75.4018
    ORTHCH:  cpu time      0.1077: real time      0.1080
       DOS:  cpu time      0.0026: real time      0.0026
    CHARGE:  cpu time     49.3006: real time     49.4346
    MIXING:  cpu time      0.2457: real time      0.2462
    --------------------------------------------
      LOOP:  cpu time    173.5921: real time    173.9345

 eigenvalue-minimisations  :   244
 total energy-change (2. order) : 0.9363163E+00  ( 0.7908198E-02)
 number of electron      41.9999992 magnetization       4.5424267
 augmentation part        0.9620552 magnetization       4.5337660

 Broyden mixing:
  rms(total) = 0.22520E-01    rms(broyden)= 0.22519E-01
  rms(prec ) = 0.22615E-01
  weight for this iteration     100.00

 eigenvalues of (default mixing * dielectric matrix)
  average eigenvalue GAMMA=   2.0854
  9.5668  4.6996  2.5188  2.1674  1.5465  1.1218  1.1218  0.8401  0.7531  0.7531
  0.7480  0.6310  0.6428

 Free energy of the ion-electron system (eV)
  ---------------------------------------------------
  alpha Z        PSCENC =         0.12380491
  Ewald energy   TEWEN  =      3985.04014781
  -Hartree energ DENC   =     -5032.28429674
  -exchange      EXHF   =         0.00000000
  -V(xc)+E(xc)   XCENC  =       163.93718576
  PAW double counting   =      3663.63384818    -3681.28814531
  entropy T*S    EENTRO =        -0.00000000
  eigenvalues    EBANDS =      -522.22629924
  atomic energy  EATOM  =      1302.05167215
  Solvation  Ecorr_sol  =         3.28511951
  ---------------------------------------------------
  free energy    TOTEN  =      -117.72696296 eV

  energy without entropy =     -117.72696296  energy(sigma->0) =     -117.72696296


--------------------------------------------------------------------------------------------------------




--------------------------------------- Iteration      1(  15)  ---------------------------------------


    --------------------------------------------
      INIT:  cpu time      0.2530: real time      0.2531
  FINALIZE:  cpu time     27.1325: real time     27.1538
    --------------------------------------------
    POTLOK:  cpu time     37.0091: real time     37.0534
    SETDIJ:  cpu time      0.4068: real time      0.4075
    EDDIAG:  cpu time      9.7083: real time      9.7282
  RMM-DIIS:  cpu time     75.3812: real time     75.5357
    ORTHCH:  cpu time      0.1060: real time      0.1063
       DOS:  cpu time      0.0028: real time      0.0028
    CHARGE:  cpu time     49.0803: real time     49.2116
    MIXING:  cpu time      0.2554: real time      0.2556
    --------------------------------------------
      LOOP:  cpu time    171.9498: real time    172.3011

 eigenvalue-minimisations  :   244
 total energy-change (2. order) : 0.3199554E+00  (-0.5628173E-04)
 number of electron      41.9999992 magnetization       3.8032766
 augmentation part        0.9618006 magnetization       3.7954596

 Broyden mixing:
  rms(total) = 0.19602E-01    rms(broyden)= 0.19601E-01
  rms(prec ) = 0.19646E-01
  weight for this iteration     100.00

 eigenvalues of (default mixing * dielectric matrix)
  average eigenvalue GAMMA=   2.0935
 10.0369  5.2044  2.6000  2.1373  1.4756  1.4756  1.1530  0.8796  0.8796  0.7745
  0.7098  0.7098  0.6293  0.6435

 Free energy of the ion-electron system (eV)
  ---------------------------------------------------
  alpha Z        PSCENC =         0.12380491
  Ewald energy   TEWEN  =      3985.04014781
  -Hartree energ DENC   =     -5031.65980856
  -exchange      EXHF   =         0.00000000
  -V(xc)+E(xc)   XCENC  =       164.22894685
  PAW double counting   =      3664.94509624    -3682.59386774
  entropy T*S    EENTRO =        -0.00000000
  eigenvalues    EBANDS =      -522.90470380
  atomic energy  EATOM  =      1302.05167215
  Solvation  Ecorr_sol  =         3.36170452
  ---------------------------------------------------
  free energy    TOTEN  =      -117.40700761 eV

  energy without entropy =     -117.40700761  energy(sigma->0) =     -117.40700761


--------------------------------------------------------------------------------------------------------




--------------------------------------- Iteration      1(  16)  ---------------------------------------


    --------------------------------------------
      INIT:  cpu time      0.2508: real time      0.2496
  FINALIZE:  cpu time     28.7887: real time     28.7662
    --------------------------------------------
    POTLOK:  cpu time     38.6821: real time     38.6786
    SETDIJ:  cpu time      0.4062: real time      0.4070
    EDDIAG:  cpu time      9.7192: real time      9.7394
  RMM-DIIS:  cpu time     75.5158: real time     75.6711
    ORTHCH:  cpu time      0.1035: real time      0.1038
       DOS:  cpu time      0.0038: real time      0.0038
    CHARGE:  cpu time     49.3327: real time     49.4519
    MIXING:  cpu time      0.2678: real time      0.2683
    --------------------------------------------
      LOOP:  cpu time    174.0312: real time    174.3239

 eigenvalue-minimisations  :   244
 total energy-change (2. order) : 0.4230268E+00  (-0.2778222E-02)
 number of electron      41.9999992 magnetization       2.5103753
 augmentation part        0.9615172 magnetization       2.5036464

 Broyden mixing:
  rms(total) = 0.16958E-01    rms(broyden)= 0.16957E-01
  rms(prec ) = 0.16987E-01
  weight for this iteration     100.00

 eigenvalues of (default mixing * dielectric matrix)
  average eigenvalue GAMMA=   2.1699
 10.5890  5.8091  2.8444  2.5095  1.6848  1.6848  1.1277  1.1277  0.9368  0.7520
  0.7520  0.7346  0.7346  0.6303  0.6303

 Free energy of the ion-electron system (eV)
  ---------------------------------------------------
  alpha Z        PSCENC =         0.12380491
  Ewald energy   TEWEN  =      3985.04014781
  -Hartree energ DENC   =     -5030.87282033
  -exchange      EXHF   =         0.00000000
  -V(xc)+E(xc)   XCENC  =       164.62477908
  PAW double counting   =      3664.33014307    -3681.97170638
  entropy T*S    EENTRO =        -0.00000000
  eigenvalues    EBANDS =      -523.57261605
  atomic energy  EATOM  =      1302.05167215
  Solvation  Ecorr_sol  =         3.26261492
  ---------------------------------------------------
  free energy    TOTEN  =      -116.98398081 eV

  energy without entropy =     -116.98398081  energy(sigma->0) =     -116.98398081


--------------------------------------------------------------------------------------------------------




--------------------------------------- Iteration      1(  17)  ---------------------------------------


    --------------------------------------------
      INIT:  cpu time      0.2524: real time      0.2519
  FINALIZE:  cpu time     28.6849: real time     28.6735
    --------------------------------------------
    POTLOK:  cpu time     38.5696: real time     38.5804
    SETDIJ:  cpu time      0.4066: real time      0.4074
    EDDIAG:  cpu time      9.7234: real time      9.7442
  RMM-DIIS:  cpu time     75.9753: real time     76.1492
    ORTHCH:  cpu time      0.1036: real time      0.1039
       DOS:  cpu time      0.0003: real time      0.0003
    CHARGE:  cpu time     49.3518: real time     49.4770
    MIXING:  cpu time      0.2741: real time      0.2741
    --------------------------------------------
      LOOP:  cpu time    174.4047: real time    174.7365

 eigenvalue-minimisations  :   244
 total energy-change (2. order) : 0.7291546E+00  ( 0.1139043E-02)
 number of electron      41.9999992 magnetization       1.6784835
 augmentation part        0.9611923 magnetization       1.6723451

 Broyden mixing:
  rms(total) = 0.14828E-01    rms(broyden)= 0.14827E-01
  rms(prec ) = 0.14872E-01
  weight for this iteration     100.00

 eigenvalues of (default mixing * dielectric matrix)
  average eigenvalue GAMMA=   2.2470
 11.3373  6.6437  3.5493  2.6498  1.8587  1.4197  1.4197  1.1853  0.8919  0.8919
  0.6875  0.6875  0.7318  0.7318  0.6255  0.6404

 Free energy of the ion-electron system (eV)
  ---------------------------------------------------
  alpha Z        PSCENC =         0.12380491
  Ewald energy   TEWEN  =      3985.04014781
  -Hartree energ DENC   =     -5030.02265738
  -exchange      EXHF   =         0.00000000
  -V(xc)+E(xc)   XCENC  =       165.33001535
  PAW double counting   =      3662.73318969    -3680.37049755
  entropy T*S    EENTRO =        -0.00000000
  eigenvalues    EBANDS =      -524.10980981
  atomic energy  EATOM  =      1302.05167215
  Solvation  Ecorr_sol  =         2.96930859
  ---------------------------------------------------
  free energy    TOTEN  =      -116.25482625 eV

  energy without entropy =     -116.25482625  energy(sigma->0) =     -116.25482625


--------------------------------------------------------------------------------------------------------




--------------------------------------- Iteration      1(  18)  ---------------------------------------


    --------------------------------------------
      INIT:  cpu time      0.2510: real time      0.2503
  FINALIZE:  cpu time     27.3037: real time     27.2925
    --------------------------------------------
    POTLOK:  cpu time     37.2172: real time     37.2258
    SETDIJ:  cpu time      0.4055: real time      0.4063
    EDDIAG:  cpu time      9.7204: real time      9.7397
  RMM-DIIS:  cpu time     75.7087: real time     75.8671
    ORTHCH:  cpu time      0.1087: real time      0.1090
       DOS:  cpu time      0.0029: real time      0.0029
    CHARGE:  cpu time     49.4048: real time     49.5353
    MIXING:  cpu time      0.2876: real time      0.2879
    --------------------------------------------
      LOOP:  cpu time    172.8559: real time    173.1740

 eigenvalue-minimisations  :   244
 total energy-change (2. order) : 0.3911709E+00  (-0.1192489E-02)
 number of electron      41.9999992 magnetization       0.8914128
 augmentation part        0.9606486 magnetization       0.8859035

 Broyden mixing:
  rms(total) = 0.94031E-02    rms(broyden)= 0.94020E-02
  rms(prec ) = 0.94340E-02
  weight for this iteration     100.00

 eigenvalues of (default mixing * dielectric matrix)
  average eigenvalue GAMMA=   2.4025
 12.9034  7.7938  4.2481  2.4100  2.4100  1.5407  1.5407  1.0832  1.0832  0.8564
  0.8564  0.7138  0.7138  0.7520  0.6209  0.6577  0.6577

 Free energy of the ion-electron system (eV)
  ---------------------------------------------------
  alpha Z        PSCENC =         0.12380491
  Ewald energy   TEWEN  =      3985.04014781
  -Hartree energ DENC   =     -5029.92159334
  -exchange      EXHF   =         0.00000000
  -V(xc)+E(xc)   XCENC  =       165.72801096
  PAW double counting   =      3659.95895398    -3677.60147108
  entropy T*S    EENTRO =        -0.00000000
  eigenvalues    EBANDS =      -524.04683600
  atomic energy  EATOM  =      1302.05167215
  Solvation  Ecorr_sol  =         2.80365522
  ---------------------------------------------------
  free energy    TOTEN  =      -115.86365539 eV

  energy without entropy =     -115.86365539  energy(sigma->0) =     -115.86365539


--------------------------------------------------------------------------------------------------------




--------------------------------------- Iteration      1(  19)  ---------------------------------------


    --------------------------------------------
      INIT:  cpu time      0.2514: real time      0.2517
  FINALIZE:  cpu time     25.7305: real time     25.7269
    --------------------------------------------
    POTLOK:  cpu time     35.6889: real time     35.7032
    SETDIJ:  cpu time      0.4051: real time      0.4059
    EDDIAG:  cpu time      9.7087: real time      9.7293
  RMM-DIIS:  cpu time     75.5656: real time     75.7198
    ORTHCH:  cpu time      0.1079: real time      0.1082
       DOS:  cpu time      0.0003: real time      0.0003
    CHARGE:  cpu time     49.5937: real time     49.7465
    MIXING:  cpu time      0.3036: real time      0.3040
    --------------------------------------------
      LOOP:  cpu time    171.3738: real time    171.7172

 eigenvalue-minimisations  :   244
 total energy-change (2. order) : 0.3195347E+00  ( 0.1051567E-02)
 number of electron      41.9999992 magnetization       0.3695275
 augmentation part        0.9605262 magnetization       0.3642536

 Broyden mixing:
  rms(total) = 0.61573E-02    rms(broyden)= 0.61569E-02
  rms(prec ) = 0.61922E-02
  weight for this iteration     100.00

 eigenvalues of (default mixing * dielectric matrix)
  average eigenvalue GAMMA=   2.6746
 16.9857  8.8518  4.8705  2.5262  2.5262  1.6376  1.4530  1.4530  1.0065  1.0065
  0.9770  0.7583  0.7583  0.7085  0.7085  0.6693  0.6164  0.6297

 Free energy of the ion-electron system (eV)
  ---------------------------------------------------
  alpha Z        PSCENC =         0.12380491
  Ewald energy   TEWEN  =      3985.04014781
  -Hartree energ DENC   =     -5029.85821618
  -exchange      EXHF   =         0.00000000
  -V(xc)+E(xc)   XCENC  =       166.05435169
  PAW double counting   =      3660.92766165    -3678.57198838
  entropy T*S    EENTRO =        -0.00000000
  eigenvalues    EBANDS =      -523.99139269
  atomic energy  EATOM  =      1302.05167215
  Solvation  Ecorr_sol  =         2.67983836
  ---------------------------------------------------
  free energy    TOTEN  =      -115.54412068 eV

  energy without entropy =     -115.54412068  energy(sigma->0) =     -115.54412068


--------------------------------------------------------------------------------------------------------




--------------------------------------- Iteration      1(  20)  ---------------------------------------


    --------------------------------------------
      INIT:  cpu time      0.2521: real time      0.2522
  FINALIZE:  cpu time     28.7365: real time     28.7709
    --------------------------------------------
    POTLOK:  cpu time     38.6765: real time     38.7273
    SETDIJ:  cpu time      0.4112: real time      0.4120
    EDDIAG:  cpu time      9.7223: real time      9.7413
  RMM-DIIS:  cpu time     75.4659: real time     75.6233
    ORTHCH:  cpu time      0.1079: real time      0.1082
       DOS:  cpu time      0.0003: real time      0.0002
    CHARGE:  cpu time     49.4834: real time     49.6226
    MIXING:  cpu time      0.3119: real time      0.3119
    --------------------------------------------
      LOOP:  cpu time    174.1794: real time    174.5468

 eigenvalue-minimisations  :   244
 total energy-change (2. order) : 0.1968258E+00  ( 0.7716113E-03)
 number of electron      41.9999992 magnetization       0.1430693
 augmentation part        0.9605352 magnetization       0.1378734

 Broyden mixing:
  rms(total) = 0.35654E-02    rms(broyden)= 0.35650E-02
  rms(prec ) = 0.36065E-02
  weight for this iteration     100.00

 eigenvalues of (default mixing * dielectric matrix)
  average eigenvalue GAMMA=   2.8704
 20.8287  9.2789  5.1984  2.7267  2.7267  1.9879  1.4927  1.4927  1.1563  0.9795
  0.9795  0.8954  0.7238  0.7238  0.7184  0.7184  0.6658  0.6151  0.6281

 Free energy of the ion-electron system (eV)
  ---------------------------------------------------
  alpha Z        PSCENC =         0.12380491
  Ewald energy   TEWEN  =      3985.04014781
  -Hartree energ DENC   =     -5029.69599325
  -exchange      EXHF   =         0.00000000
  -V(xc)+E(xc)   XCENC  =       166.24718969
  PAW double counting   =      3661.13786077    -3678.77959373
  entropy T*S    EENTRO =        -0.00000000
  eigenvalues    EBANDS =      -524.09902820
  atomic energy  EATOM  =      1302.05167215
  Solvation  Ecorr_sol  =         2.62664495
  ---------------------------------------------------
  free energy    TOTEN  =      -115.34729490 eV

  energy without entropy =     -115.34729490  energy(sigma->0) =     -115.34729490


--------------------------------------------------------------------------------------------------------




--------------------------------------- Iteration      1(  21)  ---------------------------------------


    --------------------------------------------
      INIT:  cpu time      0.2523: real time      0.2514
[...]


    --------------------------------------------
      INIT:  cpu time      0.2487: real time      0.2489
  FINALIZE:  cpu time     41.1162: real time     41.1665
    --------------------------------------------
    POTLOK:  cpu time     51.0696: real time     51.1381
    SETDIJ:  cpu time      0.4070: real time      0.4077
     EDDAV:  cpu time     49.0691: real time     49.1725
       DOS:  cpu time      0.0002: real time      0.0002
    CHARGE:  cpu time     49.4651: real time     49.5971
    MIXING:  cpu time      0.2423: real time      0.2425
    --------------------------------------------
      LOOP:  cpu time    150.2534: real time    150.5583

 eigenvalue-minimisations  :   224
 total energy-change (2. order) :-0.1816703E-04  (-0.6081334E-04)
 number of electron      41.9999992 magnetization       0.0000018
 augmentation part        0.9615823 magnetization       0.0000018

 Broyden mixing:
  rms(total) = 0.85988E-03    rms(broyden)= 0.85937E-03
  rms(prec ) = 0.87846E-03
  weight for this iteration     100.00

 Free energy of the ion-electron system (eV)
  ---------------------------------------------------
  alpha Z        PSCENC =         0.12380491
  Ewald energy   TEWEN  =      3989.05414849
  -Hartree energ DENC   =     -5033.54738337
  -exchange      EXHF   =         0.00000000
  -V(xc)+E(xc)   XCENC  =       166.51656061
  PAW double counting   =      3675.04696641    -3692.69508707
  entropy T*S    EENTRO =        -0.00000000
  eigenvalues    EBANDS =      -524.43982291
  atomic energy  EATOM  =      1302.05167215
  Solvation  Ecorr_sol  =         2.73722623
  ---------------------------------------------------
  free energy    TOTEN  =      -115.15191454 eV

  energy without entropy =     -115.15191454  energy(sigma->0) =     -115.15191454


--------------------------------------------------------------------------------------------------------




--------------------------------------- Iteration      7(   2)  ---------------------------------------


    --------------------------------------------
      INIT:  cpu time      0.2505: real time      0.2505
  FINALIZE:  cpu time     27.2406: real time     27.2963
    --------------------------------------------
    POTLOK:  cpu time     37.2466: real time     37.3272
    SETDIJ:  cpu time      0.4082: real time      0.4090
    EDDIAG:  cpu time      9.7144: real time      9.7354
  RMM-DIIS:  cpu time     45.6115: real time     45.7048
    ORTHCH:  cpu time      0.1086: real time      0.1089
       DOS:  cpu time      0.0006: real time      0.0006
    --------------------------------------------
      LOOP:  cpu time     93.0899: real time     93.2859

 eigenvalue-minimisations  :   118
 total energy-change (2. order) : 0.1719927E-05  (-0.8781795E-06)
 number of electron      41.9999992 magnetization       0.0000018
 augmentation part        0.9615823 magnetization       0.0000018

 Free energy of the ion-electron system (eV)
  ---------------------------------------------------
  alpha Z        PSCENC =         0.12380491
  Ewald energy   TEWEN  =      3989.05414849
  -Hartree energ DENC   =     -5033.52668422
  -exchange      EXHF   =         0.00000000
  -V(xc)+E(xc)   XCENC  =       166.51560725
  PAW double counting   =      3675.05983276    -3692.70764183
  entropy T*S    EENTRO =        -0.00000000
  eigenvalues    EBANDS =      -524.46068415
  atomic energy  EATOM  =      1302.05167215
  Solvation  Ecorr_sol  =         2.73803181
  ---------------------------------------------------
  free energy    TOTEN  =      -115.15191282 eV

  energy without entropy =     -115.15191282  energy(sigma->0) =     -115.15191282


--------------------------------------------------------------------------------------------------------




 average (electrostatic) potential at core
  the test charge radii are     0.6991  0.5201
  (the norm of the test charge is              1.0000)
       1 -60.7060       2 -60.6945       3 -60.9220       4 -60.5113       5 -60.9222
       6 -60.5108       7 -60.6944       8 -60.7060       9 -44.0844      10 -44.0618
      11 -44.0879      12 -44.0857      13 -44.0599      14 -44.0865      15 -44.2523
      16 -44.2390      17 -44.2391      18 -44.2523
 
 
 
 E-fermi :  -5.7246     XC(G=0):  -0.0318     alpha+bet : -0.0168

 Fermi energy:        -5.7245951547

 spin component 1

 k-point     1 :       0.0000    0.0000    0.0000
  band No.  band energies     occupation 
      1     -22.4709      1.00000
      2     -20.2521      1.00000
      3     -19.8448      1.00000
      4     -18.0777      1.00000
      5     -17.4078      1.00000
      6     -15.3226      1.00000
      7     -14.7110      1.00000
      8     -12.7273      1.00000
      9     -11.9365      1.00000
     10     -11.2677      1.00000
     11     -11.0113      1.00000
     12     -10.3275      1.00000
     13     -10.0972      1.00000
     14     -10.0235      1.00000
     15      -9.6465      1.00000
     16      -9.5728      1.00000
     17      -8.8571      1.00000
     18      -8.2204      1.00000
     19      -8.2077      1.00000
     20      -6.2570      1.00000
     21      -5.9910      1.00000
     22      -0.8250      0.00000
     23      -0.8077      0.00000
     24      -0.0475      0.00000
     25       0.0271      0.00000
     26       0.0930      0.00000
     27       0.0964      0.00000
     28       0.0981      0.00000
     29       0.1001      0.00000
     30       0.1003      0.00000
     31       0.1430      0.00000
     32       0.1717      0.00000
     33       0.1820      0.00000
     34       0.1883      0.00000
     35       0.1923      0.00000
     36       0.1928      0.00000
     37       0.1931      0.00000
     38       0.1940      0.00000
     39       0.1944      0.00000
     40       0.1946      0.00000
 Fermi energy:        -5.7245951547

 spin component 2

 k-point     1 :       0.0000    0.0000    0.0000
  band No.  band energies     occupation 
      1     -22.4709      1.00000
      2     -20.2521      1.00000
      3     -19.8448      1.00000
      4     -18.0777      1.00000
      5     -17.4078      1.00000
      6     -15.3226      1.00000
      7     -14.7110      1.00000
      8     -12.7273      1.00000
      9     -11.9365      1.00000
     10     -11.2677      1.00000
     11     -11.0113      1.00000
     12     -10.3275      1.00000
     13     -10.0972      1.00000
     14     -10.0235      1.00000
     15      -9.6465      1.00000
     16      -9.5728      1.00000
     17      -8.8571      1.00000
     18      -8.2204      1.00000
     19      -8.2077      1.00000
     20      -6.2570      1.00000
     21      -5.9910      1.00000
     22      -0.8250      0.00000
     23      -0.8077      0.00000
     24      -0.0477      0.00000
     25       0.0263      0.00000
     26       0.0935      0.00000
     27       0.0968      0.00000
     28       0.0985      0.00000
     29       0.1017      0.00000
     30       0.1020      0.00000
     31       0.1361      0.00000
     32       0.1701      0.00000
     33       0.1804      0.00000
     34       0.1860      0.00000
     35       0.1935      0.00000
     36       0.1939      0.00000
     37       0.1956      0.00000
     38       0.1957      0.00000
     39       0.1959      0.00000
     40       0.1962      0.00000


--------------------------------------------------------------------------------------------------------


 soft charge-density along one line, spin component           1
         0         1         2         3         4         5         6         7         8         9
 total charge-density along one line
 
 soft charge-density along one line, spin component           2
         0         1         2         3         4         5         6         7         8         9
 total charge-density along one line
 
 pseudopotential strength for first ion, spin component:           1
 10.437  13.878  -0.001   0.000  -0.002   0.001  -0.000   0.001
 13.878  18.452  -0.002   0.000  -0.002   0.001  -0.000   0.001
 -0.001  -0.002  -4.361  -0.000   0.004   8.456   0.000  -0.006
  0.000   0.000  -0.000  -4.297   0.000   0.000   8.360  -0.000
 -0.002  -0.002   0.004   0.000  -4.356  -0.006  -0.000   8.449
  0.001   0.001   8.456   0.000  -0.006 -18.665  -0.000   0.008
 -0.000  -0.000   0.000   8.360  -0.000  -0.000 -18.536   0.000
  0.001   0.001  -0.006  -0.000   8.449   0.008   0.000 -18.654
 pseudopotential strength for first ion, spin component:           2
 10.437  13.878  -0.001   0.000  -0.002   0.001  -0.000   0.001
 13.878  18.452  -0.002   0.000  -0.002   0.001  -0.000   0.001
 -0.001  -0.002  -4.361  -0.000   0.004   8.456   0.000  -0.006
  0.000   0.000  -0.000  -4.297   0.000   0.000   8.360  -0.000
 -0.002  -0.002   0.004   0.000  -4.356  -0.006  -0.000   8.449
  0.001   0.001   8.456   0.000  -0.006 -18.665  -0.000   0.008
 -0.000  -0.000   0.000   8.360  -0.000  -0.000 -18.536   0.000
  0.001   0.001  -0.006  -0.000   8.449   0.008   0.000 -18.654
 total augmentation occupancy for first ion, spin component:           1
  8.855  -3.999   0.141   0.000   0.239   0.027   0.000   0.047
 -3.999   1.846  -0.088   0.000  -0.151  -0.016   0.000  -0.028
  0.141  -0.088   1.870   0.000  -0.047   0.181   0.000  -0.008
  0.000   0.000   0.000   1.176   0.000   0.000   0.079   0.000
  0.239  -0.151  -0.047   0.000   1.812  -0.008   0.000   0.172
  0.027  -0.016   0.181   0.000  -0.008   0.019   0.000  -0.001
  0.000   0.000   0.000   0.079   0.000   0.000   0.005   0.000
  0.047  -0.028  -0.008   0.000   0.172  -0.001   0.000   0.017
 total augmentation occupancy for first ion, spin component:           2
  0.000  -0.000  -0.000   0.000   0.000  -0.000   0.000   0.000
 -0.000   0.000   0.000   0.000  -0.000   0.000   0.000  -0.000
 -0.000   0.000   0.000   0.000   0.000  -0.000   0.000   0.000
  0.000   0.000   0.000  -0.000   0.000   0.000  -0.000   0.000
  0.000  -0.000   0.000   0.000  -0.000   0.000   0.000   0.000
 -0.000   0.000  -0.000   0.000   0.000  -0.000   0.000  -0.000
  0.000   0.000   0.000  -0.000   0.000   0.000  -0.000   0.000
  0.000  -0.000   0.000   0.000   0.000  -0.000   0.000   0.000


------------------------ aborting loop because EDIFF is reached ----------------------------------------


    CHARGE:  cpu time      5.9288: real time      5.9527
    FORLOC:  cpu time      0.3220: real time      0.3222
    FORNL :  cpu time      3.9148: real time      3.9361
    STRESS:  cpu time    140.6192: real time    140.9333
    FORCOR:  cpu time      7.5574: real time      7.5670
    FORHAR:  cpu time      0.8092: real time      0.8093
    MIXING:  cpu time      0.1022: real time      0.1024
    OFIELD:  cpu time      0.0000: real time      0.0000

 ---------------------------------------------------------------------------------------------

         DFTD3 V3.0 Rev 1        
 Edisp (eV)   -0.14517

 E6    (eV) :    -0.1142
 E8    (eV) :    -0.0310
 % E8        : 21.35
    FORVDW:  cpu time      0.0061: real time      0.0061

  FORCE on cell =-STRESS in cart. coord.  units (eV):
  Direction    XX          YY          ZZ          XY          YZ          ZX
  --------------------------------------------------------------------------------------
  Alpha Z     0.12380     0.12380     0.12380
  Ewald    2210.24331  1871.73767   -92.92730     0.00065     0.02093    -0.03469
  Hartree  2299.01647  2015.22651   716.69257    -0.00113     0.00693    -0.00980
  E(xc)    -151.23257  -151.46071  -153.05956    -0.00002    -0.00002     0.00009
  Local   -4884.86225 -4256.72401 -1049.30916     0.00206    -0.02415     0.03960
  n-local   -53.07288   -54.26764   -50.80519    -0.00009    -0.00003    -0.00074
  augment    -2.47030    -2.54466    -2.16823    -0.00001    -0.00001     0.00003
  Kinetic   582.05871   577.78555   631.25727    -0.00021    -0.00035     0.00244
  Fock        0.00000     0.00000     0.00000     0.00000     0.00000     0.00000
  vdW        -0.05186    -0.03498    -0.00203     0.00000    -0.00000     0.00000
  -------------------------------------------------------------------------------------
  Total      -0.24757    -0.15846    -0.19783     0.00000     0.00000     0.00000
  in kB      -0.00620    -0.00397    -0.00495     0.00000     0.00000     0.00000
  external pressure =       -0.01 kB  Pullay stress =        0.00 kB


 VOLUME and BASIS-vectors are now :
 -----------------------------------------------------------------------------
  energy-cutoff  :      500.00
  volume of cell :    64000.00
      direct lattice vectors                 reciprocal lattice vectors
    40.000000000  0.000000000  0.000000000     0.025000000  0.000000000  0.000000000
     0.000000000 40.000000000  0.000000000     0.000000000  0.025000000  0.000000000
     0.000000000  0.000000000 40.000000000     0.000000000  0.000000000  0.025000000

  length of vectors
    40.000000000 40.000000000 40.000000000     0.025000000  0.025000000  0.025000000


 FORCES acting on ions
    electron-ion (+dipol)            ewald-force                    non-local-force                 convergence-correction
 -----------------------------------------------------------------------------------------------
   0.190E+03 0.942E+02 -.227E-01   -.190E+03 -.946E+02 0.312E-02   0.678E+00 0.333E+00 0.000E+00   0.169E-02 0.151E-02 -.351E-06
   0.557E+02 0.188E+03 -.955E-02   -.556E+02 -.188E+03 0.169E-02   -.932E-01 0.620E+00 0.000E+00   -.550E-03 0.205E-02 -.749E-07
   -.590E+02 0.796E+02 0.599E-02   0.591E+02 -.797E+02 -.168E-02   -.122E+00 0.106E+00 0.000E+00   0.360E-02 -.431E-02 0.154E-06
   -.144E+03 0.122E+03 0.265E-01   0.144E+03 -.122E+03 -.443E-02   -.156E-01 0.409E+00 0.000E+00   -.243E-02 0.216E-02 0.835E-06
   -.590E+02 -.796E+02 -.558E-02   0.591E+02 0.797E+02 -.209E-03   -.122E+00 -.106E+00 0.000E+00   0.360E-02 0.431E-02 -.634E-07
   -.144E+03 -.122E+03 -.647E-02   0.144E+03 0.122E+03 0.159E-02   -.156E-01 -.409E+00 0.000E+00   -.243E-02 -.216E-02 -.185E-06
   0.557E+02 -.188E+03 -.160E-01   -.556E+02 0.188E+03 0.316E-03   -.932E-01 -.620E+00 0.000E+00   -.550E-03 -.205E-02 -.178E-06
   0.190E+03 -.942E+02 -.280E-01   -.190E+03 0.946E+02 0.473E-02   0.678E+00 -.333E+00 0.000E+00   0.169E-02 -.151E-02 -.427E-06
   -.579E+02 0.921E+01 -.550E+02   0.611E+02 -.799E+01 0.596E+02   -.319E+01 -.122E+01 -.455E+01   -.127E-02 0.628E-04 -.131E-02
   -.141E+02 0.805E+02 -.418E-02   0.132E+02 -.862E+02 0.521E-02   0.887E+00 0.573E+01 0.000E+00   -.119E-03 0.186E-02 -.669E-07
   -.579E+02 0.922E+01 0.551E+02   0.611E+02 -.800E+01 -.596E+02   -.319E+01 -.122E+01 0.455E+01   -.127E-02 0.629E-04 0.131E-02
   -.579E+02 -.921E+01 0.550E+02   0.611E+02 0.799E+01 -.596E+02   -.319E+01 0.122E+01 0.455E+01   -.127E-02 -.628E-04 0.131E-02
   -.141E+02 -.805E+02 0.856E-02   0.132E+02 0.862E+02 -.592E-02   0.887E+00 -.573E+01 0.000E+00   -.119E-03 -.186E-02 0.843E-07
   -.579E+02 -.922E+01 -.550E+02   0.611E+02 0.800E+01 0.596E+02   -.319E+01 0.122E+01 -.455E+01   -.127E-02 -.629E-04 -.131E-02
   0.756E+02 -.419E+02 -.475E-02   -.808E+02 0.449E+02 0.418E-03   0.517E+01 -.303E+01 0.000E+00   0.795E-03 -.502E-03 -.211E-07
   0.120E+02 -.863E+02 -.456E-02   -.120E+02 0.923E+02 0.124E-02   0.891E-02 -.595E+01 0.000E+00   0.173E-03 -.548E-03 0.855E-08
   0.120E+02 0.863E+02 0.153E-03   -.120E+02 -.923E+02 -.809E-03   0.891E-02 0.595E+01 0.000E+00   0.173E-03 0.548E-03 0.895E-08
   0.756E+02 0.419E+02 -.383E-02   -.808E+02 -.449E+02 0.297E-03   0.517E+01 0.303E+01 0.000E+00   0.795E-03 0.502E-03 -.176E-07
 -----------------------------------------------------------------------------------------------
   -.257E+00 0.146E-01 -.547E-01   -.284E-13 -.128E-12 0.278E-14   0.252E+00 0.888E-15 0.000E+00   0.125E-02 0.360E-06 -.252E-06
 
 
 POSITION                                       TOTAL-FORCE (eV/Angst)
 -----------------------------------------------------------------------------------
     17.79385     19.30525     20.00004        -0.000985      0.007240      0.000000
     19.00440     18.61958     20.00001         0.007968     -0.006969      0.000000
     20.22471     19.29603     19.99999         0.004737      0.015490      0.000000
     21.51794     18.53281     19.99995         0.004289     -0.003531      0.000000
     20.22471     20.70397     20.00001         0.004737     -0.015490      0.000000
     21.51794     21.46715     20.00001         0.004289      0.003531      0.000000
     19.00440     21.38042     20.00003         0.007968      0.006969      0.000000
     17.79385     20.69475     20.00004        -0.000985     -0.007240      0.000000
     22.12741     18.77473     20.87632        -0.006846      0.006634      0.000434
     21.33954     17.45698     20.00004        -0.004980      0.008267      0.000000
     22.12726     18.77460     19.12344        -0.006846      0.006634     -0.000434
     22.12737     21.22527     19.12360        -0.006846     -0.006634     -0.000434
     21.33954     22.54302     19.99992        -0.004980     -0.008267      0.000000
     22.12730     21.22540     20.87652        -0.006846     -0.006634      0.000434
     16.85892     21.24393     20.00004        -0.001518      0.001914      0.000000
     19.00603     22.46637     20.00004         0.004181      0.001327      0.000000
     19.00603     17.53363     20.00000         0.004181     -0.001327      0.000000
     16.85892     18.75607     20.00004        -0.001518     -0.001914      0.000000
 -----------------------------------------------------------------------------------
    total drift:                               -0.002926      0.014607     -0.054718


--------------------------------------------------------------------------------------------------------



  FREE ENERGIE OF THE ION-ELECTRON SYSTEM (eV)
  ---------------------------------------------------
  free  energy   TOTEN  =      -115.29708749 eV

  energy  without entropy=     -115.29708749  energy(sigma->0) =     -115.29708749
 
 d Force = 0.9269766E-05[ 0.134E-05, 0.172E-04]  d Energy = 0.8358116E-05 0.912E-06
 d Force = 0.2413568E+00[ 0.241E+00, 0.241E+00]  d Ewald  = 0.2413568E+00-0.797E-09


--------------------------------------------------------------------------------------------------------


    --------------------------------------------
      INIT:  cpu time      0.2491: real time      0.2481
  FINALIZE:  cpu time     25.8646: real time     25.8586
    --------------------------------------------
    POTLOK:  cpu time     36.3403: real time     36.3498


--------------------------------------------------------------------------------------------------------




--------------------------------------------------------------------------------------------------------


  
 reached required accuracy - stopping structural energy minimisation
 writing wavefunctions
     LOOP+:  cpu time    447.4626: real time    449.2745
    4ORBIT:  cpu time      0.0000: real time      0.0000

 total amount of memory used by VASP MPI-rank0   864794. kBytes
=======================================================================

   base      :      30000. kBytes
   nonlr-proj:       1126. kBytes
   fftplans  :     167689. kBytes
   grid      :     639968. kBytes
   one-center:         12. kBytes
   wavefun   :      25999. kBytes
 
  
  
 General timing and accounting informations for this job:
 ========================================================
  
                  Total CPU time used (sec):    12104.167
                            User time (sec):    10698.114
                          System time (sec):     1406.053
                         Elapsed time (sec):    12128.396
  
                   Maximum memory used (kb):     6586008.
                   Average memory used (kb):          N/A
  
                          Minor page faults:    282498991
                          Major page faults:            6
                 Voluntary context switches:       309035
