
                                 *****************
                                 * O   R   C   A *
                                 *****************

                                            #,                                       
                                            ###                                      
                                            ####                                     
                                            #####                                    
                                            ######                                   
                                           ########,                                 
                                     ,,################,,,,,                         
                               ,,#################################,,                 
                          ,,##########################################,,             
                       ,#########################################, ''#####,          
                    ,#############################################,,   '####,        
                  ,##################################################,,,,####,       
                ,###########''''           ''''###############################       
              ,#####''   ,,,,##########,,,,          '''####'''          '####       
            ,##' ,,,,###########################,,,                        '##       
           ' ,,###''''                  '''############,,,                           
         ,,##''                                '''############,,,,        ,,,,,,###''
      ,#''                                            '''#######################'''  
     '                                                          ''''####''''         
             ,#######,   #######,   ,#######,      ##                                
            ,#'     '#,  ##    ##  ,#'     '#,    #''#        ,####,   ,####,        
            ##       ##  ##   ,#'  ##            #'  '#       #'       #'  '#        
            ##       ##  #######   ##           ,######,      #####,   #    #        
            '#,     ,#'  ##    ##  '#,     ,#' ,#      #,     #,   #   #,  ,#        
             '#######'   ##     ##  '#######'  #'      '#     '####' # '####'        



                #########################################################
                #                        -***-                          #
                #          Department of theory and spectroscopy        #
                #                                                       #
                #                      Frank Neese                      #
                #                                                       #
                #     Directorship, Architecture, Infrastructure        #
                #                    SHARK, DRIVERS                     #
                #        Core code/Algorithms in most modules           #
                #                                                       #
                #        Max Planck Institute fuer Kohlenforschung      #
                #                Kaiser Wilhelm Platz 1                 #
                #                 D-45470 Muelheim/Ruhr                 #
                #                      Germany                          #
                #                                                       #
                #                  All rights reserved                  #
                #                        -***-                          #
                #########################################################


                         Program Version 6.0.0  -   RELEASE  -


 With contributions from (in alphabetic order):
   Daniel Aravena         : Magnetic Suceptibility
   Michael Atanasov       : Ab Initio Ligand Field Theory (pilot matlab implementation)
   Alexander A. Auer      : GIAO ZORA, VPT2 properties, NMR spectrum
   Ute Becker             : All parallelization in ORCA, NUMFREQ, NUMCALC
   Giovanni Bistoni       : ED, misc. LED, open-shell LED, HFLD
   Martin Brehm           : Molecular dynamics
   Dmytro Bykov           : pre 5.0 version of the SCF Hessian
   Marcos Casanova-Páez   : Triplet and SCS-CIS(D). UHF-(DLPNO)-IP/EA/STEOM-CCSD. UHF-CVS-IP/STEOM-CCSD
   Vijay G. Chilkuri      : MRCI spin determinant printing, contributions to CSF-ICE
   Pauline Colinet        : FMM embedding
   Dipayan Datta          : RHF DLPNO-CCSD density
   Achintya Kumar Dutta   : EOM-CC, STEOM-CC
   Nicolas Foglia         : Exact transition moments, OPA infrastructure, MCD improvements
   Dmitry Ganyushin       : Spin-Orbit,Spin-Spin,Magnetic field MRCI
   Miquel Garcia          : C-PCM and meta-GGA Hessian, CCSD/C-PCM, Gaussian charge scheme
   Tiago L. C. Gouveia    : GS-ROHF, GS-ROCIS
   Yang Guo               : DLPNO-NEVPT2, F12-NEVPT2, CIM, IAO-localization
   Andreas Hansen         : Spin unrestricted coupled pair/coupled cluster methods
   Ingolf Harden          : AUTO-CI MPn and infrastructure 
   Benjamin Helmich-Paris : MC-RPA, TRAH-(SCF,CASSCF), AVAS, COSX integrals, SCF dyn. polar.
   Lee Huntington         : MR-EOM, pCC
   Robert Izsak           : Overlap fitted RIJCOSX, COSX-SCS-MP3, EOM
   Riya Kayal             : Wick's Theorem for AUTO-CI, AUTO-CI UHF-CCSDT
   Emily Kempfer          : AUTO-CI, RHF CISDT and CCSDT
   Christian Kollmar      : KDIIS, OOCD, Brueckner-CCSD(T), CCSD density, CASPT2, CASPT2-K, improved NEVPT2
   Axel Koslowski         : Symmetry handling
   Simone Kossmann        : Meta GGA functionals, TD-DFT gradient, OOMP2, (MP2 Hessian; deprecated post 5.0)
   Lucas Lang             : DCDCAS
   Marvin Lechner         : AUTO-CI (C++ implementation), FIC-MRCC
   Spencer Leger          : CASSCF response
   Dagmar Lenk            : GEPOL surface, SMD, ORCA-2-JSON
   Dimitrios Liakos       : Extrapolation schemes; Compound Job, initial MDCI parallelization
   Dimitrios Manganas     : Further ROCIS development; embedding schemes. LFT, Crystal Embedding
   Dimitrios Pantazis     : SARC Basis sets
   Anastasios Papadopoulos: AUTO-CI, single reference methods and gradients
   Taras Petrenko         : pre 6.0 DFT Hessian and TD-DFT gradient, (ASA, deprecated), ECA, 1-Electron XAS/XES, NRVS
   Peter Pinski           : DLPNO-MP2, DLPNO-MP2 Gradient
   Christoph Reimann      : Effective Core Potentials
   Marius Retegan         : Local ZFS, SOC
   Christoph Riplinger    : Optimizer, TS searches, QM/MM, DLPNO-CCSD(T), (RO)-DLPNO pert. Triples
   Michael Roemelt        : Original ROCIS implementation
   Masaaki Saitow         : Open-shell DLPNO-CCSD energy and density
   Barbara Sandhoefer     : DKH picture change effects
   Kantharuban Sivalingam : CASSCF convergence/infrastructure, NEVPT2 and variants, FIC-MRCI
   Bernardo de Souza      : ESD, SOC TD-DFT
   Georgi Stoychev        : AutoAux, RI-MP2 NMR, DLPNO-MP2 response, X2C
   Van Anh Tran           : RI-MP2 g-tensors
   Willem Van den Heuvel  : Paramagnetic NMR
   Zikuan Wang            : NOTCH, Electric field optimization 
   Frank Wennmohs         : Technical directorship and infrastructure
   Hang Xu                : AUTO-CI-Response properties 


 We gratefully acknowledge several colleagues who have allowed us to
 interface, adapt or use parts of their codes:
   Stefan Grimme, W. Hujo, H. Kruse, P. Pracht,  : VdW corrections, initial TS optimization,
                  C. Bannwarth, S. Ehlert,         DFT functionals, gCP, sTDA/sTD-DF
                  L. Wittmann, M. Mueller
   Ed Valeev, F. Pavosevic, A. Kumar             : LibInt (2-el integral package), F12 methods
   Garnet Chan, S. Sharma, J. Yang, R. Olivares  : DMRG
   Ulf Ekstrom                                   : XCFun DFT Library
   Mihaly Kallay                                 : mrcc  (arbitrary order and MRCC methods)
   Frank Weinhold                                : gennbo (NPA and NBO analysis)
   Simon Mueller                                 : openCOSMO-RS
   Christopher J. Cramer and Donald G. Truhlar   : smd solvation model
   Lars Goerigk                                  : TD-DFT with DH, B97 family of functionals
   V. Asgeirsson, H. Jonsson                     : NEB implementation
   FAccTs GmbH                                   : IRC, NEB, NEB-TS, DLPNO-Multilevel, CI-OPT
                                                   MM, QMMM, 2- and 3-layer-ONIOM, Crystal-QMMM,
                                                   LR-CPCM, SF, NACMEs, symmetry and pop. for TD-DFT,
                                                   nearIR, NL-DFT gradient (VV10), updates on ESD,
                                                   ML-optimized integration grids, MBIS, APM,
                                                   GOAT, DOCKER, SOLVATOR, interface openCOSMO-RS
   S Lehtola, MJT Oliveira, MAL Marques          : LibXC Library
   Liviu Ungur et al                             : ANISO software


 Your calculation uses the libint2 library for the computation of 2-el integrals
 For citations please refer to: http://libint.valeyev.net

 Your ORCA version has been built with support for libXC version: 6.2.2
 For citations please refer to: https://libxc.gitlab.io

 This ORCA versions uses:
   CBLAS   interface :  Fast vector & matrix operations
   LAPACKE interface :  Fast linear algebra routines
   SCALAPACK package :  Parallel linear algebra routines
   Shared memory     :  Shared parallel matrices
   BLAS/LAPACK       :  OpenBLAS 0.3.27  USE64BITINT DYNAMIC_ARCH NO_AFFINITY SkylakeX SINGLE_THREADED
        Core in use  :  SkylakeX
   Copyright (c) 2011-2014, The OpenBLAS Project


NOTE: MaxCore=3000 MB was set to SCF,MP2,MDCI,CIPSI,MRCI and CIS
      => If you want to overwrite this, your respective input block should be placed after the MaxCore statement
Your calculation utilizes the atom-pairwise dispersion correction
with the Becke-Johnson damping scheme (D3BJ)


Your calculation utilizes the SMD solvation module
Please cite in your paper:
A.V. Marenich, C.J. Cramer, D.G. Truhlar J. Phys. Chem. B, 113, (2009), 6378 

Warning: RI is on but no J-basis has been assigned. Assigning Def2/J (nothing to worry about!)
================================================================================

----- Orbital basis set information -----
Your calculation utilizes the basis: aug-cc-pVTZ 
    H, B-Ne : Obtained from the ccRepo (grant-hill.group.shef.ac.uk/ccrepo) Feb. 2017
              R. A. Kendall, T. H. Dunning, Jr., R. J. Harrison, J. Chem. Phys. 96, 6796 (1992)
         He : Obtained from the ccRepo (grant-hill.group.shef.ac.uk/ccrepo) Feb. 2017
              D. E. Woon, T. H. Dunning, Jr., J. Chem. Phys. 100, 2975 (1994)
  Li-Be, Na : Obtained from the ccRepo (grant-hill.group.shef.ac.uk/ccrepo) Feb. 2017
              B. P. Prascher, D. E. Woon, K. A. Peterson, T. H. Dunning, Jr., A. K. Wilson, Theor. Chem. Acc. 128, 69 (2011)
         Mg : Obtained from the Peterson Research Group Website (tyr0.chem.wsu.edu/~kipeters) Feb. 2017
              B. P. Prascher, D. E. Woon, K. A. Peterson, T. H. Dunning, Jr., A. K. Wilson, Theor. Chem. Acc. 128, 69 (2011)
      Al-Ar : Obtained from the ccRepo (grant-hill.group.shef.ac.uk/ccrepo) Feb. 2017
              D. E. Woon, T. H. Dunning, Jr., J. Chem. Phys. 98, 1358 (1993)
      Sc-Zn : Obtained from the ccRepo (grant-hill.group.shef.ac.uk/ccrepo) Feb. 2017
              N. B. Balabanov, K. A. Peterson, J. Chem. Phys. 123, 064107 (2005)
              N. B. Balabanov, K. A. Peterson, J. Chem. Phys. 125, 074110 (2006)
      Ga-Kr : Obtained from the ccRepo (grant-hill.group.shef.ac.uk/ccrepo) Feb. 2017
              A. K. Wilson, D. E. Woon, K. A. Peterson, T. H. Dunning, Jr., J. Chem. Phys. 110, 7667 (1999)
     Ag, Au : Obtained from the Peterson Research Group Website (tyr0.chem.wsu.edu/~kipeters) Feb. 2017
              K. A. Peterson, C. Puzzarini, Theor. Chem. Acc. 114, 283 (2005)

----- AuxJ basis set information -----
Your calculation utilizes the auxiliary basis: def2/J
   F. Weigend, Phys. Chem. Chem. Phys. 8, 1057 (2006).

================================================================================
                                        WARNINGS
                       Please study these warnings very carefully!
================================================================================


WARNING: your system is open-shell and RHF/RKS was chosen
  ===> : WILL SWITCH to UHF/UKS


================================================================================
                                       INPUT FILE
================================================================================
NAME = cs_rporg_074_ox_solv_04.inp
|  1> !PBE0 aug-cc-pVTZ d3 TightSCF SlowConv RIJCOSX defgrid2
|  2>  
|  3> %pal
|  4> nprocs 4
|  5> end
|  6>  
|  7> %scf
|  8> MaxIter 1500
|  9> end
| 10>  
| 11> %maxcore 3000
| 12>  
| 13> !CPCM
| 14> %cpcm smd true
| 15> SMDsolvent "MeCN"
| 16> surfacetype gepol_ses
| 17> rsolv 2.19
| 18> end 
| 19>  
| 20> * xyz 1 2
| 21> C          -1.44785730295075      0.00004383668014      0.19466020963487
| 22> C          -0.70463361625558     -1.25916288948137     -0.22052956548119
| 23> C           0.75402143901141     -1.23290095960195      0.33947310722511
| 24> N           1.35243621618336     -0.00003237928940     -0.05272629159437
| 25> H           2.03239855808840     -0.00001354242890     -0.81929831940591
| 26> C           0.75406824525088      1.23284300442693      0.33954722989484
| 27> C          -0.70453653205886      1.25917936755808     -0.22058410201994
| 28> H          -1.17735315978030      2.17530279259209      0.17075301961950
| 29> H          -0.65902932856967      1.35407679956949     -1.31943227945387
| 30> H           1.35320797568110      2.07738723598631     -0.02945728358028
| 31> H           0.70381655246538      1.26167123212667      1.44376020833185
| 32> H           1.35302530838177     -2.07746967992292     -0.02968877997992
| 33> H           0.70390247903722     -1.26179946828858      1.44369537598949
| 34> H          -1.17752329445998     -2.17518232566056      0.17094554694672
| 35> H          -0.65911553793050     -1.35406143771193     -1.31937325462627
| 36> H          -2.44852309487375      0.00006008079951     -0.27520329299314
| 37> H          -1.61728600722014      0.00008813264640      1.28682627149251
| 38> *
| 39> 
| 40>                          ****END OF INPUT****
================================================================================

                       ****************************
                       * Single Point Calculation *
                       ****************************

---------------------------------
CARTESIAN COORDINATES (ANGSTROEM)
---------------------------------
  C     -1.447857    0.000044    0.194660
  C     -0.704634   -1.259163   -0.220530
  C      0.754021   -1.232901    0.339473
  N      1.352436   -0.000032   -0.052726
  H      2.032399   -0.000014   -0.819298
  C      0.754068    1.232843    0.339547
  C     -0.704537    1.259179   -0.220584
  H     -1.177353    2.175303    0.170753
  H     -0.659029    1.354077   -1.319432
  H      1.353208    2.077387   -0.029457
  H      0.703817    1.261671    1.443760
  H      1.353025   -2.077470   -0.029689
  H      0.703902   -1.261799    1.443695
  H     -1.177523   -2.175182    0.170946
  H     -0.659116   -1.354061   -1.319373
  H     -2.448523    0.000060   -0.275203
  H     -1.617286    0.000088    1.286826

----------------------------
CARTESIAN COORDINATES (A.U.)
----------------------------
  NO LB      ZA    FRAG     MASS         X           Y           Z
   0 C     6.0000    0    12.011   -2.736054    0.000083    0.367854
   1 C     6.0000    0    12.011   -1.331565   -2.379473   -0.416740
   2 C     6.0000    0    12.011    1.424894   -2.329845    0.641511
   3 N     7.0000    0    14.007    2.555734   -0.000061   -0.099638
   4 H     1.0000    0     1.008    3.840677   -0.000026   -1.548249
   5 C     6.0000    0    12.011    1.424982    2.329736    0.641651
   6 C     6.0000    0    12.011   -1.331381    2.379504   -0.416844
   7 H     1.0000    0     1.008   -2.224875    4.110727    0.322676
   8 H     1.0000    0     1.008   -1.245385    2.558834   -2.493366
   9 H     1.0000    0     1.008    2.557192    3.925693   -0.055666
  10 H     1.0000    0     1.008    1.330021    2.384213    2.728311
  11 H     1.0000    0     1.008    2.556847   -3.925849   -0.056104
  12 H     1.0000    0     1.008    1.330183   -2.384455    2.728189
  13 H     1.0000    0     1.008   -2.225197   -4.110499    0.323040
  14 H     1.0000    0     1.008   -1.245548   -2.558805   -2.493254
  15 H     1.0000    0     1.008   -4.627038    0.000114   -0.520059
  16 H     1.0000    0     1.008   -3.056228    0.000167    2.431749

--------------------------------
INTERNAL COORDINATES (ANGSTROEM)
--------------------------------
 C      0   0   0     0.000000000000     0.00000000     0.00000000
 C      1   0   0     1.519988676614     0.00000000     0.00000000
 C      2   1   0     1.562679510538   110.15782928     0.00000000
 N      3   2   1     1.425442229729   107.92664827   307.37274105
 H      4   3   2     1.024686030249   118.97506597   255.94008161
 C      4   3   2     1.425448861262   119.74323858    58.52090951
 C      1   2   3     1.519992069690   111.87095145    54.90515122
 H      7   1   2     1.102715936277   112.43139915   186.25489278
 H      7   1   2     1.103876689319   111.30411501    65.67151252
 H      6   4   3     1.099266895074   110.07912909   178.90057620
 H      6   4   3     1.105731703936   108.44787424    58.66834967
 H      3   2   1     1.099264507673   112.04784842   186.01646235
 H      3   2   1     1.105736791822   108.36814612    64.61867280
 H      2   1   3     1.102709852527   112.42751226   118.83531046
 H      2   1   3     1.103872765804   111.30241298   239.42559812
 H      1   2   3     1.105488009203   109.05752118   175.63094806
 H      1   2   3     1.105229747368   110.17660781   291.98684165

---------------------------
INTERNAL COORDINATES (A.U.)
---------------------------
 C      0   0   0     0.000000000000     0.00000000     0.00000000
 C      1   0   0     2.872362325463     0.00000000     0.00000000
 C      2   1   0     2.953036310007   110.15782928     0.00000000
 N      3   2   1     2.693695433913   107.92664827   307.37274105
 H      4   3   2     1.936375970425   118.97506597   255.94008161
 C      4   3   2     2.693707965695   119.74323858    58.52090951
 C      1   2   3     2.872368737446   111.87095145    54.90515122
 H      7   1   2     2.083831123074   112.43139915   186.25489278
 H      7   1   2     2.086024628432   111.30411501    65.67151252
 H      6   4   3     2.077313379775   110.07912909   178.90057620
 H      6   4   3     2.089530098033   108.44787424    58.66834967
 H      3   2   1     2.077308868242   112.04784842   186.01646235
 H      3   2   1     2.089539712744   108.36814612    64.61867280
 H      2   1   3     2.083819626453   112.42751226   118.83531046
 H      2   1   3     2.086017214064   111.30241298   239.42559812
 H      1   2   3     2.089069581727   109.05752118   175.63094806
 H      1   2   3     2.088581537588   110.17660781   291.98684165

---------------------
BASIS SET INFORMATION
---------------------
There are 3 groups of distinct atoms

 Group   1 Type C   : 19s6p3d2f contracted to 5s4p3d2f pattern {88111/3111/111/11}
 Group   2 Type N   : 19s6p3d2f contracted to 5s4p3d2f pattern {88111/3111/111/11}
 Group   3 Type H   : 6s3p2d contracted to 4s3p2d pattern {3111/111/11}

Atom   0C    basis set group =>   1
Atom   1C    basis set group =>   1
Atom   2C    basis set group =>   1
Atom   3N    basis set group =>   2
Atom   4H    basis set group =>   3
Atom   5C    basis set group =>   1
Atom   6C    basis set group =>   1
Atom   7H    basis set group =>   3
Atom   8H    basis set group =>   3
Atom   9H    basis set group =>   3
Atom  10H    basis set group =>   3
Atom  11H    basis set group =>   3
Atom  12H    basis set group =>   3
Atom  13H    basis set group =>   3
Atom  14H    basis set group =>   3
Atom  15H    basis set group =>   3
Atom  16H    basis set group =>   3
---------------------------------
AUXILIARY/J BASIS SET INFORMATION
---------------------------------
There are 3 groups of distinct atoms

 Group   1 Type C   : 12s5p4d2f1g contracted to 6s4p3d1f1g pattern {711111/2111/211/2/1}
 Group   2 Type N   : 12s5p4d2f1g contracted to 6s4p3d1f1g pattern {711111/2111/211/2/1}
 Group   3 Type H   : 5s2p1d contracted to 3s1p1d pattern {311/2/1}

Atom   0C    basis set group =>   1
Atom   1C    basis set group =>   1
Atom   2C    basis set group =>   1
Atom   3N    basis set group =>   2
Atom   4H    basis set group =>   3
Atom   5C    basis set group =>   1
Atom   6C    basis set group =>   1
Atom   7H    basis set group =>   3
Atom   8H    basis set group =>   3
Atom   9H    basis set group =>   3
Atom  10H    basis set group =>   3
Atom  11H    basis set group =>   3
Atom  12H    basis set group =>   3
Atom  13H    basis set group =>   3
Atom  14H    basis set group =>   3
Atom  15H    basis set group =>   3
Atom  16H    basis set group =>   3


           ************************************************************
           *        Program running with 4 parallel MPI-processes     *
           *              working on a common directory               *
           ************************************************************
------------------------------------------------------------------------------
                             ORCA STARTUP CALCULATIONS
                           -- RI-GTO INTEGRALS CHOSEN --
------------------------------------------------------------------------------
------------------------------------------------------------------------------
                   ___                                                        
                  /   \      - P O W E R E D   B Y -                         
                 /     \                                                     
                 |  |  |   _    _      __       _____    __    __             
                 |  |  |  | |  | |    /  \     |  _  \  |  |  /  |          
                  \  \/   | |  | |   /    \    | | | |  |  | /  /          
                 / \  \   | |__| |  /  /\  \   | |_| |  |  |/  /          
                |  |  |   |  __  | /  /__\  \  |    /   |      \           
                |  |  |   | |  | | |   __   |  |    \   |  |\   \          
                \     /   | |  | | |  |  |  |  | |\  \  |  | \   \       
                 \___/    |_|  |_| |__|  |__|  |_| \__\ |__|  \__/        
                                                                              
                      - O R C A' S   B I G   F R I E N D -                    
                                      &                                       
                       - I N T E G R A L  F E E D E R -                       
                                                                              
 v1 FN, 2020, v2 2021, v3 2022-2024                                           
------------------------------------------------------------------------------


----------------------
SHARK INTEGRAL PACKAGE
----------------------

Number of atoms                             ...     17
Number of basis functions                   ...    565
Number of shells                            ...    219
Maximum angular momentum                    ...      3
Integral batch strategy                     ... SHARK/LIBINT Hybrid
RI-J (if used) integral strategy            ... SPLIT-RIJ (Revised 2003 algorithm where possible)
Printlevel                                  ...      1
Contraction scheme used                     ... PARTIAL GENERAL contraction
Prescreening option                         ... SCHWARTZ
   Thresh                                   ... 2.500e-11
   Tcut                                     ... 2.500e-12
   Tpresel                                  ... 2.500e-12 
Coulomb Range Separation                    ... NOT USED
Exchange Range Separation                   ... NOT USED
Multipole approximations                    ... NOT USED
Finite Nucleus Model                        ... NOT USED
CABS basis                                  ... NOT available
Auxiliary Coulomb fitting basis             ... AVAILABLE
   # of basis functions in Aux-J            ...    415
   # of shells in Aux-J                     ...    145
   Maximum angular momentum in Aux-J        ...      4
Auxiliary J/K fitting basis                 ... NOT available
Auxiliary Correlation fitting basis         ... NOT available
Auxiliary 'external' fitting basis          ... NOT available

Checking pre-screening integrals            ... done (  0.0 sec) Dimension = 219
Save PGC pre-screening integrals            ... done (  0.0 sec) Dimension = 219
Calculate PGC overlap integrals             ... done (  0.1 sec) Dimension = 183
Calculating pre-screening integrals (ORCA)  ... done (  0.3 sec) Dimension = 183
Check shell pair data                       ... done (  0.0 sec)
Shell pair information
Shell pair cut-off parameter TPreSel        ...   2.5e-12
Total number of shell pairs                 ...     24090
Shell pairs after pre-screening             ...     22401
Total number of primitive shell pairs       ...     32182
Primitive shell pairs kept                  ...     28014
          la=0 lb=0:   5120 shell pairs
          la=1 lb=0:   5921 shell pairs
          la=1 lb=1:   1622 shell pairs
          la=2 lb=0:   4132 shell pairs
          la=2 lb=1:   2234 shell pairs
          la=2 lb=2:    813 shell pairs
          la=3 lb=0:   1317 shell pairs
          la=3 lb=1:    684 shell pairs
          la=3 lb=2:    480 shell pairs
          la=3 lb=3:     78 shell pairs

Calculating one electron integrals          ... done (  0.1 sec)
Calculating RI/J V-Matrix + Cholesky decomp.... done (  0.1 sec)
Calculating Nuclear repulsion               ... done (  0.0 sec) ENN=    259.293376831882 Eh

Diagonalization of the overlap matrix:
Smallest eigenvalue                        ... 4.430e-06
Time for diagonalization                   ...    0.071 sec
Threshold for overlap eigenvalues          ... 1.000e-07
Number of eigenvalues below threshold      ... 0
Time for construction of square roots      ...    0.047 sec
Total time needed                          ...    0.144 sec

-------------------
DFT GRID GENERATION
-------------------

General Integration Accuracy     IntAcc      ... 4.388
Radial Grid Type                 RadialGrid  ... OptM3 with GC (2021)
Angular Grid (max. ang.)         AngularGrid ... 4 (Lebedev-302)
Angular grid pruning method      GridPruning ... 4 (adaptive)
Weight generation scheme         WeightScheme... mBecke (2022)
Basis function cutoff            BFCut       ... 1.0000e-11
Integration weight cutoff        WCut        ... 1.0000e-14
Partially contracted basis set               ... off
Rotationally invariant grid construction     ... off
Angular grids for H and He will be reduced by one unit
Diffuse basis detected: some atoms will have their outermost
                        angular grid increased by 1.

Total number of grid points                  ...    74594
Total number of batches                      ...     1174
Average number of points per batch           ...       63
Average number of grid points per atom       ...     4388

---------------------
SHARK GRID GENERATION
---------------------

General Integration Accuracy     IntAcc      ... 4.388
Radial Grid Type                 RadialGrid  ... OptM3 with GC (2021)
Angular Grid (max. ang.)         AngularGrid ... 4 (Lebedev-302)
Angular grid pruning method      GridPruning ... 4 (adaptive)
Weight generation scheme         WeightScheme... mBecke (2022)
Basis function cutoff            BFCut       ... 1.0000e-11
Integration weight cutoff        WCut        ... 1.0000e-14
Partially contracted basis set               ... off
Rotationally invariant grid construction     ... off
Angular grids for H and He will be reduced by one unit
Diffuse basis detected: some atoms will have their outermost
                        angular grid increased by 1.
Steep s-basis detected: some atoms will have their radial
                        grid points doubled.

Total number of grid points                  ...   112180
Total number of batches                      ...     1761
Average number of points per batch           ...       63
Average number of grid points per atom       ...     6599

--------------------
COSX GRID GENERATION
--------------------

GRIDX 1
-------
General Integration Accuracy     IntAcc      ... 3.816
Radial Grid Type                 RadialGrid  ... OptM3 with GC (2021)
Angular Grid (max. ang.)         AngularGrid ... 1 (Lebedev-50)
Angular grid pruning method      GridPruning ... 4 (adaptive)
Weight generation scheme         WeightScheme... mBecke (2022)
Basis function cutoff            BFCut       ... 1.0000e-11
Integration weight cutoff        WCut        ... 1.0000e-14
Partially contracted basis set               ... on
Rotationally invariant grid construction     ... off
Angular grids for H and He will be reduced by one unit
Diffuse basis detected: some atoms will have their outermost
                        angular grid increased by 1.

Total number of grid points                  ...     9322
Total number of batches                      ...       85
Average number of points per batch           ...      109
Average number of grid points per atom       ...      548
UseSFitting                                  ... on

GRIDX 2
-------
General Integration Accuracy     IntAcc      ... 4.020
Radial Grid Type                 RadialGrid  ... OptM3 with GC (2021)
Angular Grid (max. ang.)         AngularGrid ... 2 (Lebedev-110)
Angular grid pruning method      GridPruning ... 4 (adaptive)
Weight generation scheme         WeightScheme... mBecke (2022)
Basis function cutoff            BFCut       ... 1.0000e-11
Integration weight cutoff        WCut        ... 1.0000e-14
Partially contracted basis set               ... on
Rotationally invariant grid construction     ... off
Angular grids for H and He will be reduced by one unit
Diffuse basis detected: some atoms will have their outermost
                        angular grid increased by 1.

Total number of grid points                  ...    21508
Total number of batches                      ...      178
Average number of points per batch           ...      120
Average number of grid points per atom       ...     1265
UseSFitting                                  ... on

GRIDX 3
-------
General Integration Accuracy     IntAcc      ... 4.338
Radial Grid Type                 RadialGrid  ... OptM3 with GC (2021)
Angular Grid (max. ang.)         AngularGrid ... 3 (Lebedev-194)
Angular grid pruning method      GridPruning ... 4 (adaptive)
Weight generation scheme         WeightScheme... mBecke (2022)
Basis function cutoff            BFCut       ... 1.0000e-11
Integration weight cutoff        WCut        ... 1.0000e-14
Partially contracted basis set               ... on
Rotationally invariant grid construction     ... off
Angular grids for H and He will be reduced by one unit
Diffuse basis detected: some atoms will have their outermost
                        angular grid increased by 1.

Total number of grid points                  ...    48584
Total number of batches                      ...      391
Average number of points per batch           ...      124
Average number of grid points per atom       ...     2858
UseSFitting                                  ... on
Initializing property integral containers    ... done (  0.0 sec)

SHARK setup successfully completed in   6.7 seconds

Maximum memory used throughout the entire STARTUP-calculation: 56.6 MB


           ************************************************************
           *        Program running with 4 parallel MPI-processes     *
           *              working on a common directory               *
           ************************************************************
-------------------------------------------------------------------------------
                                 ORCA GUESS
                   Start orbitals & Density for SCF / CASSCF
-------------------------------------------------------------------------------

------------
SCF SETTINGS
------------
Hamiltonian:
 Density Functional     Method          .... DFT(GTOs)
 Exchange Functional    Exchange        .... PBE
   PBE kappa parameter   XKappa         ....  0.804000
   PBE mue parameter    XMuePBE         ....  0.219520
 Correlation Functional Correlation     .... PBE
   PBE beta parameter  CBetaPBE         ....  0.066725
 LDA part of GGA corr.  LDAOpt          .... PW91-LDA
 Gradients option       PostSCFGGA      .... off
 Hybrid DFT is turned on
   Fraction HF Exchange ScalHFX         ....  0.250000
   Scaling of DF-GGA-X  ScalDFX         ....  0.750000
   Scaling of DF-GGA-C  ScalDFC         ....  1.000000
   Scaling of DF-LDA-C  ScalLDAC        ....  1.000000
   Perturbative correction              ....  0.000000
   NL short-range parameter             ....  6.900000
 RI-approximation to the Coulomb term is turned on
   Number of AuxJ basis functions       .... 415
   RIJ-COSX (HFX calculated with COS-X)).... on


General Settings:
 Integral files         IntName         .... cs_rporg_074_ox_solv_04
 Hartree-Fock type      HFTyp           .... UHF
 Total Charge           Charge          ....    1
 Multiplicity           Mult            ....    2
 Number of Electrons    NEL             ....   47
 Basis Dimension        Dim             ....  529
 Nuclear Repulsion      ENuc            ....    259.2933768319 Eh

Convergence Acceleration:
 AO-DIIS                CNVDIIS         .... on
   Start iteration      DIISMaxIt       ....     0
   Startup error        DIISStart       ....  0.200000
   # of expansion vecs  DIISMaxEq       ....     5
   Bias factor          DIISBfac        ....   1.050
   Max. coefficient     DIISMaxC        ....  10.000
 MO-DIIS                CNVKDIIS        .... off
 Trust-Rad. Augm. Hess. CNVTRAH         .... auto
   Auto Start mean grad. ratio tolernc. ....  1.125000
   Auto Start start iteration           ....    50
   Auto Start num. interpolation iter.  ....    10
   Max. Number of Micro iterations      ....    24
   Max. Number of Macro iterations      .... Maxiter - #DIIS iter
   Number of Davidson start vectors     ....     2
   Converg. threshold    (grad. norm)   ....   1.000e-05
   Grad. Scal. Fac. for Micro threshold ....   0.100
   Minimum threshold for Micro iter.    ....   1.000e-02
   NR start threshold (gradient norm)   ....   1.000e-04
   Initial trust radius                 ....   0.400
   Minimum AH scaling param. (alpha)    ....   1.000
   Maximum AH scaling param. (alpha)    .... 1000.000
   Quad. conv. algorithm                .... NR
   White noise on init. David. guess    .... on
   Maximum white noise                  ....   0.010
   Pseudo random numbers                .... off
   Inactive MOs                         .... canonical
   Orbital update algorithm             .... Taylor
   Preconditioner                       .... Diag
   Full preconditioner red. dimension   ....   250
 SOSCF                  CNVSOSCF        .... on
   Start iteration      SOSCFMaxIt      ....   150
   Startup grad/error   SOSCFStart      ....  0.001000
   Hessian update       SOSCFHessUp     .... L-BFGS
 Level Shifting         CNVShift        .... on
   Level shift para.    LevelShift      ....    0.2500
   Turn off err/grad.   ShiftErr        ....    0.0000
 Zerner damping         CNVZerner       .... off
 Static damping         CNVDamp         .... on
   Fraction old density DampFac         ....    0.8500
   Max. Damping (<1)    DampMax         ....    0.9800
   Min. Damping (>=0)   DampMin         ....    0.0000
   Turn off err/grad.   DampErr         ....    0.0300

SCF Procedure:
 Maximum # iterations   MaxIter         ....  1500
 SCF integral mode      SCFMode         .... Direct
   Integral package                     .... SHARK and LIBINT hybrid scheme
 Reset frequency        DirectResetFreq ....    20
 Integral Threshold     Thresh          ....  2.500e-11 Eh
 Primitive CutOff       TCut            ....  2.500e-12 Eh

Convergence Tolerance:
 Convergence Check Mode ConvCheckMode   .... Total+1el-Energy
 Convergence forced     ConvForced      .... 0
 Energy Change          TolE            ....  1.000e-08 Eh
 1-El. energy change                    ....  1.000e-05 Eh
 Orbital Gradient       TolG            ....  1.000e-05
 Orbital Rotation angle TolX            ....  1.000e-05
 DIIS Error             TolErr          ....  5.000e-07

------------------------------
INITIAL GUESS: MODEL POTENTIAL
------------------------------
Loading Hartree-Fock densities                     ... done
Calculating cut-offs                               ... done
Initializing the effective Hamiltonian             ... done
Setting up the integral package (SHARK)            ... done
Starting the Coulomb interaction                   ... done (   0.5 sec)
Making the grid                                    ... done (   0.4 sec)
Mapping shells                                     ... done
Starting the XC term evaluation                    ... done (   0.7 sec)
  promolecular density results
     # of electrons  =     47.986252459
     EX              =    -35.374163369
     EC              =     -1.578803170
     EX+EC           =    -36.952966539
Transforming the Hamiltonian                       ... done (   0.0 sec)
Diagonalizing the Hamiltonian                      ... done (   0.1 sec)
Back transforming the eigenvectors                 ... done (   0.1 sec)
Now organizing SCF variables                       ... done
                      ------------------
                      INITIAL GUESS DONE (   2.0 sec)
                      ------------------
             **** ENERGY FILE WAS UPDATED (cs_rporg_074_ox_solv_04.en.tmp) ****
Finished Guess after   3.0 sec
Maximum memory used throughout the entire GUESS-calculation: 41.1 MB


           ************************************************************
           *        Program running with 4 parallel MPI-processes     *
           *              working on a common directory               *
           ************************************************************

-------------------------------------------------------------------------------------------
                                      ORCA LEAN-SCF
                              memory conserving SCF solver
-------------------------------------------------------------------------------------------

--------------------
CPCM SOLVATION MODEL
--------------------
CPCM parameters:
  Epsilon                                         ...      35.6880
  Refrac                                          ...       1.3442
  Rsolv                                           ...       2.1900
  Surface type                                    ...    GEPOL SES
  Discretization scheme                           ... Constant num. charges
  Epsilon function type                           ...         CPCM
Solvent:                                          ... ACETONITRILE
SMD-CDS solvent descriptors:
  Soln                                            ...       1.3442
  Soln25                                          ...       1.3416
  Sola                                            ...       0.0700
  Solb                                            ...       0.3200
  Solg                                            ...      41.2500
  Solc                                            ...       0.0000
  Solh                                            ...       0.0000
Radii:
  Scheme                                          ... Element-dependent radii
  Radius for C  used is    3.4960 Bohr (=   1.8500 Ang.)
  Radius for N  used is    3.5716 Bohr (=   1.8900 Ang.)
  Radius for H  used is    2.2677 Bohr (=   1.2000 Ang.)
Calculating surface                               ...        done! (  0.0s)
Cavity surface points                             ...          577
Cavity Volume                                     ...     731.0427
Cavity Surface-area                               ...     447.3389
Calculating surface distance matrix               ...        done! (  0.0s)
Performing Cholesky decomposition & store         ...        done! (  0.0s)
Overall time for CPCM initialization              ...                 0.1s

----------------------------------------D-I-I-S--------------------------------------------
Iteration    Energy (Eh)           Delta-E    RMSDP     MaxDP     DIISErr   Damp  Time(sec)
-------------------------------------------------------------------------------------------
               ***  Starting incremental Fock matrix formation  ***
    1    -251.3958851036694568     0.00e+00  2.24e-04  1.69e-02  7.24e-02  0.850  18.4
    2    -251.4210520165013918    -2.52e-02  2.12e-04  1.65e-02  5.54e-02  0.850  11.3
                               ***Turning on AO-DIIS***
    3    -251.4385020589128317    -1.75e-02  1.51e-04  1.08e-02  3.93e-02  0.850  10.6
    4    -251.4502039505464381    -1.17e-02  1.20e-04  7.85e-03  3.14e-02  0.850  10.3
    5    -251.4588301718828802    -8.63e-03  9.92e-05  6.31e-03  2.63e-02  0.850  10.2
    6    -251.4656730480655256    -6.84e-03  5.62e-04  3.57e-02  2.24e-02  0.000  11.0
    7    -251.5000553681405790    -3.44e-02  2.23e-05  1.90e-03  1.94e-03  0.000  11.5
                              *** Initializing SOSCF ***
---------------------------------------S-O-S-C-F--------------------------------------
Iteration    Energy (Eh)           Delta-E    RMSDP     MaxDP     MaxGrad    Time(sec)
--------------------------------------------------------------------------------------
    8    -251.5001370131107592    -8.16e-05  1.13e-05  7.74e-04  7.49e-04    11.0
               *** Restarting incremental Fock matrix formation ***
    9    -251.5001606013742048    -2.36e-05  1.94e-05  6.98e-04  1.16e-03    17.9
   10    -251.5001818433785274    -2.12e-05  1.28e-05  5.80e-04  5.02e-04    14.7
   11    -251.5001852722872968    -3.43e-06  6.69e-06  2.38e-04  2.62e-04    15.0
   12    -251.5001874083910138    -2.14e-06  1.00e-06  6.30e-05  2.63e-05    14.1
   13    -251.5001874417504837    -3.34e-08  6.89e-07  3.68e-05  1.74e-05    12.7
   14    -251.5001874494282674    -7.68e-09  1.37e-06  8.39e-05  1.08e-05    11.8
                 **** Energy Check signals convergence ****

               *****************************************************
               *                     SUCCESS                       *
               *           SCF CONVERGED AFTER  14 CYCLES          *
               *****************************************************

Recomputing exchange energy using gridx3       ... done (   21.760 sec)
Old exchange energy                            :     -9.042295878 Eh
New exchange energy                            :     -9.042357167 Eh
Exchange energy change after final integration :     -0.000061289 Eh
Total energy after final integration           :   -251.500248738 Eh

SMD CDS free energy correction energy :                -1.75975     Kcal/mol
Total Energy after SMD CDS correction =              -251.503053072 Eh
             **** ENERGY FILE WAS UPDATED (cs_rporg_074_ox_solv_04.en.tmp) ****

----------------
TOTAL SCF ENERGY
----------------

Total Energy       :       -251.50305307195075 Eh           -6843.74600 eV

Components:
Nuclear Repulsion  :        259.29337683188243 Eh            7055.73149 eV
Electronic Energy  :       -510.69484766952468 Eh          -13896.71330 eV
One Electron Energy:       -841.68003003047079 Eh          -22903.27800 eV
Two Electron Energy:        330.98518236094611 Eh            9006.56470 eV
CPCM Dielectric    :         -0.09871661178602 Eh              -2.68622 eV
SMD CDS (Gcds)     :         -0.00280433358366 Eh              -0.07631 eV

Virial components:
Potential Energy   :       -501.11873561199855 Eh          -13636.13404 eV
Kinetic Energy     :        249.61568254004780 Eh            6792.38804 eV
Virial Ratio       :          2.00756110558719

DFT components:
N(Alpha)           :       24.000021625027 electrons
N(Beta)            :       23.000017326490 electrons
N(Total)           :       47.000038951517 electrons
E(X)               :      -26.998081717311 Eh       
E(C)               :       -1.542007509506 Eh       
E(XC)              :      -28.540089226817 Eh       

CPCM Solvation Model Properties:
Surface-charge          :         -1.03444143059389
Corrected charge        :         -1.00000000000000
Outlying charge corr.   :          0.00009971199594 Eh               0.00271 eV
Free-energy (cav+disp)  :         -0.00280433358366 Eh              -0.07631 eV

---------------
SCF CONVERGENCE
---------------

  Last Energy change         ...    7.6778e-09  Tolerance :   1.0000e-08
  Last MAX-Density change    ...    8.3920e-05  Tolerance :   1.0000e-07
  Last RMS-Density change    ...    1.3735e-06  Tolerance :   5.0000e-09
  Last DIIS Error            ...    7.4875e-04  Tolerance :   5.0000e-07
  Last Orbital Gradient      ...    1.0816e-05  Tolerance :   1.0000e-05
  Last Orbital Rotation      ...    6.6190e-05  Tolerance :   1.0000e-05


----------------------
UHF SPIN CONTAMINATION
----------------------

Warning: in a DFT calculation there is little theoretical justification to 
         calculate <S**2> as in Hartree-Fock theory. We will do it anyways
         but you should keep in mind that the values have only limited relevance

Expectation value of <S**2>     :     0.755476
Ideal value S*(S+1) for S=0.5   :     0.750000
Deviation                       :     0.005476

----------------
ORBITAL ENERGIES
----------------
                 SPIN UP ORBITALS
  NO   OCC          E(Eh)            E(eV) 
   0   1.0000     -14.517208      -395.0333 
   1   1.0000     -10.289102      -279.9807 
   2   1.0000     -10.289088      -279.9803 
   3   1.0000     -10.249678      -278.9079 
   4   1.0000     -10.249675      -278.9078 
   5   1.0000     -10.234403      -278.4923 
   6   1.0000      -1.043157       -28.3857 
   7   1.0000      -0.839388       -22.8409 
   8   1.0000      -0.818148       -22.2629 
   9   1.0000      -0.698079       -18.9957 
  10   1.0000      -0.682829       -18.5807 
  11   1.0000      -0.622826       -16.9480 
  12   1.0000      -0.574660       -15.6373 
  13   1.0000      -0.516622       -14.0580 
  14   1.0000      -0.505278       -13.7493 
  15   1.0000      -0.484821       -13.1926 
  16   1.0000      -0.461196       -12.5498 
  17   1.0000      -0.448374       -12.2009 
  18   1.0000      -0.422755       -11.5038 
  19   1.0000      -0.386809       -10.5256 
  20   1.0000      -0.386381       -10.5140 
  21   1.0000      -0.360366        -9.8061 
  22   1.0000      -0.351879        -9.5751 
  23   1.0000      -0.311518        -8.4768 
  24   0.0000      -0.001647        -0.0448 
  25   0.0000       0.010867         0.2957 
  26   0.0000       0.015552         0.4232 
  27   0.0000       0.016017         0.4359 
  28   0.0000       0.034992         0.9522 
  29   0.0000       0.037153         1.0110 
  30   0.0000       0.040755         1.1090 
  31   0.0000       0.042417         1.1542 
  32   0.0000       0.044639         1.2147 
  33   0.0000       0.065066         1.7705 
  34   0.0000       0.067541         1.8379 

                 SPIN DOWN ORBITALS
  NO   OCC          E(Eh)            E(eV) 
   0   1.0000     -14.498970      -394.5370 
   1   1.0000     -10.289365      -279.9879 
   2   1.0000     -10.289353      -279.9875 
   3   1.0000     -10.247724      -278.8548 
   4   1.0000     -10.247723      -278.8547 
   5   1.0000     -10.234518      -278.4954 
   6   1.0000      -1.009100       -27.4590 
   7   1.0000      -0.831056       -22.6142 
   8   1.0000      -0.812173       -22.1004 
   9   1.0000      -0.686770       -18.6880 
  10   1.0000      -0.677535       -18.4367 
  11   1.0000      -0.614914       -16.7327 
  12   1.0000      -0.563510       -15.3339 
  13   1.0000      -0.509128       -13.8541 
  14   1.0000      -0.485126       -13.2009 
  15   1.0000      -0.474271       -12.9056 
  16   1.0000      -0.457632       -12.4528 
  17   1.0000      -0.436509       -11.8780 
  18   1.0000      -0.412338       -11.2203 
  19   1.0000      -0.380911       -10.3651 
  20   1.0000      -0.363055        -9.8792 
  21   1.0000      -0.358444        -9.7538 
  22   1.0000      -0.350243        -9.5306 
  23   0.0000      -0.164132        -4.4663 
  24   0.0000      -0.000178        -0.0049 
  25   0.0000       0.012394         0.3373 
  26   0.0000       0.016619         0.4522 
  27   0.0000       0.016655         0.4532 
  28   0.0000       0.036648         0.9972 
  29   0.0000       0.037527         1.0212 
  30   0.0000       0.041478         1.1287 
  31   0.0000       0.043131         1.1737 
  32   0.0000       0.045943         1.2502 
  33   0.0000       0.066171         1.8006 
*Only the first 10 virtual orbitals were printed.

                    ********************************
                    * MULLIKEN POPULATION ANALYSIS *
                    ********************************

--------------------------------------------
MULLIKEN ATOMIC CHARGES AND SPIN POPULATIONS
--------------------------------------------
   0 C :   -0.241224   -0.005261
   1 C :   -0.364039    0.101719
   2 C :   -0.188517   -0.060448
   3 N :   -0.043155    0.788685
   4 H :    0.134740   -0.003512
   5 C :   -0.188708   -0.060458
   6 C :   -0.364140    0.101764
   7 H :    0.201174    0.015929
   8 H :    0.202010    0.004136
   9 H :    0.264443   -0.000288
  10 H :    0.260327    0.039407
  11 H :    0.264314   -0.000296
  12 H :    0.260320    0.039441
  13 H :    0.201121    0.015928
  14 H :    0.201921    0.004149
  15 H :    0.170361    0.015763
  16 H :    0.229052    0.003340
Sum of atomic charges         :    1.0000000
Sum of atomic spin populations:    1.0000000

-----------------------------------------------------
MULLIKEN REDUCED ORBITAL CHARGES AND SPIN POPULATIONS
-----------------------------------------------------
CHARGE
  0 C s       :     3.196861  s :     3.196861
      pz      :     1.059315  p :     2.902739
      px      :     0.929209
      py      :     0.914215
      dz2     :     0.032925  d :     0.127693
      dxz     :     0.025424
      dyz     :     0.025781
      dx2y2   :     0.019583
      dxy     :     0.023980
      f0      :     0.003547  f :     0.013931
      f+1     :    -0.000871
      f-1     :     0.001937
      f+2     :     0.003942
      f-2     :     0.001701
      f+3     :     0.001303
      f-3     :     0.002373

  1 C s       :     3.287773  s :     3.287773
      pz      :     1.045788  p :     2.913075
      px      :     0.860031
      py      :     1.007256
      dz2     :     0.031383  d :     0.148648
      dxz     :     0.011263
      dyz     :     0.025642
      dx2y2   :     0.028513
      dxy     :     0.051846
      f0      :     0.003608  f :     0.014543
      f+1     :     0.000605
      f-1     :     0.000641
      f+2     :     0.002400
      f-2     :     0.002845
      f+3     :     0.002549
      f-3     :     0.001895

  2 C s       :     3.270461  s :     3.270461
      pz      :     1.059362  p :     2.746012
      px      :     0.912536
      py      :     0.774115
      dz2     :     0.048209  d :     0.146682
      dxz     :     0.012000
      dyz     :     0.019060
      dx2y2   :     0.028054
      dxy     :     0.039358
      f0      :     0.004284  f :     0.025362
      f+1     :     0.002364
      f-1     :     0.000981
      f+2     :     0.002911
      f-2     :     0.004310
      f+3     :     0.004110
      f-3     :     0.006403

  3 N s       :     3.689658  s :     3.689658
      pz      :     1.105845  p :     3.232090
      px      :     1.092296
      py      :     1.033949
      dz2     :     0.020564  d :     0.107425
      dxz     :     0.002220
      dyz     :     0.037095
      dx2y2   :     0.019880
      dxy     :     0.027665
      f0      :     0.000281  f :     0.013982
      f+1     :    -0.000026
      f-1     :     0.003866
      f+2     :    -0.000046
      f-2     :     0.004233
      f+3     :    -0.000017
      f-3     :     0.005691

  4 H s       :     0.745117  s :     0.745117
      pz      :     0.019329  p :     0.089396
      px      :     0.039185
      py      :     0.030882
      dz2     :     0.006696  d :     0.030747
      dxz     :     0.006591
      dyz     :     0.005306
      dx2y2   :     0.003928
      dxy     :     0.008226

  5 C s       :     3.270566  s :     3.270566
      pz      :     1.059403  p :     2.746007
      px      :     0.912571
      py      :     0.774034
      dz2     :     0.048229  d :     0.146785
      dxz     :     0.012046
      dyz     :     0.019087
      dx2y2   :     0.028031
      dxy     :     0.039393
      f0      :     0.004278  f :     0.025350
      f+1     :     0.002367
      f-1     :     0.000978
      f+2     :     0.002913
      f-2     :     0.004303
      f+3     :     0.004110
      f-3     :     0.006401

  6 C s       :     3.287744  s :     3.287744
      pz      :     1.045815  p :     2.913168
      px      :     0.860028
      py      :     1.007325
      dz2     :     0.031394  d :     0.148667
      dxz     :     0.011292
      dyz     :     0.025598
      dx2y2   :     0.028538
      dxy     :     0.051844
      f0      :     0.003611  f :     0.014561
      f+1     :     0.000604
      f-1     :     0.000641
      f+2     :     0.002402
      f-2     :     0.002850
      f+3     :     0.002552
      f-3     :     0.001902

  7 H s       :     0.753385  s :     0.753385
      pz      :     0.010646  p :     0.033821
      px      :     0.012806
      py      :     0.010369
      dz2     :     0.002936  d :     0.011620
      dxz     :     0.000487
      dyz     :     0.000519
      dx2y2   :     0.004734
      dxy     :     0.002944

  8 H s       :     0.740725  s :     0.740725
      pz      :     0.014914  p :     0.046483
      px      :     0.021251
      py      :     0.010317
      dz2     :     0.000055  d :     0.010783
      dxz     :     0.004196
      dyz     :     0.004726
      dx2y2   :     0.000748
      dxy     :     0.001057

  9 H s       :     0.694783  s :     0.694783
      pz      :     0.009274  p :     0.032808
      px      :     0.014209
      py      :     0.009325
      dz2     :     0.002029  d :     0.007965
      dxz     :     0.000746
      dyz     :     0.000595
      dx2y2   :     0.002187
      dxy     :     0.002408

 10 H s       :     0.698617  s :     0.698617
      pz      :     0.018193  p :     0.032178
      px      :     0.011616
      py      :     0.002369
      dz2     :     0.000065  d :     0.008878
      dxz     :     0.004760
      dyz     :     0.002914
      dx2y2   :     0.000445
      dxy     :     0.000693

 11 H s       :     0.694896  s :     0.694896
      pz      :     0.009265  p :     0.032822
      px      :     0.014212
      py      :     0.009345
      dz2     :     0.002031  d :     0.007968
      dxz     :     0.000745
      dyz     :     0.000596
      dx2y2   :     0.002187
      dxy     :     0.002410

 12 H s       :     0.698634  s :     0.698634
      pz      :     0.018159  p :     0.032172
      px      :     0.011634
      py      :     0.002380
      dz2     :     0.000065  d :     0.008875
      dxz     :     0.004760
      dyz     :     0.002914
      dx2y2   :     0.000445
      dxy     :     0.000691

 13 H s       :     0.753427  s :     0.753427
      pz      :     0.010655  p :     0.033833
      px      :     0.012806
      py      :     0.010372
      dz2     :     0.002938  d :     0.011620
      dxz     :     0.000486
      dyz     :     0.000519
      dx2y2   :     0.004734
      dxy     :     0.002943

 14 H s       :     0.740817  s :     0.740817
      pz      :     0.014903  p :     0.046476
      px      :     0.021257
      py      :     0.010316
      dz2     :     0.000055  d :     0.010786
      dxz     :     0.004199
      dyz     :     0.004727
      dx2y2   :     0.000749
      dxy     :     0.001058

 15 H s       :     0.779001  s :     0.779001
      pz      :     0.013711  p :     0.040062
      px      :     0.010324
      py      :     0.016028
      dz2     :     0.002830  d :     0.010576
      dxz     :    -0.000221
      dyz     :     0.000558
      dx2y2   :     0.001012
      dxy     :     0.006396

 16 H s       :     0.715863  s :     0.715863
      pz      :     0.014537  p :     0.043650
      px      :     0.008419
      py      :     0.020694
      dz2     :    -0.000369  d :     0.011434
      dxz     :     0.005614
      dyz     :     0.003842
      dx2y2   :     0.000860
      dxy     :     0.001486


SPIN
  0 C s       :    -0.005666  s :    -0.005666
      pz      :    -0.001728  p :    -0.001019
      px      :     0.003731
      py      :    -0.003022
      dz2     :    -0.000633  d :     0.000177
      dxz     :     0.000588
      dyz     :    -0.000117
      dx2y2   :     0.000104
      dxy     :     0.000234
      f0      :    -0.000025  f :     0.001247
      f+1     :     0.000035
      f-1     :     0.000144
      f+2     :     0.000410
      f-2     :    -0.000012
      f+3     :     0.000571
      f-3     :     0.000124

  1 C s       :     0.009366  s :     0.009366
      pz      :     0.008363  p :     0.090480
      px      :     0.082205
      py      :    -0.000089
      dz2     :    -0.000790  d :     0.001566
      dxz     :     0.000507
      dyz     :     0.000963
      dx2y2   :     0.000532
      dxy     :     0.000353
      f0      :    -0.000086  f :     0.000308
      f+1     :     0.000081
      f-1     :    -0.000004
      f+2     :     0.000177
      f-2     :     0.000026
      f+3     :     0.000006
      f-3     :     0.000107

  2 C s       :    -0.036629  s :    -0.036629
      pz      :    -0.014578  p :    -0.050874
      px      :    -0.016380
      py      :    -0.019916
      dz2     :     0.008536  d :     0.025085
      dxz     :     0.002870
      dyz     :     0.003317
      dx2y2   :     0.006725
      dxy     :     0.003637
      f0      :     0.000958  f :     0.001970
      f+1     :    -0.000448
      f-1     :     0.000477
      f+2     :     0.001482
      f-2     :    -0.000271
      f+3     :     0.000047
      f-3     :    -0.000276

  3 N s       :     0.023650  s :     0.023650
      pz      :     0.362469  p :     0.751929
      px      :     0.361124
      py      :     0.028336
      dz2     :     0.002996  d :     0.013484
      dxz     :    -0.000366
      dyz     :     0.003308
      dx2y2   :     0.003002
      dxy     :     0.004543
      f0      :    -0.000112  f :    -0.000378
      f+1     :    -0.000133
      f-1     :     0.000209
      f+2     :    -0.000260
      f-2     :    -0.000121
      f+3     :     0.000054
      f-3     :    -0.000016

  4 H s       :    -0.026420  s :    -0.026420
      pz      :     0.008296  p :     0.018908
      px      :     0.011467
      py      :    -0.000856
      dz2     :     0.002864  d :     0.004000
      dxz     :     0.000301
      dyz     :    -0.000187
      dx2y2   :     0.000885
      dxy     :     0.000137

  5 C s       :    -0.036638  s :    -0.036638
      pz      :    -0.014573  p :    -0.050874
      px      :    -0.016377
      py      :    -0.019924
      dz2     :     0.008540  d :     0.025085
      dxz     :     0.002873
      dyz     :     0.003322
      dx2y2   :     0.006723
      dxy     :     0.003627
      f0      :     0.000959  f :     0.001970
      f+1     :    -0.000447
      f-1     :     0.000477
      f+2     :     0.001482
      f-2     :    -0.000271
      f+3     :     0.000047
      f-3     :    -0.000276

  6 C s       :     0.009396  s :     0.009396
      pz      :     0.008369  p :     0.090492
      px      :     0.082218
      py      :    -0.000095
      dz2     :    -0.000782  d :     0.001569
      dxz     :     0.000509
      dyz     :     0.000960
      dx2y2   :     0.000535
      dxy     :     0.000347
      f0      :    -0.000086  f :     0.000308
      f+1     :     0.000081
      f-1     :    -0.000004
      f+2     :     0.000177
      f-2     :     0.000027
      f+3     :     0.000006
      f-3     :     0.000108

  7 H s       :     0.014546  s :     0.014546
      pz      :     0.000117  p :     0.000924
      px      :     0.000915
      py      :    -0.000108
      dz2     :     0.000099  d :     0.000459
      dxz     :    -0.000006
      dyz     :     0.000010
      dx2y2   :     0.000176
      dxy     :     0.000181

  8 H s       :     0.002093  s :     0.002093
      pz      :     0.001308  p :     0.001590
      px      :     0.000944
      py      :    -0.000661
      dz2     :     0.000061  d :     0.000453
      dxz     :     0.000384
      dyz     :     0.000030
      dx2y2   :    -0.000006
      dxy     :    -0.000016

  9 H s       :     0.001918  s :     0.001918
      pz      :    -0.001571  p :    -0.001914
      px      :    -0.000437
      py      :     0.000094
      dz2     :     0.000242  d :    -0.000292
      dxz     :     0.000011
      dyz     :    -0.000318
      dx2y2   :     0.000102
      dxy     :    -0.000330

 10 H s       :     0.036779  s :     0.036779
      pz      :     0.002940  p :     0.002270
      px      :    -0.000600
      py      :    -0.000070
      dz2     :    -0.000050  d :     0.000358
      dxz     :     0.000279
      dyz     :    -0.000066
      dx2y2   :     0.000099
      dxy     :     0.000096

 11 H s       :     0.001907  s :     0.001907
      pz      :    -0.001573  p :    -0.001911
      px      :    -0.000435
      py      :     0.000097
      dz2     :     0.000241  d :    -0.000293
      dxz     :     0.000011
      dyz     :    -0.000318
      dx2y2   :     0.000102
      dxy     :    -0.000330

 12 H s       :     0.036820  s :     0.036820
      pz      :     0.002930  p :     0.002263
      px      :    -0.000598
      py      :    -0.000070
      dz2     :    -0.000050  d :     0.000359
      dxz     :     0.000279
      dyz     :    -0.000066
      dx2y2   :     0.000100
      dxy     :     0.000096

 13 H s       :     0.014546  s :     0.014546
      pz      :     0.000116  p :     0.000923
      px      :     0.000913
      py      :    -0.000106
      dz2     :     0.000099  d :     0.000459
      dxz     :    -0.000006
      dyz     :     0.000010
      dx2y2   :     0.000176
      dxy     :     0.000181

 14 H s       :     0.002109  s :     0.002109
      pz      :     0.001303  p :     0.001587
      px      :     0.000944
      py      :    -0.000660
      dz2     :     0.000061  d :     0.000453
      dxz     :     0.000383
      dyz     :     0.000030
      dx2y2   :    -0.000006
      dxy     :    -0.000016

 15 H s       :     0.016415  s :     0.016415
      pz      :     0.000435  p :    -0.000921
      px      :    -0.001152
      py      :    -0.000204
      dz2     :     0.000055  d :     0.000269
      dxz     :     0.000020
      dyz     :     0.000019
      dx2y2   :     0.000030
      dxy     :     0.000145

 16 H s       :     0.002407  s :     0.002407
      pz      :     0.000102  p :     0.000809
      px      :     0.000636
      py      :     0.000071
      dz2     :     0.000017  d :     0.000125
      dxz     :     0.000093
      dyz     :    -0.000099
      dx2y2   :     0.000063
      dxy     :     0.000051



                     *******************************
                     * LOEWDIN POPULATION ANALYSIS *
                     *******************************

-------------------------------------------
LOEWDIN ATOMIC CHARGES AND SPIN POPULATIONS
-------------------------------------------
   0 C :    0.285048    0.014639
   1 C :    0.330875    0.055704
   2 C :    0.291078    0.101074
   3 N :    0.702640    0.511992
   4 H :   -0.144670    0.070330
   5 C :    0.291085    0.101070
   6 C :    0.330868    0.055708
   7 H :   -0.113238    0.012003
   8 H :   -0.115977    0.005700
   9 H :   -0.098715    0.003269
  10 H :   -0.098937    0.018969
  11 H :   -0.098720    0.003269
  12 H :   -0.098930    0.018975
  13 H :   -0.113238    0.012000
  14 H :   -0.115980    0.005700
  15 H :   -0.114941    0.008312
  16 H :   -0.118250    0.001285

----------------------------------------------------
LOEWDIN REDUCED ORBITAL CHARGES AND SPIN POPULATIONS
----------------------------------------------------
CHARGE
  0 C s       :     2.422600  s :     2.422600
      pz      :     0.758462  p :     2.224045
      px      :     0.748891
      py      :     0.716691
      dz2     :     0.168750  d :     0.740309
      dxz     :     0.091572
      dyz     :     0.127874
      dx2y2   :     0.208531
      dxy     :     0.143581
      f0      :     0.031981  f :     0.327999
      f+1     :     0.021470
      f-1     :     0.060529
      f+2     :     0.030189
      f-2     :     0.046534
      f+3     :     0.040006
      f-3     :     0.097290

  1 C s       :     2.429192  s :     2.429192
      pz      :     0.764535  p :     2.203083
      px      :     0.674618
      py      :     0.763931
      dz2     :     0.179118  d :     0.714763
      dxz     :     0.111062
      dyz     :     0.088203
      dx2y2   :     0.161441
      dxy     :     0.174939
      f0      :     0.028980  f :     0.322088
      f+1     :     0.058424
      f-1     :     0.030433
      f+2     :     0.037272
      f-2     :     0.037588
      f+3     :     0.038796
      f-3     :     0.090595

  2 C s       :     2.425355  s :     2.425355
      pz      :     0.759619  p :     2.174039
      px      :     0.715064
      py      :     0.699356
      dz2     :     0.177922  d :     0.744149
      dxz     :     0.110948
      dyz     :     0.091107
      dx2y2   :     0.149914
      dxy     :     0.214258
      f0      :     0.035847  f :     0.365378
      f+1     :     0.051532
      f-1     :     0.032285
      f+2     :     0.043637
      f-2     :     0.052101
      f+3     :     0.053773
      f-3     :     0.096203

  3 N s       :     2.634043  s :     2.634043
      pz      :     0.903839  p :     2.795968
      px      :     0.905591
      py      :     0.986539
      dz2     :     0.094408  d :     0.630979
      dxz     :     0.068721
      dyz     :     0.141870
      dx2y2   :     0.184430
      dxy     :     0.141550
      f0      :     0.011527  f :     0.236370
      f+1     :     0.016249
      f-1     :     0.053325
      f+2     :     0.020664
      f-2     :     0.030797
      f+3     :     0.027912
      f-3     :     0.075896

  4 H s       :     0.555050  s :     0.555050
      pz      :     0.138970  p :     0.338196
      px      :     0.115076
      py      :     0.084150
      dz2     :     0.060313  d :     0.251423
      dxz     :     0.066970
      dyz     :     0.050164
      dx2y2   :     0.030605
      dxy     :     0.043371

  5 C s       :     2.425357  s :     2.425357
      pz      :     0.759614  p :     2.174035
      px      :     0.715072
      py      :     0.699349
      dz2     :     0.177937  d :     0.744148
      dxz     :     0.110943
      dyz     :     0.091098
      dx2y2   :     0.149900
      dxy     :     0.214270
      f0      :     0.035843  f :     0.365375
      f+1     :     0.051537
      f-1     :     0.032289
      f+2     :     0.043636
      f-2     :     0.052102
      f+3     :     0.053771
      f-3     :     0.096197

  6 C s       :     2.429192  s :     2.429192
      pz      :     0.764534  p :     2.203084
      px      :     0.674615
      py      :     0.763935
      dz2     :     0.179134  d :     0.714766
      dxz     :     0.111068
      dyz     :     0.088188
      dx2y2   :     0.161449
      dxy     :     0.174927
      f0      :     0.028977  f :     0.322089
      f+1     :     0.058435
      f-1     :     0.030433
      f+2     :     0.037268
      f-2     :     0.037591
      f+3     :     0.038796
      f-3     :     0.090589

  7 H s       :     0.611040  s :     0.611040
      pz      :     0.090157  p :     0.284732
      px      :     0.082108
      py      :     0.112467
      dz2     :     0.044806  d :     0.217467
      dxz     :     0.019217
      dyz     :     0.045705
      dx2y2   :     0.060545
      dxy     :     0.047194

  8 H s       :     0.610209  s :     0.610209
      pz      :     0.138988  p :     0.288382
      px      :     0.071819
      py      :     0.077575
      dz2     :     0.055833  d :     0.217386
      dxz     :     0.071658
      dyz     :     0.075820
      dx2y2   :     0.006081
      dxy     :     0.007994

  9 H s       :     0.613692  s :     0.613692
      pz      :     0.084999  p :     0.272940
      px      :     0.088208
      py      :     0.099734
      dz2     :     0.040330  d :     0.212083
      dxz     :     0.023561
      dyz     :     0.041658
      dx2y2   :     0.062544
      dxy     :     0.043989

 10 H s       :     0.595309  s :     0.595309
      pz      :     0.139334  p :     0.283586
      px      :     0.075147
      py      :     0.069105
      dz2     :     0.056500  d :     0.220041
      dxz     :     0.076034
      dyz     :     0.070323
      dx2y2   :     0.006915
      dxy     :     0.010270

 11 H s       :     0.613690  s :     0.613690
      pz      :     0.085006  p :     0.272944
      px      :     0.088203
      py      :     0.099735
      dz2     :     0.040344  d :     0.212085
      dxz     :     0.023553
      dyz     :     0.041659
      dx2y2   :     0.062537
      dxy     :     0.043991

 12 H s       :     0.595309  s :     0.595309
      pz      :     0.139335  p :     0.283582
      px      :     0.075143
      py      :     0.069104
      dz2     :     0.056500  d :     0.220038
      dxz     :     0.076030
      dyz     :     0.070327
      dx2y2   :     0.006917
      dxy     :     0.010265

 13 H s       :     0.611044  s :     0.611044
      pz      :     0.090156  p :     0.284728
      px      :     0.082111
      py      :     0.112461
      dz2     :     0.044815  d :     0.217465
      dxz     :     0.019222
      dyz     :     0.045693
      dx2y2   :     0.060550
      dxy     :     0.047186

 14 H s       :     0.610208  s :     0.610208
      pz      :     0.138987  p :     0.288383
      px      :     0.071824
      py      :     0.077571
      dz2     :     0.055834  d :     0.217389
      dxz     :     0.071662
      dyz     :     0.075816
      dx2y2   :     0.006082
      dxy     :     0.007995

 15 H s       :     0.607875  s :     0.607875
      pz      :     0.093712  p :     0.286489
      px      :     0.119596
      py      :     0.073181
      dz2     :     0.053516  d :     0.220577
      dxz     :     0.051846
      dyz     :     0.008843
      dx2y2   :     0.034579
      dxy     :     0.071794

 16 H s       :     0.606736  s :     0.606736
      pz      :     0.138439  p :     0.290160
      px      :     0.079174
      py      :     0.072548
      dz2     :     0.057792  d :     0.221353
      dxz     :     0.077948
      dyz     :     0.068670
      dx2y2   :     0.006386
      dxy     :     0.010557


SPIN
  0 C s       :    -0.000396  s :    -0.000396
      pz      :    -0.000572  p :    -0.000070
      px      :     0.002609
      py      :    -0.002107
      dz2     :     0.000704  d :     0.009636
      dxz     :     0.000632
      dyz     :     0.000073
      dx2y2   :     0.008499
      dxy     :    -0.000272
      f0      :     0.000077  f :     0.005469
      f+1     :     0.000791
      f-1     :     0.000035
      f+2     :     0.001943
      f-2     :     0.000063
      f+3     :     0.002132
      f-3     :     0.000429

  1 C s       :     0.003085  s :     0.003085
      pz      :     0.003098  p :     0.050381
      px      :     0.046447
      py      :     0.000836
      dz2     :    -0.000616  d :     0.003159
      dxz     :     0.000173
      dyz     :     0.000123
      dx2y2   :     0.000119
      dxy     :     0.003359
      f0      :    -0.000193  f :    -0.000922
      f+1     :    -0.000083
      f-1     :     0.000014
      f+2     :     0.000008
      f-2     :    -0.000225
      f+3     :    -0.000095
      f-3     :    -0.000348

  2 C s       :    -0.001760  s :    -0.001760
      pz      :     0.002020  p :     0.001247
      px      :     0.007208
      py      :    -0.007980
      dz2     :     0.018159  d :     0.058752
      dxz     :     0.005097
      dyz     :     0.012426
      dx2y2   :     0.011206
      dxy     :     0.011864
      f0      :     0.004414  f :     0.042835
      f+1     :     0.004140
      f-1     :     0.008012
      f+2     :     0.009756
      f-2     :     0.001221
      f+3     :     0.004254
      f-3     :     0.011039

  3 N s       :     0.015237  s :     0.015237
      pz      :     0.237636  p :     0.488244
      px      :     0.237473
      py      :     0.013135
      dz2     :     0.005801  d :     0.006515
      dxz     :    -0.001217
      dyz     :    -0.001320
      dx2y2   :     0.005586
      dxy     :    -0.002334
      f0      :     0.000261  f :     0.001996
      f+1     :     0.001281
      f-1     :    -0.000466
      f+2     :     0.001746
      f-2     :    -0.000402
      f+3     :     0.000207
      f-3     :    -0.000632

  4 H s       :    -0.011477  s :    -0.011477
      pz      :     0.022930  p :     0.044867
      px      :     0.021742
      py      :     0.000195
      dz2     :     0.028404  d :     0.036940
      dxz     :     0.001175
      dyz     :     0.000280
      dx2y2   :     0.006900
      dxy     :     0.000181

  5 C s       :    -0.001760  s :    -0.001760
      pz      :     0.002020  p :     0.001248
      px      :     0.007209
      py      :    -0.007980
      dz2     :     0.018155  d :     0.058746
      dxz     :     0.005099
      dyz     :     0.012425
      dx2y2   :     0.011202
      dxy     :     0.011865
      f0      :     0.004412  f :     0.042836
      f+1     :     0.004140
      f-1     :     0.008017
      f+2     :     0.009757
      f-2     :     0.001220
      f+3     :     0.004255
      f-3     :     0.011036

  6 C s       :     0.003086  s :     0.003086
      pz      :     0.003097  p :     0.050383
      px      :     0.046450
      py      :     0.000836
      dz2     :    -0.000617  d :     0.003161
      dxz     :     0.000174
      dyz     :     0.000124
      dx2y2   :     0.000120
      dxy     :     0.003360
      f0      :    -0.000193  f :    -0.000921
      f+1     :    -0.000083
      f-1     :     0.000014
      f+2     :     0.000008
      f-2     :    -0.000225
      f+3     :    -0.000095
      f-3     :    -0.000347

  7 H s       :     0.004270  s :     0.004270
      pz      :     0.000235  p :     0.003531
      px      :     0.002997
      py      :     0.000298
      dz2     :     0.000764  d :     0.004202
      dxz     :     0.000302
      dyz     :     0.000235
      dx2y2   :     0.001130
      dxy     :     0.001771

  8 H s       :    -0.000875  s :    -0.000875
      pz      :     0.000433  p :     0.002071
      px      :     0.001733
      py      :    -0.000095
      dz2     :     0.000896  d :     0.004503
      dxz     :     0.003286
      dyz     :     0.000044
      dx2y2   :    -0.000089
      dxy     :     0.000366

  9 H s       :     0.001743  s :     0.001743
      pz      :     0.000318  p :    -0.000823
      px      :    -0.000589
      py      :    -0.000552
      dz2     :     0.002648  d :     0.002348
      dxz     :     0.000335
      dyz     :    -0.000501
      dx2y2   :     0.000367
      dxy     :    -0.000501

 10 H s       :     0.018209  s :     0.018209
      pz      :     0.000472  p :    -0.000275
      px      :    -0.001069
      py      :     0.000322
      dz2     :    -0.000266  d :     0.001034
      dxz     :    -0.000084
      dyz     :    -0.000243
      dx2y2   :     0.000360
      dxy     :     0.001268

 11 H s       :     0.001743  s :     0.001743
      pz      :     0.000318  p :    -0.000822
      px      :    -0.000588
      py      :    -0.000552
      dz2     :     0.002649  d :     0.002349
      dxz     :     0.000334
      dyz     :    -0.000501
      dx2y2   :     0.000368
      dxy     :    -0.000501

 12 H s       :     0.018215  s :     0.018215
      pz      :     0.000472  p :    -0.000274
      px      :    -0.001069
      py      :     0.000323
      dz2     :    -0.000266  d :     0.001035
      dxz     :    -0.000084
      dyz     :    -0.000243
      dx2y2   :     0.000360
      dxy     :     0.001268

 13 H s       :     0.004268  s :     0.004268
      pz      :     0.000235  p :     0.003530
      px      :     0.002997
      py      :     0.000298
      dz2     :     0.000764  d :     0.004202
      dxz     :     0.000302
      dyz     :     0.000235
      dx2y2   :     0.001130
      dxy     :     0.001770

 14 H s       :    -0.000874  s :    -0.000874
      pz      :     0.000434  p :     0.002071
      px      :     0.001733
      py      :    -0.000095
      dz2     :     0.000896  d :     0.004503
      dxz     :     0.003286
      dyz     :     0.000044
      dx2y2   :    -0.000090
      dxy     :     0.000366

 15 H s       :     0.007787  s :     0.007787
      pz      :     0.000120  p :     0.000476
      px      :     0.000626
      py      :    -0.000270
      dz2     :     0.000201  d :     0.000049
      dxz     :     0.000001
      dyz     :    -0.000036
      dx2y2   :    -0.000071
      dxy     :    -0.000045

 16 H s       :     0.000617  s :     0.000617
      pz      :     0.000136  p :     0.000463
      px      :     0.000520
      py      :    -0.000193
      dz2     :     0.000049  d :     0.000205
      dxz     :     0.000068
      dyz     :    -0.000160
      dx2y2   :     0.000281
      dxy     :    -0.000032



                      *****************************
                      * MAYER POPULATION ANALYSIS *
                      *****************************

  NA   - Mulliken gross atomic population
  ZA   - Total nuclear charge
  QA   - Mulliken gross atomic charge
  VA   - Mayer's total valence
  BVA  - Mayer's bonded valence
  FA   - Mayer's free valence

  ATOM       NA         ZA         QA         VA         BVA        FA
  0 C      6.2412     6.0000    -0.2412     3.9662     3.9660     0.0002
  1 C      6.3640     6.0000    -0.3640     4.1022     4.0938     0.0085
  2 C      6.1885     6.0000    -0.1885     3.8227     3.8112     0.0115
  3 N      7.0432     7.0000    -0.0432     3.5749     3.0807     0.4942
  4 H      0.8653     1.0000     0.1347     1.0479     1.0464     0.0015
  5 C      6.1887     6.0000    -0.1887     3.8228     3.8113     0.0115
  6 C      6.3641     6.0000    -0.3641     4.1026     4.0941     0.0085
  7 H      0.7988     1.0000     0.2012     0.9541     0.9538     0.0003
  8 H      0.7980     1.0000     0.2020     0.9891     0.9890     0.0000
  9 H      0.7356     1.0000     0.2644     0.9283     0.9283     0.0000
 10 H      0.7397     1.0000     0.2603     0.9588     0.9576     0.0012
 11 H      0.7357     1.0000     0.2643     0.9285     0.9285     0.0000
 12 H      0.7397     1.0000     0.2603     0.9587     0.9575     0.0012
 13 H      0.7989     1.0000     0.2011     0.9541     0.9538     0.0003
 14 H      0.7981     1.0000     0.2019     0.9892     0.9891     0.0000
 15 H      0.8296     1.0000     0.1704     0.9764     0.9762     0.0002
 16 H      0.7709     1.0000     0.2291     0.9816     0.9816     0.0000

  Mayer bond orders larger than 0.100000
B(  0-C ,  1-C ) :   0.9912 B(  0-C ,  6-C ) :   0.9916 B(  0-C , 15-H ) :   0.9701 
B(  0-C , 16-H ) :   0.9155 B(  1-C ,  2-C ) :   0.9312 B(  1-C ,  3-N ) :   0.1191 
B(  1-C , 13-H ) :   0.9231 B(  1-C , 14-H ) :   0.9688 B(  2-C ,  3-N ) :   0.9286 
B(  2-C , 11-H ) :   0.9269 B(  2-C , 12-H ) :   0.8681 B(  3-N ,  4-H ) :   0.9246 
B(  3-N ,  5-C ) :   0.9285 B(  3-N ,  6-C ) :   0.1191 B(  5-C ,  6-C ) :   0.9313 
B(  5-C ,  9-H ) :   0.9269 B(  5-C , 10-H ) :   0.8681 B(  6-C ,  7-H ) :   0.9230 
B(  6-C ,  8-H ) :   0.9687 

-------
TIMINGS
-------

Total SCF time: 0 days 0 hours 3 min 24 sec 

Total time                  ....     204.617 sec
Sum of individual times     ....     203.827 sec  ( 99.6%)

SCF preparation             ....       1.246 sec  (  0.6%)
Fock matrix formation       ....     190.654 sec  ( 93.2%)
  Startup                   ....       1.392 sec  (  0.7% of F)
  Split-RI-J                ....       9.569 sec  (  5.0% of F)
  Chain of spheres X        ....     119.576 sec  ( 62.7% of F)
  XC integration            ....      51.885 sec  ( 27.2% of F)
    XC Preparation          ....       0.000 sec  (  0.0% of XC)
    Basis function eval.    ....       6.214 sec  ( 12.0% of XC)
    Density eval.           ....      14.723 sec  ( 28.4% of XC)
    XC-Functional eval.     ....       0.492 sec  (  0.9% of XC)
    XC-Potential eval.      ....      28.652 sec  ( 55.2% of XC)
  CPCM terms                ....       5.010 sec  (  2.6% of F)
Diagonalization             ....       0.000 sec  (  0.0%)
Density matrix formation    ....       2.843 sec  (  1.4%)
Total Energy calculation    ....       1.375 sec  (  0.7%)
Population analysis         ....       0.370 sec  (  0.2%)
Orbital Transformation      ....       0.837 sec  (  0.4%)
Orbital Orthonormalization  ....       0.000 sec  (  0.0%)
DIIS solution               ....       4.166 sec  (  2.0%)
SOSCF solution              ....       2.335 sec  (  1.1%)
Finished LeanSCF after 205.0 sec

Maximum memory used throughout the entire LEANSCF-calculation: 76.3 MB


-------------------------------------------------------------------------------
                          DFT DISPERSION CORRECTION                            
                                                                               
                              DFTD3 V3.1  Rev 1                                
                          USING Becke-Johnson damping                          
-------------------------------------------------------------------------------
The PBE0 functional is recognized
Active option DFTDOPT                   ...         4   

molecular C6(AA) [au] = 1985.939321 


            DFT-D V3
 parameters
 s6 scaling factor         :     1.0000 
 a1 scaling factor         :     0.4145 
 s8 scaling factor         :     1.2177 
 a2 scaling factor         :     4.8593 
 ad hoc parameters k1-k3   :    16.0000     1.3333    -4.0000 

 Edisp/kcal,au: -7.738947511467  -0.012332796565 
 E6   /kcal   :  -5.030365873 
 E8   /kcal   :  -2.708581638 
 % E8         :  34.999354039 

-------------------------   ----------------
Dispersion correction           -0.012332797
-------------------------   ----------------


-------------------------   --------------------
FINAL SINGLE POINT ENERGY      -251.515385868515
-------------------------   --------------------



           ************************************************************
           *        Program running with 4 parallel MPI-processes     *
           *              working on a common directory               *
           ************************************************************

------------------------------------------------------------------------------
                              ORCA PROPERTY CALCULATIONS
------------------------------------------------------------------------------

GBWName                                 ... cs_rporg_074_ox_solv_04.gbw
Number of atoms                         ...     17
Number of basis functions               ...    565
Max core memory                         ...   3000 MB

Electric properties:
Dipole moment                           ... YES
Quadrupole moment                       ...  NO
Static polarizability (Dipole/Dipole)   ...  NO
Static polarizability (Dipole/Quad.)    ...  NO
Static polarizability (Quad./Quad.)     ...  NO
Static polarizability (Velocity)        ...  NO

Atomic electric properties:
Dipole moment                           ...  NO
Quadrupole moment                       ...  NO
Static polarizability                   ...  NO

Choice of electric origin               ... Center of mass
Position of electric origin             ...     0.025217    -0.000008     0.115100

General magnetic properties:
Magnetizability                         ...  NO

EPR properties:
g-Tensor (aka g-matrix)                 ...  NO
Zero-Field splitting spin-orbit         ...  NO
Zero-field splitting spin-spin          ...  NO
Hyperfine couplings                     ...  NO (   0 nuclei)
Quadrupole couplings                    ...  NO (   0 nuclei)
Contact density                         ...  NO (   0 nuclei)

NMR properties:
Chemical shifts                         ...  NO (   0 nuclei)
Spin-rotation constants                 ...  NO (   0 nuclei)
Spin-spin couplings                     ...  NO (   0 nuclei,    0 pairs)

Choice of magnetic origin               ... GIAO
Position of magnetic origin             ...     0.000000     0.000000     0.000000

Properties with geometric perturbations:
SCF Hessian                             ...  NO
IR spectrum                             ...  NO
VCD spectrum                            ...  NO
X-ray spectroscopy properties:
SCF XES/XAS/RIXS spectra                ...  NO


-------------
DIPOLE MOMENT
-------------

Method             : SCF
Type of density    : Electron Density
Multiplicity       :   2
Irrep              :   0
Energy             :  -251.5030530719507453 Eh
Relativity type    : 
Basis              : AO
                                X                 Y                 Z
Electronic contribution:      2.974601432      -0.000109218      -0.267818906
Nuclear contribution   :     -1.624364743       0.000100191       0.049600711
                        -----------------------------------------
Total Dipole Moment    :      1.350236689      -0.000009027      -0.218218195
                        -----------------------------------------
Magnitude (a.u.)       :      1.367756666
Magnitude (Debye)      :      3.476561157



--------------------
Rotational spectrum 
--------------------
 
Rotational constants in cm-1:             0.150674             0.148298             0.085270 
Rotational constants in MHz :          4517.103915          4445.872601          2556.320795 

Dipole components along the rotational axes: 
x,y,z [a.u.] :    -0.000156     1.332467    -0.308691 
x,y,z [Debye]:    -0.000396     3.386862    -0.784630 

 

Dipole moment calculation done in   0.0 sec 

Maximum memory used throughout the entire PROP-calculation: 42.8 MB

--------------------------------
SUGGESTED CITATIONS FOR THIS RUN
--------------------------------

Below you find a list of papers that are relevant to this ORCA run
We neither can nor want to force you to cite these papers, but we appreciate if you do
You receive ORCA, which is the product of decades of hard work by many enthusiastic individuals, for free
The only thing we kindly ask in return is that you cite our papers,
We deeply appreciate it, if you show your appreciation for ORCA by not just citing the generic ORCA reference.

Please note that relegating all ORCA citations to the supporting information does *not* help us.
SI sections are not indexed - citations you put there will not count into any citation statistics
But we need these citations in order to attract the funding resources that allow us to do what we are doing

Therefore, if you are a happy ORCA user, please consider citing a few of the papers listed below in the main body of your paper

In addition to the list printed below, the program has created the file cs_rporg_074_ox_solv_04.bibtex that contains the list in bibtex format
You can import this file easily into all common literature databanks and citation aid programs


List of essential papers. We consider these as the minimum necessary citations

  1. Neese,F.
     Software update: the ORCA program system, version 5.0
     WIRES Comput. Molec. Sci., 2022 12(1)e1606
     doi.org/10.1002/wcms.1606

List of papers to cite with high priority. The work reported in these papers was absolutely
necessary for this run to complete.
Our perspective: the developers of density functionals and basis sets usually get cited in chemistry papers
Good! But without the algorithms to do something with them, the functionals or basis sets would not do anything.
Hence, in our opinion, the algorithm design and method developments papers are equally worthy of getting cited

  1. Neese,F.
     An improvement of the resolution of the identity approximation for the formation of the Coulomb matrix
     J. Comp. Chem., 2003 24(14)1740-1747
     doi.org/10.1002/jcc.10318
  2. Neese,F.; Wennmohs,F.; Hansen,A.; Becker,U.
     Efficient, approximate and parallel Hartree-Fock and hybrid DFT calculations. A 'chain-of-spheres' algorithm for the Hartree-Fock exchange
     Chem. Phys., 2009 356(1-3)98-109
     doi.org/10.1016/j.chemphys.2008.10.036
  3. Garcia-Rates,M.; Neese,F.
     Effect of the Solute Cavity on the Solvation Energy and its Derivatives within the Framework of the Gaussian Charge Scheme
     J. Comput. Chem., 2020 41 922-939
     doi.org/10.1002/jcc.26139
  4. Helmich-Paris,B.; de Souza,B.; Neese,F.; Izsák,R.
     An improved chain of spheres for exchange algorithm
     J. Chem. Phys., 2021 155 104109
     doi.org/doi: 10.1063/5.0058766.
  5. Neese,F.
     The SHARK Integral Generation and Digestion System
     J. Comp. Chem., 2022  1-16
     doi.org/10.1002/jcc.26942
  6. Grimme,S.; Antony,J.; Ehrlich,S.; Krieg,H.
     A consistent and accurate ab initio parametrization of density functional dispersion correction (DFT-D) for the 94 elements H-Pu
     J. Chem. Phys., 2010 132 154104-XXXX
     doi.org/10.1063/1.3382344
  7. Grimme,S.; Ehrlich,S.; Goerigk,L.
     Effect of the damping function in dispersion corrected density functional theory
     J. Comput. Chem., 2011 32(7)1456-1465
     doi.org/10.1002/jcc.21759

List of suggested additional citations. These are papers that are important in the 'surrounding' of 
of this run, or papers that preceded the highly important papers. If you like your results we are grateful for a citation.

  1. Izsak,R.; Neese,F.
     An overlap fitted chain of spheres exchange method
     J. Chem. Phys., 2011 135 144105
     doi.org/10.1063/1.3646921
  2. Izsak,R.; Hansen,A.; Neese,F.
     The resolution of identity and chain of spheres approximations for the LPNO-CCSD singles Fock term
     Molec. Phys., 2012 110 2413-2417
     doi.org/10.1080/00268976.2012.687466
  3. Neese,F.
     The ORCA program system
     WIRES Comput. Molec. Sci., 2012 2(1)73-78
     doi.org/10.1002/wcms.81
  4. Izsak,R.; Neese,F.; Klopper,W.
     Robust fitting techniques in the chain of spheres approximation to the Fock exchange: The role of the complementary space
     J. Chem. Phys., 2013 139 
     doi.org/10.1063/1.4819264
  5. Neese,F.
     Software update: the ORCA program system, version 4.0
     WIRES Comput. Molec. Sci., 2018 8(1)1-6
     doi.org/10.1002/wcms.1327
  6. Neese,F.; Wennmohs,F.; Becker,U.; Riplinger,C.
     The ORCA quantum chemistry program package
     J. Chem. Phys., 2020 152 Art. No. L224108
     doi.org/10.1063/5.0004608

List of optional additional citations

  1. Neese,F.
     Approximate second-order SCF convergence for spin unrestricted wavefunctions
     Chem. Phys. Lett., 2000 325(1-3)93-98
     doi.org/10.1016/s0009-2614(00)00662-x

Timings for individual modules:

Sum of individual times          ...      222.048 sec (=   3.701 min)
Startup calculation              ...        9.426 sec (=   0.157 min)   4.2 %
SCF iterations                   ...      210.704 sec (=   3.512 min)  94.9 %
Property calculations            ...        1.917 sec (=   0.032 min)   0.9 %
                             ****ORCA TERMINATED NORMALLY****
TOTAL RUN TIME: 0 days 0 hours 3 minutes 45 seconds 50 msec
