
                                 *****************
                                 * O   R   C   A *
                                 *****************

                                            #,                                       
                                            ###                                      
                                            ####                                     
                                            #####                                    
                                            ######                                   
                                           ########,                                 
                                     ,,################,,,,,                         
                               ,,#################################,,                 
                          ,,##########################################,,             
                       ,#########################################, ''#####,          
                    ,#############################################,,   '####,        
                  ,##################################################,,,,####,       
                ,###########''''           ''''###############################       
              ,#####''   ,,,,##########,,,,          '''####'''          '####       
            ,##' ,,,,###########################,,,                        '##       
           ' ,,###''''                  '''############,,,                           
         ,,##''                                '''############,,,,        ,,,,,,###''
      ,#''                                            '''#######################'''  
     '                                                          ''''####''''         
             ,#######,   #######,   ,#######,      ##                                
            ,#'     '#,  ##    ##  ,#'     '#,    #''#        ,####,   ,####,        
            ##       ##  ##   ,#'  ##            #'  '#       #'       #'  '#        
            ##       ##  #######   ##           ,######,      #####,   #    #        
            '#,     ,#'  ##    ##  '#,     ,#' ,#      #,     #,   #   #,  ,#        
             '#######'   ##     ##  '#######'  #'      '#     '####' # '####'        



                #########################################################
                #                        -***-                          #
                #          Department of theory and spectroscopy        #
                #                                                       #
                #                      Frank Neese                      #
                #                                                       #
                #     Directorship, Architecture, Infrastructure        #
                #                    SHARK, DRIVERS                     #
                #        Core code/Algorithms in most modules           #
                #                                                       #
                #        Max Planck Institute fuer Kohlenforschung      #
                #                Kaiser Wilhelm Platz 1                 #
                #                 D-45470 Muelheim/Ruhr                 #
                #                      Germany                          #
                #                                                       #
                #                  All rights reserved                  #
                #                        -***-                          #
                #########################################################


                         Program Version 6.0.0  -   RELEASE  -


 With contributions from (in alphabetic order):
   Daniel Aravena         : Magnetic Suceptibility
   Michael Atanasov       : Ab Initio Ligand Field Theory (pilot matlab implementation)
   Alexander A. Auer      : GIAO ZORA, VPT2 properties, NMR spectrum
   Ute Becker             : All parallelization in ORCA, NUMFREQ, NUMCALC
   Giovanni Bistoni       : ED, misc. LED, open-shell LED, HFLD
   Martin Brehm           : Molecular dynamics
   Dmytro Bykov           : pre 5.0 version of the SCF Hessian
   Marcos Casanova-Páez   : Triplet and SCS-CIS(D). UHF-(DLPNO)-IP/EA/STEOM-CCSD. UHF-CVS-IP/STEOM-CCSD
   Vijay G. Chilkuri      : MRCI spin determinant printing, contributions to CSF-ICE
   Pauline Colinet        : FMM embedding
   Dipayan Datta          : RHF DLPNO-CCSD density
   Achintya Kumar Dutta   : EOM-CC, STEOM-CC
   Nicolas Foglia         : Exact transition moments, OPA infrastructure, MCD improvements
   Dmitry Ganyushin       : Spin-Orbit,Spin-Spin,Magnetic field MRCI
   Miquel Garcia          : C-PCM and meta-GGA Hessian, CCSD/C-PCM, Gaussian charge scheme
   Tiago L. C. Gouveia    : GS-ROHF, GS-ROCIS
   Yang Guo               : DLPNO-NEVPT2, F12-NEVPT2, CIM, IAO-localization
   Andreas Hansen         : Spin unrestricted coupled pair/coupled cluster methods
   Ingolf Harden          : AUTO-CI MPn and infrastructure 
   Benjamin Helmich-Paris : MC-RPA, TRAH-(SCF,CASSCF), AVAS, COSX integrals, SCF dyn. polar.
   Lee Huntington         : MR-EOM, pCC
   Robert Izsak           : Overlap fitted RIJCOSX, COSX-SCS-MP3, EOM
   Riya Kayal             : Wick's Theorem for AUTO-CI, AUTO-CI UHF-CCSDT
   Emily Kempfer          : AUTO-CI, RHF CISDT and CCSDT
   Christian Kollmar      : KDIIS, OOCD, Brueckner-CCSD(T), CCSD density, CASPT2, CASPT2-K, improved NEVPT2
   Axel Koslowski         : Symmetry handling
   Simone Kossmann        : Meta GGA functionals, TD-DFT gradient, OOMP2, (MP2 Hessian; deprecated post 5.0)
   Lucas Lang             : DCDCAS
   Marvin Lechner         : AUTO-CI (C++ implementation), FIC-MRCC
   Spencer Leger          : CASSCF response
   Dagmar Lenk            : GEPOL surface, SMD, ORCA-2-JSON
   Dimitrios Liakos       : Extrapolation schemes; Compound Job, initial MDCI parallelization
   Dimitrios Manganas     : Further ROCIS development; embedding schemes. LFT, Crystal Embedding
   Dimitrios Pantazis     : SARC Basis sets
   Anastasios Papadopoulos: AUTO-CI, single reference methods and gradients
   Taras Petrenko         : pre 6.0 DFT Hessian and TD-DFT gradient, (ASA, deprecated), ECA, 1-Electron XAS/XES, NRVS
   Peter Pinski           : DLPNO-MP2, DLPNO-MP2 Gradient
   Christoph Reimann      : Effective Core Potentials
   Marius Retegan         : Local ZFS, SOC
   Christoph Riplinger    : Optimizer, TS searches, QM/MM, DLPNO-CCSD(T), (RO)-DLPNO pert. Triples
   Michael Roemelt        : Original ROCIS implementation
   Masaaki Saitow         : Open-shell DLPNO-CCSD energy and density
   Barbara Sandhoefer     : DKH picture change effects
   Kantharuban Sivalingam : CASSCF convergence/infrastructure, NEVPT2 and variants, FIC-MRCI
   Bernardo de Souza      : ESD, SOC TD-DFT
   Georgi Stoychev        : AutoAux, RI-MP2 NMR, DLPNO-MP2 response, X2C
   Van Anh Tran           : RI-MP2 g-tensors
   Willem Van den Heuvel  : Paramagnetic NMR
   Zikuan Wang            : NOTCH, Electric field optimization 
   Frank Wennmohs         : Technical directorship and infrastructure
   Hang Xu                : AUTO-CI-Response properties 


 We gratefully acknowledge several colleagues who have allowed us to
 interface, adapt or use parts of their codes:
   Stefan Grimme, W. Hujo, H. Kruse, P. Pracht,  : VdW corrections, initial TS optimization,
                  C. Bannwarth, S. Ehlert,         DFT functionals, gCP, sTDA/sTD-DF
                  L. Wittmann, M. Mueller
   Ed Valeev, F. Pavosevic, A. Kumar             : LibInt (2-el integral package), F12 methods
   Garnet Chan, S. Sharma, J. Yang, R. Olivares  : DMRG
   Ulf Ekstrom                                   : XCFun DFT Library
   Mihaly Kallay                                 : mrcc  (arbitrary order and MRCC methods)
   Frank Weinhold                                : gennbo (NPA and NBO analysis)
   Simon Mueller                                 : openCOSMO-RS
   Christopher J. Cramer and Donald G. Truhlar   : smd solvation model
   Lars Goerigk                                  : TD-DFT with DH, B97 family of functionals
   V. Asgeirsson, H. Jonsson                     : NEB implementation
   FAccTs GmbH                                   : IRC, NEB, NEB-TS, DLPNO-Multilevel, CI-OPT
                                                   MM, QMMM, 2- and 3-layer-ONIOM, Crystal-QMMM,
                                                   LR-CPCM, SF, NACMEs, symmetry and pop. for TD-DFT,
                                                   nearIR, NL-DFT gradient (VV10), updates on ESD,
                                                   ML-optimized integration grids, MBIS, APM,
                                                   GOAT, DOCKER, SOLVATOR, interface openCOSMO-RS
   S Lehtola, MJT Oliveira, MAL Marques          : LibXC Library
   Liviu Ungur et al                             : ANISO software


 Your calculation uses the libint2 library for the computation of 2-el integrals
 For citations please refer to: http://libint.valeyev.net

 Your ORCA version has been built with support for libXC version: 6.2.2
 For citations please refer to: https://libxc.gitlab.io

 This ORCA versions uses:
   CBLAS   interface :  Fast vector & matrix operations
   LAPACKE interface :  Fast linear algebra routines
   SCALAPACK package :  Parallel linear algebra routines
   Shared memory     :  Shared parallel matrices
   BLAS/LAPACK       :  OpenBLAS 0.3.27  USE64BITINT DYNAMIC_ARCH NO_AFFINITY Sandybridge SINGLE_THREADED
        Core in use  :  Sandybridge
   Copyright (c) 2011-2014, The OpenBLAS Project


NOTE: MaxCore=3500 MB was set to SCF,MP2,MDCI,CIPSI,MRCI and CIS
      => If you want to overwrite this, your respective input block should be placed after the MaxCore statement
Your calculation utilizes the atom-pairwise dispersion correction
with the Becke-Johnson damping scheme (D3BJ)


Your calculation utilizes the SMD solvation module
Please cite in your paper:
A.V. Marenich, C.J. Cramer, D.G. Truhlar J. Phys. Chem. B, 113, (2009), 6378 

Warning: RI is on but no J-basis has been assigned. Assigning Def2/J (nothing to worry about!)
================================================================================

----- Orbital basis set information -----
Your calculation utilizes the basis: aug-cc-pVTZ 
    H, B-Ne : Obtained from the ccRepo (grant-hill.group.shef.ac.uk/ccrepo) Feb. 2017
              R. A. Kendall, T. H. Dunning, Jr., R. J. Harrison, J. Chem. Phys. 96, 6796 (1992)
         He : Obtained from the ccRepo (grant-hill.group.shef.ac.uk/ccrepo) Feb. 2017
              D. E. Woon, T. H. Dunning, Jr., J. Chem. Phys. 100, 2975 (1994)
  Li-Be, Na : Obtained from the ccRepo (grant-hill.group.shef.ac.uk/ccrepo) Feb. 2017
              B. P. Prascher, D. E. Woon, K. A. Peterson, T. H. Dunning, Jr., A. K. Wilson, Theor. Chem. Acc. 128, 69 (2011)
         Mg : Obtained from the Peterson Research Group Website (tyr0.chem.wsu.edu/~kipeters) Feb. 2017
              B. P. Prascher, D. E. Woon, K. A. Peterson, T. H. Dunning, Jr., A. K. Wilson, Theor. Chem. Acc. 128, 69 (2011)
      Al-Ar : Obtained from the ccRepo (grant-hill.group.shef.ac.uk/ccrepo) Feb. 2017
              D. E. Woon, T. H. Dunning, Jr., J. Chem. Phys. 98, 1358 (1993)
      Sc-Zn : Obtained from the ccRepo (grant-hill.group.shef.ac.uk/ccrepo) Feb. 2017
              N. B. Balabanov, K. A. Peterson, J. Chem. Phys. 123, 064107 (2005)
              N. B. Balabanov, K. A. Peterson, J. Chem. Phys. 125, 074110 (2006)
      Ga-Kr : Obtained from the ccRepo (grant-hill.group.shef.ac.uk/ccrepo) Feb. 2017
              A. K. Wilson, D. E. Woon, K. A. Peterson, T. H. Dunning, Jr., J. Chem. Phys. 110, 7667 (1999)
     Ag, Au : Obtained from the Peterson Research Group Website (tyr0.chem.wsu.edu/~kipeters) Feb. 2017
              K. A. Peterson, C. Puzzarini, Theor. Chem. Acc. 114, 283 (2005)

----- AuxJ basis set information -----
Your calculation utilizes the auxiliary basis: def2/J
   F. Weigend, Phys. Chem. Chem. Phys. 8, 1057 (2006).

================================================================================
                                        WARNINGS
                       Please study these warnings very carefully!
================================================================================

Using LibXC functional ID 497 : Re-regularized SCAN exchange by Furness et al
[ 1]  J. W. Furness, A. D. Kaplan, J. Ning, J. P. Perdew, and J. Sun.,  J. Phys. Chem. Lett. 11, 8208-8215 (2020)
[ 2]  J. W. Furness, A. D. Kaplan, J. Ning, J. P. Perdew, and J. Sun.,  J. Phys. Chem. Lett. 11, 9248-9248 (2020)
Using LibXC functional ID 498 : Re-regularized SCAN correlation by Furness et al
[ 1]  J. W. Furness, A. D. Kaplan, J. Ning, J. P. Perdew, and J. Sun.,  J. Phys. Chem. Lett. 11, 8208-8215 (2020)
[ 2]  J. W. Furness, A. D. Kaplan, J. Ning, J. P. Perdew, and J. Sun.,  J. Phys. Chem. Lett. 11, 9248-9248 (2020)
Using LibXC functional ID 497 : Re-regularized SCAN exchange by Furness et al
[ 1]  J. W. Furness, A. D. Kaplan, J. Ning, J. P. Perdew, and J. Sun.,  J. Phys. Chem. Lett. 11, 8208-8215 (2020)
[ 2]  J. W. Furness, A. D. Kaplan, J. Ning, J. P. Perdew, and J. Sun.,  J. Phys. Chem. Lett. 11, 9248-9248 (2020)
Using LibXC functional ID 498 : Re-regularized SCAN correlation by Furness et al
[ 1]  J. W. Furness, A. D. Kaplan, J. Ning, J. P. Perdew, and J. Sun.,  J. Phys. Chem. Lett. 11, 8208-8215 (2020)
[ 2]  J. W. Furness, A. D. Kaplan, J. Ning, J. P. Perdew, and J. Sun.,  J. Phys. Chem. Lett. 11, 9248-9248 (2020)


WARNING: Found flag for RIJCOSX approximation but no HF exchange needed!
  ===> : RIJCOSX  will be disabled and Split-RI-J is turned on

WARNING: your system is open-shell and RHF/RKS was chosen
  ===> : WILL SWITCH to UHF/UKS


================================================================================
                                       INPUT FILE
================================================================================
NAME = cs_rporg_w09_red_solv_03.inp
|  1> !r2SCAN aug-cc-pVTZ d3 TightSCF SlowConv RIJCOSX defgrid2
|  2> 
|  3> %pal
|  4> nprocs 15
|  5> end
|  6> 
|  7> %scf
|  8> MaxIter 1500
|  9> end
| 10> 
| 11> %maxcore 3500
| 12> 
| 13> !CPCM
| 14> %cpcm smd true
| 15> SMDsolvent "WATER"
| 16> surfacetype gepol_ses
| 17> rsolv 1.40
| 18> end
| 19> 
| 20> * xyz -1 2
| 21> C          -0.06058974015319     -0.02786640637996     -0.06636687374245
| 22> C          -0.02915253757207      1.41200889322469      0.08669635331984
| 23> C           0.02798442423532      2.03233434330205      1.32981811902407
| 24> C           0.05891841826264      1.28851377532912      2.57222906271290
| 25> C           0.02788466230184     -0.17442785622153      2.44488354658359
| 26> C          -0.02912762559812     -0.80604792656199      1.17894588306731
| 27> C          -0.05600083532212     -2.21190043304611      1.11490808218194
| 28> C          -0.02778223638882     -2.97912152092029      2.26676120872945
| 29> C           0.02864253401367     -2.35043181295908      3.52692854346035
| 30> C           0.05574276936416     -0.96875665770795      3.60660845784379
| 31> H           0.09961725693663     -0.44137362844551      4.56397519772263
| 32> H           0.05097367878843     -2.95610213708649      4.44040440744309
| 33> H          -0.04909796692647     -4.07320599895043      2.20123731713864
| 34> H          -0.09984497496410     -2.65971392423461      0.11785465933687
| 35> C           0.06118565181994      3.52761243856941      1.44630550499102
| 36> H          -0.83631875455019      3.99924775120952      0.99973118694746
| 37> H           0.10955815705607      3.79661097587730      2.51364550587021
| 38> H           0.93630443757164      3.96465252836867      0.92646488630537
| 39> C          -0.06070223464566      2.21802482702039     -1.17830606330920
| 40> H           0.83706819273596      2.85838996312933     -1.28473705482212
| 41> H          -0.10791860033235      1.52690469530484     -2.03502370536211
| 42> H          -0.93579834377862      2.89621056380490     -1.21654993473529
| 43> O           0.10927738480662      1.83885022543947      3.69657300623271
| 44> O          -0.11082371766120     -0.59470609206575     -1.18250068694010
| 45> *
| 46> 
| 47>                          ****END OF INPUT****
================================================================================

                       ****************************
                       * Single Point Calculation *
                       ****************************

---------------------------------
CARTESIAN COORDINATES (ANGSTROEM)
---------------------------------
  C     -0.060590   -0.027866   -0.066367
  C     -0.029153    1.412009    0.086696
  C      0.027984    2.032334    1.329818
  C      0.058918    1.288514    2.572229
  C      0.027885   -0.174428    2.444884
  C     -0.029128   -0.806048    1.178946
  C     -0.056001   -2.211900    1.114908
  C     -0.027782   -2.979122    2.266761
  C      0.028643   -2.350432    3.526929
  C      0.055743   -0.968757    3.606608
  H      0.099617   -0.441374    4.563975
  H      0.050974   -2.956102    4.440404
  H     -0.049098   -4.073206    2.201237
  H     -0.099845   -2.659714    0.117855
  C      0.061186    3.527612    1.446306
  H     -0.836319    3.999248    0.999731
  H      0.109558    3.796611    2.513646
  H      0.936304    3.964653    0.926465
  C     -0.060702    2.218025   -1.178306
  H      0.837068    2.858390   -1.284737
  H     -0.107919    1.526905   -2.035024
  H     -0.935798    2.896211   -1.216550
  O      0.109277    1.838850    3.696573
  O     -0.110824   -0.594706   -1.182501

----------------------------
CARTESIAN COORDINATES (A.U.)
----------------------------
  NO LB      ZA    FRAG     MASS         X           Y           Z
   0 C     6.0000    0    12.011   -0.114498   -0.052660   -0.125415
   1 C     6.0000    0    12.011   -0.055090    2.668310    0.163832
   2 C     6.0000    0    12.011    0.052883    3.840555    2.512992
   3 C     6.0000    0    12.011    0.111340    2.434938    4.860808
   4 C     6.0000    0    12.011    0.052694   -0.329621    4.620160
   5 C     6.0000    0    12.011   -0.055043   -1.523210    2.227885
   6 C     6.0000    0    12.011   -0.105826   -4.179886    2.106871
   7 C     6.0000    0    12.011   -0.052501   -5.629724    4.283558
   8 C     6.0000    0    12.011    0.054127   -4.441672    6.664929
   9 C     6.0000    0    12.011    0.105339   -1.830685    6.815502
  10 H     1.0000    0     1.008    0.188249   -0.834075    8.624663
  11 H     1.0000    0     1.008    0.096326   -5.586223    8.391148
  12 H     1.0000    0     1.008   -0.092782   -7.697244    4.159736
  13 H     1.0000    0     1.008   -0.188680   -5.026131    0.222713
  14 C     6.0000    0    12.011    0.115624    6.666221    2.733121
  15 H     1.0000    0     1.008   -1.580413    7.557483    1.889218
  16 H     1.0000    0     1.008    0.207035    7.174555    4.750102
  17 H     1.0000    0     1.008    1.769359    7.492107    1.750765
  18 C     6.0000    0    12.011   -0.114711    4.191459   -2.226676
  19 H     1.0000    0     1.008    1.581830    5.401574   -2.427801
  20 H     1.0000    0     1.008   -0.203937    2.885432   -3.845637
  21 H     1.0000    0     1.008   -1.768403    5.473045   -2.298946
  22 O     8.0000    0    15.999    0.206504    3.474923    6.985511
  23 O     8.0000    0    15.999   -0.209426   -1.123832   -2.234602

--------------------------------
INTERNAL COORDINATES (ANGSTROEM)
--------------------------------
 C      0   0   0     0.000000000000     0.00000000     0.00000000
 C      1   0   0     1.448329219341     0.00000000     0.00000000
 C      2   1   0     1.390474746547   122.60851115     0.00000000
 C      3   2   1     1.448382167221   122.59234565   359.91729432
 C      4   3   2     1.468801617582   115.89235289     0.07247685
 C      5   4   3     1.415906946850   121.51198582     0.00000000
 C      6   5   4     1.407566793915   119.14298502   179.96049191
 C      7   6   5     1.384265188518   121.01905865     0.00000000
 C      8   7   6     1.409416977028   119.83981694     0.00000000
 C      9   8   7     1.384236087577   119.83401399     0.00000000
 H     10   9   8     1.093896203869   122.16678317   180.00835962
 H      9   8   7     1.096254247716   119.96036143   179.99422178
 H      8   7   6     1.096252063079   120.19976933   180.00995856
 H      7   6   5     1.093880596536   116.81527632   180.01124999
 C      3   2   1     1.500176061264   120.99733519   179.90531135
 H     15   3   2     1.107873029331   112.03010326    60.03223112
 H     15   3   2     1.101778012947   108.63547743   180.24252074
 H     15   3   2     1.107732457818   111.98058032   300.53375704
 C      2   1   3     1.500296031787   116.39374242   179.96290654
 H     19   2   1     1.107874904391   111.99281940   239.97516484
 H     19   2   1     1.101744770741   108.63526221     0.19887516
 H     19   2   1     1.107786842086   112.00062783   120.48182468
 O      4   3   2     1.252819036079   123.03098487   180.06066282
 O      1   2   3     1.252830942597   123.01290911   180.06774257

---------------------------
INTERNAL COORDINATES (A.U.)
---------------------------
 C      0   0   0     0.000000000000     0.00000000     0.00000000
 C      1   0   0     2.736945576310     0.00000000     0.00000000
 C      2   1   0     2.627616467108   122.60851115     0.00000000
 C      3   2   1     2.737045633303   122.59234565   359.91729432
 C      4   3   2     2.775632802290   115.89235289     0.07247685
 C      5   4   3     2.675676360663   121.51198582     0.00000000
 C      6   5   4     2.659915755700   119.14298502   179.96049191
 C      7   6   5     2.615882103019   121.01905865     0.00000000
 C      8   7   6     2.663412095082   119.83981694     0.00000000
 C      9   8   7     2.615827110211   119.83401399     0.00000000
 H     10   9   8     2.067164244249   122.16678317   180.00835962
 H      9   8   7     2.071620301330   119.96036143   179.99422178
 H      8   7   6     2.071616172965   120.19976933   180.00995856
 H      7   6   5     2.067134750664   116.81527632   180.01124999
 C      3   2   1     2.834921908453   120.99733519   179.90531135
 H     15   3   2     2.093576616593   112.03010326    60.03223112
 H     15   3   2     2.082058704846   108.63547743   180.24252074
 H     15   3   2     2.093310974931   111.98058032   300.53375704
 C      2   1   3     2.835148619886   116.39374242   179.96290654
 H     19   2   1     2.093580159943   111.99281940   239.97516484
 H     19   2   1     2.081995886181   108.63526221     0.19887516
 H     19   2   1     2.093413746304   112.00062783   120.48182468
 O      4   3   2     2.367484873552   123.03098487   180.06066282
 O      1   2   3     2.367507373610   123.01290911   180.06774257

---------------------
BASIS SET INFORMATION
---------------------
There are 3 groups of distinct atoms

 Group   1 Type C   : 19s6p3d2f contracted to 5s4p3d2f pattern {88111/3111/111/11}
 Group   2 Type H   : 6s3p2d contracted to 4s3p2d pattern {3111/111/11}
 Group   3 Type O   : 19s6p3d2f contracted to 5s4p3d2f pattern {88111/3111/111/11}

Atom   0C    basis set group =>   1
Atom   1C    basis set group =>   1
Atom   2C    basis set group =>   1
Atom   3C    basis set group =>   1
Atom   4C    basis set group =>   1
Atom   5C    basis set group =>   1
Atom   6C    basis set group =>   1
Atom   7C    basis set group =>   1
Atom   8C    basis set group =>   1
Atom   9C    basis set group =>   1
Atom  10H    basis set group =>   2
Atom  11H    basis set group =>   2
Atom  12H    basis set group =>   2
Atom  13H    basis set group =>   2
Atom  14C    basis set group =>   1
Atom  15H    basis set group =>   2
Atom  16H    basis set group =>   2
Atom  17H    basis set group =>   2
Atom  18C    basis set group =>   1
Atom  19H    basis set group =>   2
Atom  20H    basis set group =>   2
Atom  21H    basis set group =>   2
Atom  22O    basis set group =>   3
Atom  23O    basis set group =>   3
---------------------------------
AUXILIARY/J BASIS SET INFORMATION
---------------------------------
There are 3 groups of distinct atoms

 Group   1 Type C   : 12s5p4d2f1g contracted to 6s4p3d1f1g pattern {711111/2111/211/2/1}
 Group   2 Type H   : 5s2p1d contracted to 3s1p1d pattern {311/2/1}
 Group   3 Type O   : 12s5p4d2f1g contracted to 6s4p3d1f1g pattern {711111/2111/211/2/1}

Atom   0C    basis set group =>   1
Atom   1C    basis set group =>   1
Atom   2C    basis set group =>   1
Atom   3C    basis set group =>   1
Atom   4C    basis set group =>   1
Atom   5C    basis set group =>   1
Atom   6C    basis set group =>   1
Atom   7C    basis set group =>   1
Atom   8C    basis set group =>   1
Atom   9C    basis set group =>   1
Atom  10H    basis set group =>   2
Atom  11H    basis set group =>   2
Atom  12H    basis set group =>   2
Atom  13H    basis set group =>   2
Atom  14C    basis set group =>   1
Atom  15H    basis set group =>   2
Atom  16H    basis set group =>   2
Atom  17H    basis set group =>   2
Atom  18C    basis set group =>   1
Atom  19H    basis set group =>   2
Atom  20H    basis set group =>   2
Atom  21H    basis set group =>   2
Atom  22O    basis set group =>   3
Atom  23O    basis set group =>   3


           ************************************************************
           *        Program running with 15 parallel MPI-processes    *
           *              working on a common directory               *
           ************************************************************
------------------------------------------------------------------------------
                             ORCA STARTUP CALCULATIONS
                           -- RI-GTO INTEGRALS CHOSEN --
------------------------------------------------------------------------------
------------------------------------------------------------------------------
                   ___                                                        
                  /   \      - P O W E R E D   B Y -                         
                 /     \                                                     
                 |  |  |   _    _      __       _____    __    __             
                 |  |  |  | |  | |    /  \     |  _  \  |  |  /  |          
                  \  \/   | |  | |   /    \    | | | |  |  | /  /          
                 / \  \   | |__| |  /  /\  \   | |_| |  |  |/  /          
                |  |  |   |  __  | /  /__\  \  |    /   |      \           
                |  |  |   | |  | | |   __   |  |    \   |  |\   \          
                \     /   | |  | | |  |  |  |  | |\  \  |  | \   \       
                 \___/    |_|  |_| |__|  |__|  |_| \__\ |__|  \__/        
                                                                              
                      - O R C A' S   B I G   F R I E N D -                    
                                      &                                       
                       - I N T E G R A L  F E E D E R -                       
                                                                              
 v1 FN, 2020, v2 2021, v3 2022-2024                                           
------------------------------------------------------------------------------


----------------------
SHARK INTEGRAL PACKAGE
----------------------

Number of atoms                             ...     24
Number of basis functions                   ...    958
Number of shells                            ...    370
Maximum angular momentum                    ...      3
Integral batch strategy                     ... SHARK/LIBINT Hybrid
RI-J (if used) integral strategy            ... SPLIT-RIJ (Revised 2003 algorithm where possible)
Printlevel                                  ...      1
Contraction scheme used                     ... PARTIAL GENERAL contraction
Prescreening option                         ... SCHWARTZ
   Thresh                                   ... 2.500e-11
   Tcut                                     ... 2.500e-12
   Tpresel                                  ... 2.500e-12 
Coulomb Range Separation                    ... NOT USED
Exchange Range Separation                   ... NOT USED
Multipole approximations                    ... NOT USED
Finite Nucleus Model                        ... NOT USED
CABS basis                                  ... NOT available
Auxiliary Coulomb fitting basis             ... AVAILABLE
   # of basis functions in Aux-J            ...    796
   # of shells in Aux-J                     ...    260
   Maximum angular momentum in Aux-J        ...      4
Auxiliary J/K fitting basis                 ... NOT available
Auxiliary Correlation fitting basis         ... NOT available
Auxiliary 'external' fitting basis          ... NOT available

Checking pre-screening integrals            ... done (  1.0 sec) Dimension = 370
Save PGC pre-screening integrals            ... done (  1.1 sec) Dimension = 370
Calculate PGC overlap integrals             ... done (  1.2 sec) Dimension = 286
Calculating pre-screening integrals (ORCA)  ... done (  1.3 sec) Dimension = 286
Check shell pair data                       ... done (  0.7 sec)
Shell pair information
Shell pair cut-off parameter TPreSel        ...   2.5e-12
Total number of shell pairs                 ...     68635
Shell pairs after pre-screening             ...     53642
Total number of primitive shell pairs       ...     87643
Primitive shell pairs kept                  ...     63261
          la=0 lb=0:  11989 shell pairs
          la=1 lb=0:  13599 shell pairs
          la=1 lb=1:   3393 shell pairs
          la=2 lb=0:   9503 shell pairs
          la=2 lb=1:   4750 shell pairs
          la=2 lb=2:   1720 shell pairs
          la=3 lb=0:   4481 shell pairs
          la=3 lb=1:   2220 shell pairs
          la=3 lb=2:   1596 shell pairs
          la=3 lb=3:    391 shell pairs

Calculating one electron integrals          ... done (  0.1 sec)
Calculating RI/J V-Matrix + Cholesky decomp.... done (  0.2 sec)
Calculating Nuclear repulsion               ... done (  0.0 sec) ENN=    831.497838093691 Eh

Diagonalization of the overlap matrix:
Smallest eigenvalue                        ... 1.664e-07
Time for diagonalization                   ...    0.268 sec
Threshold for overlap eigenvalues          ... 1.000e-07
Number of eigenvalues below threshold      ... 0

IMPORTANT:
Smallest eigenvalue of S below the DiffSThresh (1.000e-06) while
Thresh>1e-12 and/or TCut>1e-13! In order to avoid SCF convergence issues,
Thresh will be set to at least 1e-12 and TCut to at least 1e-13.
This can be turned off by adding %SCF DiffSThresh -1 END to the input.

Time for construction of square roots      ...    0.261 sec
Total time needed                          ...    1.236 sec

-------------------
DFT GRID GENERATION
-------------------

General Integration Accuracy     IntAcc      ... 4.388
Radial Grid Type                 RadialGrid  ... OptM3 with GC (2021)
Angular Grid (max. ang.)         AngularGrid ... 4 (Lebedev-302)
Angular grid pruning method      GridPruning ... 4 (adaptive)
Weight generation scheme         WeightScheme... mBecke (2022)
Basis function cutoff            BFCut       ... 1.0000e-11
Integration weight cutoff        WCut        ... 1.0000e-14
Partially contracted basis set               ... off
Rotationally invariant grid construction     ... off
Angular grids for H and He will be reduced by one unit
Diffuse basis detected: some atoms will have their outermost
                        angular grid increased by 1.

Total number of grid points                  ...   121177
Total number of batches                      ...     1907
Average number of points per batch           ...       63
Average number of grid points per atom       ...     5049

---------------------
SHARK GRID GENERATION
---------------------

General Integration Accuracy     IntAcc      ... 4.388
Radial Grid Type                 RadialGrid  ... OptM3 with GC (2021)
Angular Grid (max. ang.)         AngularGrid ... 4 (Lebedev-302)
Angular grid pruning method      GridPruning ... 4 (adaptive)
Weight generation scheme         WeightScheme... mBecke (2022)
Basis function cutoff            BFCut       ... 1.0000e-11
Integration weight cutoff        WCut        ... 1.0000e-14
Partially contracted basis set               ... off
Rotationally invariant grid construction     ... off
Angular grids for H and He will be reduced by one unit
Diffuse basis detected: some atoms will have their outermost
                        angular grid increased by 1.
Steep s-basis detected: some atoms will have their radial
                        grid points doubled.

Total number of grid points                  ...   208913
Total number of batches                      ...     3275
Average number of points per batch           ...       63
Average number of grid points per atom       ...     8705
Initializing property integral containers    ... done (  2.0 sec)

SHARK setup successfully completed in  15.3 seconds

Maximum memory used throughout the entire STARTUP-calculation: 103.1 MB


           ************************************************************
           *        Program running with 15 parallel MPI-processes    *
           *              working on a common directory               *
           ************************************************************
-------------------------------------------------------------------------------
                                 ORCA GUESS
                   Start orbitals & Density for SCF / CASSCF
-------------------------------------------------------------------------------

------------
SCF SETTINGS
------------
Hamiltonian:
 Density Functional     Method          .... DFT(GTOs)
  Functional kind                       .... Exchange
  Functional name                       .... Re-regularized SCAN exchange by Furness et al
  Functional family                     .... MGGA
  Functional refs                              
    [ 0] J. W. Furness, A. D. Kaplan, J. Ning, J. P. Perdew, and J. Sun.,  J. Phys. Chem. Lett. 11, 8208-8215 (2020), doi: 10.1021/acs.jpclett.0c02405
    [ 1] J. W. Furness, A. D. Kaplan, J. Ning, J. P. Perdew, and J. Sun.,  J. Phys. Chem. Lett. 11, 9248-9248 (2020), doi: 10.1021/acs.jpclett.0c03077
  Functional external parameters        .... 6
    Parameter  0 _c1        =  6.670000e-01 : c1 parameter        
    Parameter  1 _c2        =  8.000000e-01 : c2 parameter        
    Parameter  2 _d         =  1.240000e+00 : d parameter         
    Parameter  3 _k1        =  6.500000e-02 : k1 parameter        
    Parameter  4 _eta       =  1.000000e-03 : eta parameter       
    Parameter  5 _dp2       =  3.610000e-01 : dp2 parameter       
  Functional kind                       .... Correlation
  Functional name                       .... Re-regularized SCAN correlation by Furness et al
  Functional family                     .... MGGA
  Functional refs                              
    [ 0] J. W. Furness, A. D. Kaplan, J. Ning, J. P. Perdew, and J. Sun.,  J. Phys. Chem. Lett. 11, 8208-8215 (2020), doi: 10.1021/acs.jpclett.0c02405
    [ 1] J. W. Furness, A. D. Kaplan, J. Ning, J. P. Perdew, and J. Sun.,  J. Phys. Chem. Lett. 11, 9248-9248 (2020), doi: 10.1021/acs.jpclett.0c03077
  Functional external parameters        .... 1
    Parameter  0 _eta       =  1.000000e-03 : Regularization parameter
 Gradients option       PostSCFGGA      .... off
   NL short-range parameter             .... 12.300000
 RI-approximation to the Coulomb term is turned on
   Number of AuxJ basis functions       .... 796


General Settings:
 Integral files         IntName         .... cs_rporg_w09_red_solv_03
 Hartree-Fock type      HFTyp           .... UHF
 Total Charge           Charge          ....   -1
 Multiplicity           Mult            ....    2
 Number of Electrons    NEL             ....   99
 Basis Dimension        Dim             ....  874
 Nuclear Repulsion      ENuc            ....    831.4978380937 Eh

Convergence Acceleration:
 AO-DIIS                CNVDIIS         .... on
   Start iteration      DIISMaxIt       ....     0
   Startup error        DIISStart       ....  0.200000
   # of expansion vecs  DIISMaxEq       ....     5
   Bias factor          DIISBfac        ....   1.050
   Max. coefficient     DIISMaxC        ....  10.000
 MO-DIIS                CNVKDIIS        .... off
 Trust-Rad. Augm. Hess. CNVTRAH         .... auto
   Auto Start mean grad. ratio tolernc. ....  1.125000
   Auto Start start iteration           ....    50
   Auto Start num. interpolation iter.  ....    10
   Max. Number of Micro iterations      ....    24
   Max. Number of Macro iterations      .... Maxiter - #DIIS iter
   Number of Davidson start vectors     ....     2
   Converg. threshold    (grad. norm)   ....   1.000e-05
   Grad. Scal. Fac. for Micro threshold ....   0.100
   Minimum threshold for Micro iter.    ....   1.000e-02
   NR start threshold (gradient norm)   ....   1.000e-04
   Initial trust radius                 ....   0.400
   Minimum AH scaling param. (alpha)    ....   1.000
   Maximum AH scaling param. (alpha)    .... 1000.000
   Quad. conv. algorithm                .... NR
   White noise on init. David. guess    .... on
   Maximum white noise                  ....   0.010
   Pseudo random numbers                .... off
   Inactive MOs                         .... canonical
   Orbital update algorithm             .... Taylor
   Preconditioner                       .... Diag
   Full preconditioner red. dimension   ....   250
 SOSCF                  CNVSOSCF        .... on
   Start iteration      SOSCFMaxIt      ....   150
   Startup grad/error   SOSCFStart      ....  0.001000
   Hessian update       SOSCFHessUp     .... L-BFGS
 Level Shifting         CNVShift        .... on
   Level shift para.    LevelShift      ....    0.2500
   Turn off err/grad.   ShiftErr        ....    0.0000
 Zerner damping         CNVZerner       .... off
 Static damping         CNVDamp         .... on
   Fraction old density DampFac         ....    0.8500
   Max. Damping (<1)    DampMax         ....    0.9800
   Min. Damping (>=0)   DampMin         ....    0.0000
   Turn off err/grad.   DampErr         ....    0.0300

SCF Procedure:
 Maximum # iterations   MaxIter         ....  1500
 SCF integral mode      SCFMode         .... Direct
   Integral package                     .... SHARK and LIBINT hybrid scheme
 Reset frequency        DirectResetFreq ....    20
 Integral Threshold     Thresh          ....  1.000e-12 Eh
 Primitive CutOff       TCut            ....  1.000e-13 Eh

Convergence Tolerance:
 Convergence Check Mode ConvCheckMode   .... Total+1el-Energy
 Convergence forced     ConvForced      .... 0
 Energy Change          TolE            ....  1.000e-08 Eh
 1-El. energy change                    ....  1.000e-05 Eh
 Orbital Gradient       TolG            ....  1.000e-05
 Orbital Rotation angle TolX            ....  1.000e-05
 DIIS Error             TolErr          ....  5.000e-07

------------------------------
INITIAL GUESS: MODEL POTENTIAL
------------------------------
Loading Hartree-Fock densities                     ... done
Calculating cut-offs                               ... done
Initializing the effective Hamiltonian             ... done
Setting up the integral package (SHARK)            ... done
Starting the Coulomb interaction                   ... done (   2.0 sec)
Making the grid                                    ... done (   1.5 sec)
Mapping shells                                     ... done
Starting the XC term evaluation                    ... done (   0.6 sec)
  promolecular density results
     # of electrons  =     97.994929216
     EX              =    -80.571899758
     EC              =     -3.275306493
     EX+EC           =    -83.847206252
Transforming the Hamiltonian                       ... done (   0.8 sec)
Diagonalizing the Hamiltonian                      ... done (   0.3 sec)
Back transforming the eigenvectors                 ... done (   1.6 sec)
Now organizing SCF variables                       ... done
                      ------------------
                      INITIAL GUESS DONE (  14.8 sec)
                      ------------------
             **** ENERGY FILE WAS UPDATED (cs_rporg_w09_red_solv_03.en.tmp) ****
Finished Guess after  27.4 sec
Maximum memory used throughout the entire GUESS-calculation: 80.2 MB


           ************************************************************
           *        Program running with 15 parallel MPI-processes    *
           *              working on a common directory               *
           ************************************************************

-------------------------------------------------------------------------------------------
                                      ORCA LEAN-SCF
                              memory conserving SCF solver
-------------------------------------------------------------------------------------------

--------------------
CPCM SOLVATION MODEL
--------------------
CPCM parameters:
  Epsilon                                         ...      78.3550
  Refrac                                          ...       1.3328
  Rsolv                                           ...       1.4000
  Surface type                                    ...    GEPOL SES
  Discretization scheme                           ... Constant num. charges
  Epsilon function type                           ...         CPCM
Solvent:                                          ... WATER
SMD-CDS solvent descriptors:
  Soln                                            ...       1.3328
  Soln25                                          ...       1.3323
  Sola                                            ...       0.0000
  Solb                                            ...       0.0000
  Solg                                            ...       0.0000
  Solc                                            ...       0.0000
  Solh                                            ...       0.0000
Radii:
  Scheme                                          ... Element-dependent radii
  Radius for C  used is    3.4960 Bohr (=   1.8500 Ang.)
  Radius for H  used is    2.2677 Bohr (=   1.2000 Ang.)
  Radius for O  used is    2.8724 Bohr (=   1.5200 Ang.)
Calculating surface                               ...        done! (  0.1s)
Cavity surface points                             ...          847
Cavity Volume                                     ...    1291.1026
Cavity Surface-area                               ...     719.7723
Calculating surface distance matrix               ...        done! (  0.0s)
Performing Cholesky decomposition & store         ...        done! (  0.1s)
Overall time for CPCM initialization              ...                 0.1s

----------------------------------------D-I-I-S--------------------------------------------
Iteration    Energy (Eh)           Delta-E    RMSDP     MaxDP     DIISErr   Damp  Time(sec)
-------------------------------------------------------------------------------------------
               ***  Starting incremental Fock matrix formation  ***
    1    -613.4156709886621002     0.00e+00  1.26e-03  6.95e-02  1.51e-01  0.850  56.6
Warning: op=0 Small HOMO/LUMO gap (   0.060) - skipping pre-diagonalization
         Will do a full diagonalization
    2    -613.5184158914393038    -1.03e-01  1.26e-03  7.93e-02  1.06e-01  0.850  64.1
                               ***Turning on AO-DIIS***
    3    -613.5833445859703943    -6.49e-02  8.28e-04  5.34e-02  6.68e-02  0.850  57.1
    4    -613.6242602250280243    -4.09e-02  6.55e-04  4.20e-02  5.51e-02  0.850  57.4
    5    -613.6539116145437447    -2.97e-02  5.39e-04  3.51e-02  4.81e-02  0.850  58.4
    6    -613.6775918961442358    -2.37e-02  4.54e-04  2.99e-02  4.16e-02  0.850  60.3
    7    -613.6972149353788382    -1.96e-02  3.87e-04  2.56e-02  3.47e-02  0.850  59.4
    8    -613.7134366951612492    -1.62e-02  3.26e-04  2.13e-02  2.82e-02  0.850  57.6
    9    -613.7266862315954086    -1.32e-02  1.85e-03  1.20e-01  2.38e-02  0.000  55.1
   10    -613.7954149181911134    -6.87e-02  1.25e-04  7.03e-03  1.99e-03  0.000  56.5
   11    -613.7954113606116380     3.56e-06  6.94e-05  3.15e-03  4.18e-03  0.000  55.8
                              *** Initializing SOSCF ***
---------------------------------------S-O-S-C-F--------------------------------------
Iteration    Energy (Eh)           Delta-E    RMSDP     MaxDP     MaxGrad    Time(sec)
--------------------------------------------------------------------------------------
   12    -613.7955393645482900    -1.28e-04  2.59e-05  1.42e-03  9.48e-04    61.1
               *** Restarting incremental Fock matrix formation ***
   13    -613.7955492509209989    -9.89e-06  3.01e-05  3.15e-03  2.38e-04    51.0
   14    -613.7955482824748970     9.68e-07  9.84e-06  6.26e-04  3.96e-04    48.9
   15    -613.7955505332009807    -2.25e-06  9.30e-06  1.02e-03  2.55e-05    48.9
   16    -613.7955505212493108     1.20e-08  3.27e-06  2.89e-04  2.80e-05    49.0
   17    -613.7955505785788546    -5.73e-08  8.53e-06  9.43e-04  6.11e-06    50.7
   18    -613.7955506004826702    -2.19e-08  4.60e-06  3.91e-04  5.90e-06    48.4
   19    -613.7955506125471175    -1.21e-08  8.05e-06  7.16e-04  1.23e-06    50.3
                  *** Gradient check signals convergence ***

               *****************************************************
               *                     SUCCESS                       *
               *           SCF CONVERGED AFTER  19 CYCLES          *
               *****************************************************


SMD CDS free energy correction energy :                 5.43463     Kcal/mol
Total Energy after SMD CDS correction =              -613.786889974 Eh
             **** ENERGY FILE WAS UPDATED (cs_rporg_w09_red_solv_03.en.tmp) ****

----------------
TOTAL SCF ENERGY
----------------

Total Energy       :       -613.78688997390805 Eh          -16701.99039 eV

Components:
Nuclear Repulsion  :        831.49783809369148 Eh           22626.20647 eV
Electronic Energy  :      -1445.19369192546583 Eh          -39325.71964 eV
One Electron Energy:      -2499.39160037417150 Eh          -68011.90310 eV
Two Electron Energy:       1054.19790844870568 Eh           28686.18347 eV
CPCM Dielectric    :         -0.09969678077278 Eh              -2.71289 eV
SMD CDS (Gcds)     :          0.00866063863905 Eh               0.23567 eV

Virial components:
Potential Energy   :      -1224.19919879339614 Eh          -33312.15376 eV
Kinetic Energy     :        610.41230881948820 Eh           16610.16337 eV
Virial Ratio       :          2.00552836354324

DFT components:
N(Alpha)           :       50.000003188945 electrons
N(Beta)            :       49.000002534146 electrons
N(Total)           :       99.000005723091 electrons
E(X)               :      -82.803555043363 Eh       
E(C)               :       -3.237137429245 Eh       
E(XC)              :      -86.040692472608 Eh       

CPCM Solvation Model Properties:
Surface-charge          :          0.93639573868558
Corrected charge        :          1.00000000000000
Outlying charge corr.   :          0.00027195019960 Eh               0.00740 eV
Free-energy (cav+disp)  :          0.00866063863905 Eh               0.23567 eV

---------------
SCF CONVERGENCE
---------------

  Last Energy change         ...    1.2064e-08  Tolerance :   1.0000e-08
  Last MAX-Density change    ...    7.1643e-04  Tolerance :   1.0000e-07
  Last RMS-Density change    ...    8.0486e-06  Tolerance :   5.0000e-09
  Last DIIS Error            ...    9.4774e-04  Tolerance :   5.0000e-07
  Last Orbital Gradient      ...    1.2314e-06  Tolerance :   1.0000e-05
  Last Orbital Rotation      ...    7.1270e-06  Tolerance :   1.0000e-05


----------------------
UHF SPIN CONTAMINATION
----------------------

Warning: in a DFT calculation there is little theoretical justification to 
         calculate <S**2> as in Hartree-Fock theory. We will do it anyways
         but you should keep in mind that the values have only limited relevance

Expectation value of <S**2>     :     0.755265
Ideal value S*(S+1) for S=0.5   :     0.750000
Deviation                       :     0.005265

----------------
ORBITAL ENERGIES
----------------
                 SPIN UP ORBITALS
  NO   OCC          E(Eh)            E(eV) 
   0   1.0000     -18.913853      -514.6721 
   1   1.0000     -18.913797      -514.6706 
   2   1.0000     -10.084723      -274.4193 
   3   1.0000     -10.084684      -274.4182 
   4   1.0000     -10.037093      -273.1232 
   5   1.0000     -10.036701      -273.1125 
   6   1.0000     -10.036150      -273.0975 
   7   1.0000     -10.035777      -273.0874 
   8   1.0000     -10.034086      -273.0414 
   9   1.0000     -10.033972      -273.0383 
  10   1.0000     -10.033956      -273.0378 
  11   1.0000     -10.033622      -273.0287 
  12   1.0000     -10.017940      -272.6020 
  13   1.0000     -10.017926      -272.6016 
  14   1.0000      -0.972241       -26.4560 
  15   1.0000      -0.969972       -26.3943 
  16   1.0000      -0.821386       -22.3510 
  17   1.0000      -0.781439       -21.2640 
  18   1.0000      -0.721538       -19.6341 
  19   1.0000      -0.714186       -19.4340 
  20   1.0000      -0.689675       -18.7670 
  21   1.0000      -0.635650       -17.2969 
  22   1.0000      -0.619025       -16.8445 
  23   1.0000      -0.562712       -15.3122 
  24   1.0000      -0.550393       -14.9770 
  25   1.0000      -0.517272       -14.0757 
  26   1.0000      -0.478215       -13.0129 
  27   1.0000      -0.453197       -12.3321 
  28   1.0000      -0.431852       -11.7513 
  29   1.0000      -0.411898       -11.2083 
  30   1.0000      -0.406830       -11.0704 
  31   1.0000      -0.388884       -10.5821 
  32   1.0000      -0.384958       -10.4752 
  33   1.0000      -0.384698       -10.4682 
  34   1.0000      -0.367511       -10.0005 
  35   1.0000      -0.366301        -9.9675 
  36   1.0000      -0.350621        -9.5409 
  37   1.0000      -0.348919        -9.4946 
  38   1.0000      -0.340378        -9.2621 
  39   1.0000      -0.339896        -9.2490 
  40   1.0000      -0.323353        -8.7989 
  41   1.0000      -0.320958        -8.7337 
  42   1.0000      -0.302784        -8.2392 
  43   1.0000      -0.299209        -8.1419 
  44   1.0000      -0.246067        -6.6958 
  45   1.0000      -0.236675        -6.4403 
  46   1.0000      -0.220106        -5.9894 
  47   1.0000      -0.218250        -5.9389 
  48   1.0000      -0.204208        -5.5568 
  49   1.0000      -0.136988        -3.7276 
  50   0.0000      -0.053653        -1.4600 
  51   0.0000      -0.034393        -0.9359 
  52   0.0000       0.003023         0.0823 
  53   0.0000       0.017416         0.4739 
  54   0.0000       0.020693         0.5631 
  55   0.0000       0.027264         0.7419 
  56   0.0000       0.034524         0.9394 
  57   0.0000       0.036305         0.9879 
  58   0.0000       0.036915         1.0045 
  59   0.0000       0.041714         1.1351 
  60   0.0000       0.054146         1.4734 

                 SPIN DOWN ORBITALS
  NO   OCC          E(Eh)            E(eV) 
   0   1.0000     -18.907433      -514.4974 
   1   1.0000     -18.907370      -514.4957 
   2   1.0000     -10.082278      -274.3527 
   3   1.0000     -10.082243      -274.3518 
   4   1.0000     -10.036654      -273.1112 
   5   1.0000     -10.036263      -273.1006 
   6   1.0000     -10.035543      -273.0810 
   7   1.0000     -10.035173      -273.0709 
   8   1.0000     -10.033853      -273.0350 
   9   1.0000     -10.033840      -273.0347 
  10   1.0000     -10.032530      -272.9990 
  11   1.0000     -10.032067      -272.9864 
  12   1.0000     -10.018058      -272.6052 
  13   1.0000     -10.018043      -272.6048 
  14   1.0000      -0.962613       -26.1940 
  15   1.0000      -0.960240       -26.1295 
  16   1.0000      -0.819162       -22.2905 
  17   1.0000      -0.776984       -21.1428 
  18   1.0000      -0.719300       -19.5732 
  19   1.0000      -0.712038       -19.3756 
  20   1.0000      -0.686069       -18.6689 
  21   1.0000      -0.633665       -17.2429 
  22   1.0000      -0.611932       -16.6515 
  23   1.0000      -0.561711       -15.2849 
  24   1.0000      -0.546652       -14.8751 
  25   1.0000      -0.513894       -13.9838 
  26   1.0000      -0.476506       -12.9664 
  27   1.0000      -0.450487       -12.2584 
  28   1.0000      -0.429533       -11.6882 
  29   1.0000      -0.411049       -11.1852 
  30   1.0000      -0.396695       -10.7946 
  31   1.0000      -0.386874       -10.5274 
  32   1.0000      -0.383156       -10.4262 
  33   1.0000      -0.380976       -10.3669 
  34   1.0000      -0.361014        -9.8237 
  35   1.0000      -0.357100        -9.7172 
  36   1.0000      -0.349388        -9.5073 
  37   1.0000      -0.347941        -9.4680 
  38   1.0000      -0.339230        -9.2309 
  39   1.0000      -0.324507        -8.8303 
  40   1.0000      -0.320099        -8.7103 
  41   1.0000      -0.312521        -8.5041 
  42   1.0000      -0.301454        -8.2030 
  43   1.0000      -0.297854        -8.1050 
  44   1.0000      -0.231324        -6.2947 
  45   1.0000      -0.231254        -6.2927 
  46   1.0000      -0.213325        -5.8049 
  47   1.0000      -0.209980        -5.7139 
  48   1.0000      -0.199269        -5.4224 
  49   0.0000      -0.108330        -2.9478 
  50   0.0000      -0.045943        -1.2502 
  51   0.0000      -0.023761        -0.6466 
  52   0.0000       0.004076         0.1109 
  53   0.0000       0.018046         0.4911 
  54   0.0000       0.021396         0.5822 
  55   0.0000       0.034987         0.9521 
  56   0.0000       0.035106         0.9553 
  57   0.0000       0.036954         1.0056 
  58   0.0000       0.042534         1.1574 
  59   0.0000       0.050666         1.3787 
*Only the first 10 virtual orbitals were printed.

                    ********************************
                    * MULLIKEN POPULATION ANALYSIS *
                    ********************************

--------------------------------------------
MULLIKEN ATOMIC CHARGES AND SPIN POPULATIONS
--------------------------------------------
   0 C :    1.228915    0.135902
   1 C :    0.112307    0.085097
   2 C :    0.112308    0.084387
   3 C :    1.227760    0.136060
   4 C :    1.146767    0.026450
   5 C :    1.148001    0.027689
   6 C :   -1.183917    0.016216
   7 C :   -0.454787    0.026416
   8 C :   -0.455761    0.026130
   9 C :   -1.181703    0.016430
  10 H :   -0.034331   -0.009824
  11 H :    0.618407   -0.000342
  12 H :    0.616163   -0.000280
  13 H :   -0.034480   -0.009966
  14 C :   -0.953653   -0.004061
  15 H :    0.148218    0.006444
  16 H :    0.190435   -0.005260
  17 H :    0.147022    0.006372
  18 C :   -0.953095   -0.004181
  19 H :    0.147920    0.006500
  20 H :    0.189088   -0.005145
  21 H :    0.147429    0.006411
  22 O :   -1.464900    0.216196
  23 O :   -1.464112    0.216360
Sum of atomic charges         :   -1.0000000
Sum of atomic spin populations:    1.0000000

-----------------------------------------------------
MULLIKEN REDUCED ORBITAL CHARGES AND SPIN POPULATIONS
-----------------------------------------------------
CHARGE
  0 C s       :     3.313342  s :     3.313342
      pz      :     0.320020  p :     1.334968
      px      :     0.773855
      py      :     0.241094
      dz2     :    -0.021045  d :     0.174616
      dxz     :     0.036764
      dyz     :     0.090530
      dx2y2   :     0.043875
      dxy     :     0.024493
      f0      :    -0.028749  f :    -0.051841
      f+1     :     0.000706
      f-1     :    -0.005918
      f+2     :    -0.018482
      f-2     :     0.000332
      f+3     :     0.000663
      f-3     :    -0.000392

  1 C s       :     3.336546  s :     3.336546
      pz      :     0.771974  p :     2.367453
      px      :     0.967168
      py      :     0.628311
      dz2     :    -0.019332  d :     0.284664
      dxz     :     0.025506
      dyz     :     0.207306
      dx2y2   :     0.043886
      dxy     :     0.027298
      f0      :    -0.053171  f :    -0.100970
      f+1     :    -0.001421
      f-1     :    -0.005145
      f+2     :    -0.029574
      f-2     :    -0.009159
      f+3     :    -0.002026
      f-3     :    -0.000475

  2 C s       :     3.336644  s :     3.336644
      pz      :     0.846074  p :     2.367229
      px      :     0.967150
      py      :     0.554005
      dz2     :     0.054396  d :     0.284767
      dxz     :     0.052985
      dyz     :     0.204239
      dx2y2   :    -0.027257
      dxy     :     0.000404
      f0      :    -0.054298  f :    -0.100948
      f+1     :    -0.006850
      f-1     :    -0.012970
      f+2     :    -0.021405
      f-2     :    -0.001203
      f+3     :    -0.004553
      f-3     :     0.000332

  3 C s       :     3.313295  s :     3.313295
      pz      :     0.554515  p :     1.337183
      px      :     0.774005
      py      :     0.008663
      dz2     :     0.008356  d :     0.173790
      dxz     :     0.053460
      dyz     :     0.056020
      dx2y2   :     0.048259
      dxy     :     0.007695
      f0      :    -0.027047  f :    -0.052028
      f+1     :     0.000775
      f-1     :    -0.009182
      f+2     :    -0.016543
      f-2     :    -0.000313
      f+3     :     0.001261
      f-3     :    -0.000979

  4 C s       :     3.401102  s :     3.401102
      pz      :     0.393243  p :     1.715295
      px      :     1.000287
      py      :     0.321765
      dz2     :    -0.230270  d :    -0.129019
      dxz     :    -0.031254
      dyz     :     0.113037
      dx2y2   :     0.007966
      dxy     :     0.011503
      f0      :    -0.065289  f :    -0.134146
      f+1     :    -0.000277
      f-1     :    -0.003829
      f+2     :    -0.054531
      f-2     :    -0.007037
      f+3     :    -0.000960
      f-3     :    -0.002224

  5 C s       :     3.399093  s :     3.399093
      pz      :     0.568011  p :     1.714972
      px      :     1.000136
      py      :     0.146825
      dz2     :     0.007263  d :    -0.127893
      dxz     :     0.003029
      dyz     :    -0.061137
      dx2y2   :    -0.054599
      dxy     :    -0.022449
      f0      :    -0.079652  f :    -0.134174
      f+1     :    -0.006117
      f-1     :    -0.011902
      f+2     :    -0.031384
      f-2     :    -0.001162
      f+3     :    -0.001000
      f-3     :    -0.002956

  6 C s       :     4.332704  s :     4.332704
      pz      :     0.666995  p :     2.738741
      px      :     0.966510
      py      :     1.105235
      dz2     :     0.026426  d :     0.130132
      dxz     :     0.014792
      dyz     :     0.057833
      dx2y2   :     0.013399
      dxy     :     0.017682
      f0      :    -0.008290  f :    -0.017660
      f+1     :     0.000354
      f-1     :     0.000544
      f+2     :    -0.009750
      f-2     :    -0.000504
      f+3     :     0.000836
      f-3     :    -0.000850

  7 C s       :     3.700927  s :     3.700927
      pz      :     0.839154  p :     2.721428
      px      :     0.967001
      py      :     0.915274
      dz2     :     0.004785  d :     0.032944
      dxz     :     0.040050
      dyz     :     0.004876
      dx2y2   :    -0.026911
      dxy     :     0.010143
      f0      :    -0.003080  f :    -0.000512
      f+1     :     0.000340
      f-1     :     0.000159
      f+2     :    -0.001997
      f-2     :     0.000534
      f+3     :     0.000452
      f-3     :     0.003079

  8 C s       :     3.702132  s :     3.702132
      pz      :     0.794290  p :     2.721504
      px      :     0.967048
      py      :     0.960167
      dz2     :    -0.036449  d :     0.032693
      dxz     :     0.020833
      dyz     :     0.024674
      dx2y2   :    -0.005674
      dxy     :     0.029309
      f0      :    -0.004602  f :    -0.000569
      f+1     :     0.000719
      f-1     :     0.005032
      f+2     :    -0.002127
      f-2     :     0.000480
      f+3     :     0.000131
      f-3     :    -0.000202

  9 C s       :     4.332546  s :     4.332546
      pz      :     1.137284  p :     2.736130
      px      :     0.966402
      py      :     0.632444
      dz2     :    -0.014433  d :     0.130693
      dxz     :     0.014095
      dyz     :     0.086515
      dx2y2   :     0.026208
      dxy     :     0.018307
      f0      :    -0.012929  f :    -0.017666
      f+1     :     0.000563
      f-1     :     0.004367
      f+2     :    -0.007634
      f-2     :     0.000500
      f+3     :    -0.000374
      f-3     :    -0.002159

 10 H s       :     1.011383  s :     1.011383
      pz      :    -0.000636  p :     0.014948
      px      :     0.026042
      py      :    -0.010458
      dz2     :     0.004375  d :     0.008000
      dxz     :     0.004673
      dyz     :    -0.001398
      dx2y2   :    -0.000404
      dxy     :     0.000754

 11 H s       :     0.386366  s :     0.386366
      pz      :    -0.009964  p :    -0.013497
      px      :     0.019049
      py      :    -0.022582
      dz2     :     0.001025  d :     0.008724
      dxz     :     0.003975
      dyz     :     0.001687
      dx2y2   :     0.000635
      dxy     :     0.001402

 12 H s       :     0.388703  s :     0.388703
      pz      :     0.007632  p :    -0.013594
      px      :     0.019058
      py      :    -0.040284
      dz2     :     0.001000  d :     0.008728
      dxz     :    -0.000366
      dyz     :     0.002155
      dx2y2   :     0.000199
      dxy     :     0.005740

 13 H s       :     1.011370  s :     1.011370
      pz      :    -0.029413  p :     0.015064
      px      :     0.026050
      py      :     0.018427
      dz2     :    -0.000895  d :     0.008046
      dxz     :     0.004616
      dyz     :     0.003781
      dx2y2   :    -0.000269
      dxy     :     0.000812

 14 C s       :     3.733819  s :     3.733819
      pz      :     1.117668  p :     3.167653
      px      :     1.102760
      py      :     0.947225
      dz2     :     0.002676  d :     0.041044
      dxz     :     0.014491
      dyz     :    -0.004386
      dx2y2   :     0.010654
      dxy     :     0.017608
      f0      :     0.007204  f :     0.011136
      f+1     :     0.000329
      f-1     :     0.003603
      f+2     :    -0.002487
      f-2     :     0.000526
      f+3     :     0.003390
      f-3     :    -0.001428

 15 H s       :     0.793315  s :     0.793315
      pz      :     0.010405  p :     0.050844
      px      :     0.013066
      py      :     0.027373
      dz2     :     0.002040  d :     0.007623
      dxz     :     0.000748
      dyz     :     0.000058
      dx2y2   :     0.002683
      dxy     :     0.002095

 16 H s       :     0.777426  s :     0.777426
      pz      :    -0.004074  p :     0.024736
      px      :     0.017694
      py      :     0.011117
      dz2     :    -0.000973  d :     0.007403
      dxz     :     0.003422
      dyz     :     0.002938
      dx2y2   :     0.001856
      dxy     :     0.000161

 17 H s       :     0.794975  s :     0.794975
      pz      :     0.009276  p :     0.050390
      px      :     0.014256
      py      :     0.026857
      dz2     :     0.002395  d :     0.007613
      dxz     :     0.000289
      dyz     :     0.000219
      dx2y2   :     0.002452
      dxy     :     0.002258

 18 C s       :     3.734189  s :     3.734189
      pz      :     0.975100  p :     3.166953
      px      :     1.102591
      py      :     1.089262
      dz2     :    -0.005509  d :     0.040787
      dxz     :     0.001322
      dyz     :     0.004817
      dx2y2   :     0.009376
      dxy     :     0.030780
      f0      :     0.001133  f :     0.011166
      f+1     :     0.003103
      f-1     :     0.003690
      f+2     :     0.001688
      f-2     :     0.000637
      f+3     :     0.000516
      f-3     :     0.000400

 19 H s       :     0.794074  s :     0.794074
      pz      :     0.015857  p :     0.050398
      px      :     0.012854
      py      :     0.021688
      dz2     :    -0.000353  d :     0.007607
      dxz     :     0.002348
      dyz     :     0.002779
      dx2y2   :     0.002357
      dxy     :     0.000475

 20 H s       :     0.778498  s :     0.778498
      pz      :     0.008025  p :     0.025075
      px      :     0.017717
      py      :    -0.000667
      dz2     :     0.005523  d :     0.007339
      dxz     :     0.001686
      dyz     :    -0.000657
      dx2y2   :    -0.001099
      dxy     :     0.001886

 21 H s       :     0.794680  s :     0.794680
      pz      :     0.014262  p :     0.050276
      px      :     0.014361
      py      :     0.021653
      dz2     :    -0.000387  d :     0.007615
      dxz     :     0.002189
      dyz     :     0.002840
      dx2y2   :     0.002617
      dxy     :     0.000355

 22 O s       :     4.377821  s :     4.377821
      pz      :     1.555312  p :     5.034754
      px      :     1.580515
      py      :     1.898927
      dz2     :     0.007609  d :     0.046324
      dxz     :     0.019997
      dyz     :     0.009672
      dx2y2   :     0.003369
      dxy     :     0.005678
      f0      :     0.001933  f :     0.006002
      f+1     :     0.001210
      f-1     :     0.000925
      f+2     :     0.000830
      f-2     :     0.000770
      f+3     :     0.000133
      f-3     :     0.000201

 23 O s       :     4.378054  s :     4.378054
      pz      :     1.587977  p :     5.033782
      px      :     1.580174
      py      :     1.865630
      dz2     :     0.011188  d :     0.046274
      dxz     :     0.019757
      dyz     :     0.008638
      dx2y2   :     0.000785
      dxy     :     0.005906
      f0      :     0.002028  f :     0.006002
      f+1     :     0.001129
      f-1     :     0.000871
      f+2     :     0.000823
      f-2     :     0.000853
      f+3     :     0.000131
      f-3     :     0.000167


SPIN
  0 C s       :     0.004362  s :     0.004362
      pz      :    -0.008285  p :     0.116716
      px      :     0.134551
      py      :    -0.009550
      dz2     :     0.002974  d :     0.018605
      dxz     :     0.008715
      dyz     :     0.002088
      dx2y2   :    -0.000223
      dxy     :     0.005052
      f0      :    -0.000803  f :    -0.003781
      f+1     :    -0.000069
      f-1     :    -0.000747
      f+2     :    -0.000836
      f-2     :    -0.001006
      f+3     :    -0.000186
      f-3     :    -0.000133

  1 C s       :     0.021825  s :     0.021825
      pz      :    -0.022395  p :     0.064010
      px      :     0.079391
      py      :     0.007014
      dz2     :    -0.002890  d :     0.002919
      dxz     :    -0.000854
      dyz     :     0.001614
      dx2y2   :    -0.001989
      dxy     :     0.007039
      f0      :    -0.000525  f :    -0.003658
      f+1     :    -0.000184
      f-1     :    -0.000566
      f+2     :    -0.000701
      f-2     :    -0.001091
      f+3     :    -0.000494
      f-3     :    -0.000098

  2 C s       :     0.021869  s :     0.021869
      pz      :    -0.017304  p :     0.063419
      px      :     0.078910
      py      :     0.001813
      dz2     :     0.005429  d :     0.002712
      dxz     :     0.007646
      dyz     :    -0.007359
      dx2y2   :    -0.001443
      dxy     :    -0.001561
      f0      :    -0.000749  f :    -0.003613
      f+1     :    -0.001135
      f-1     :    -0.000828
      f+2     :    -0.000187
      f-2     :    -0.000847
      f+3     :     0.000222
      f-3     :    -0.000090

  3 C s       :     0.004485  s :     0.004485
      pz      :    -0.022972  p :     0.116924
      px      :     0.134891
      py      :     0.005004
      dz2     :     0.000538  d :     0.018452
      dxz     :     0.012931
      dyz     :     0.006055
      dx2y2   :    -0.001869
      dxy     :     0.000796
      f0      :    -0.000830  f :    -0.003800
      f+1     :    -0.000591
      f-1     :    -0.000800
      f+2     :    -0.000784
      f-2     :    -0.000462
      f+3     :    -0.000214
      f-3     :    -0.000119

  4 C s       :    -0.006395  s :    -0.006395
      pz      :     0.001958  p :     0.035904
      px      :     0.030688
      py      :     0.003259
      dz2     :     0.007276  d :    -0.000979
      dxz     :    -0.001757
      dyz     :    -0.004386
      dx2y2   :    -0.000626
      dxy     :    -0.001486
      f0      :    -0.000019  f :    -0.002081
      f+1     :    -0.000402
      f-1     :    -0.000271
      f+2     :     0.000016
      f-2     :    -0.000700
      f+3     :    -0.000496
      f-3     :    -0.000209

  5 C s       :    -0.006147  s :    -0.006147
      pz      :     0.019571  p :     0.036530
      px      :     0.030775
      py      :    -0.013816
      dz2     :    -0.002305  d :    -0.000578
      dxz     :     0.001892
      dyz     :     0.004911
      dx2y2   :     0.000030
      dxy     :    -0.005107
      f0      :     0.000323  f :    -0.002116
      f+1     :    -0.000878
      f-1     :    -0.000669
      f+2     :    -0.000093
      f-2     :    -0.000491
      f+3     :    -0.000239
      f-3     :    -0.000068

  6 C s       :     0.002590  s :     0.002590
      pz      :     0.002405  p :     0.014524
      px      :     0.013166
      py      :    -0.001047
      dz2     :     0.001489  d :    -0.001059
      dxz     :     0.001562
      dyz     :    -0.001462
      dx2y2   :    -0.001318
      dxy     :    -0.001330
      f0      :    -0.000037  f :     0.000162
      f+1     :    -0.000089
      f-1     :     0.000306
      f+2     :    -0.000078
      f-2     :    -0.000078
      f+3     :     0.000036
      f-3     :     0.000103

  7 C s       :    -0.003150  s :    -0.003150
      pz      :     0.002085  p :     0.023913
      px      :     0.023148
      py      :    -0.001320
      dz2     :     0.001109  d :     0.006108
      dxz     :     0.004932
      dyz     :     0.000318
      dx2y2   :     0.000104
      dxy     :    -0.000354
      f0      :    -0.000242  f :    -0.000456
      f+1     :    -0.000106
      f-1     :     0.000100
      f+2     :    -0.000056
      f-2     :    -0.000080
      f+3     :     0.000006
      f-3     :    -0.000078

  8 C s       :    -0.003295  s :    -0.003295
      pz      :    -0.001118  p :     0.023813
      px      :     0.023081
      py      :     0.001851
      dz2     :     0.000749  d :     0.006059
      dxz     :     0.002252
      dyz     :     0.000740
      dx2y2   :    -0.000004
      dxy     :     0.002323
      f0      :    -0.000099  f :    -0.000448
      f+1     :     0.000033
      f-1     :     0.000054
      f+2     :    -0.000221
      f-2     :    -0.000169
      f+3     :    -0.000040
      f-3     :    -0.000005

  9 C s       :     0.002770  s :     0.002770
      pz      :    -0.000751  p :     0.014561
      px      :     0.013252
      py      :     0.002060
      dz2     :    -0.000522  d :    -0.001064
      dxz     :    -0.000619
      dyz     :    -0.001087
      dx2y2   :     0.000342
      dxy     :     0.000823
      f0      :     0.000055  f :     0.000163
      f+1     :    -0.000083
      f-1     :     0.000375
      f+2     :    -0.000078
      f-2     :    -0.000087
      f+3     :     0.000037
      f-3     :    -0.000056

 10 H s       :    -0.007973  s :    -0.007973
      pz      :    -0.001093  p :    -0.001521
      px      :     0.000127
      py      :    -0.000555
      dz2     :     0.000031  d :    -0.000331
      dxz     :    -0.000093
      dyz     :    -0.000106
      dx2y2   :    -0.000069
      dxy     :    -0.000095

 11 H s       :    -0.000682  s :    -0.000682
      pz      :     0.000039  p :     0.000396
      px      :     0.000117
      py      :     0.000241
      dz2     :    -0.000011  d :    -0.000056
      dxz     :     0.000021
      dyz     :    -0.000016
      dx2y2   :    -0.000018
      dxy     :    -0.000032

 12 H s       :    -0.000619  s :    -0.000619
      pz      :    -0.000195  p :     0.000396
      px      :     0.000114
      py      :     0.000477
      dz2     :    -0.000004  d :    -0.000057
      dxz     :    -0.000070
      dyz     :    -0.000062
      dx2y2   :     0.000020
      dxy     :     0.000059

 13 H s       :    -0.008097  s :    -0.008097
      pz      :     0.000815  p :    -0.001535
      px      :     0.000120
      py      :    -0.002471
      dz2     :    -0.000066  d :    -0.000334
      dxz     :    -0.000050
      dyz     :    -0.000023
      dx2y2   :    -0.000055
      dxy     :    -0.000140

 14 C s       :    -0.003950  s :    -0.003950
      pz      :    -0.001966  p :    -0.003398
      px      :    -0.000471
      py      :    -0.000961
      dz2     :     0.000514  d :     0.002771
      dxz     :     0.001535
      dyz     :    -0.001579
      dx2y2   :    -0.000126
      dxy     :     0.002427
      f0      :     0.000039  f :     0.000515
      f+1     :     0.000059
      f-1     :    -0.000164
      f+2     :     0.000080
      f-2     :    -0.000252
      f+3     :     0.000487
      f-3     :     0.000266

 15 H s       :     0.005310  s :     0.005310
      pz      :     0.000173  p :     0.001028
      px      :     0.000344
      py      :     0.000511
      dz2     :     0.000051  d :     0.000106
      dxz     :     0.000014
      dyz     :     0.000013
      dx2y2   :     0.000047
      dxy     :    -0.000019

 16 H s       :    -0.004466  s :    -0.004466
      pz      :    -0.000370  p :    -0.000517
      px      :    -0.000165
      py      :     0.000018
      dz2     :    -0.000029  d :    -0.000277
      dxz     :    -0.000001
      dyz     :    -0.000055
      dx2y2   :    -0.000029
      dxy     :    -0.000163

 17 H s       :     0.005269  s :     0.005269
      pz      :     0.000194  p :     0.000997
      px      :     0.000314
      py      :     0.000489
      dz2     :     0.000053  d :     0.000106
      dxz     :     0.000014
      dyz     :     0.000019
      dx2y2   :     0.000039
      dxy     :    -0.000018

 18 C s       :    -0.003958  s :    -0.003958
      pz      :    -0.003322  p :    -0.003491
      px      :    -0.000497
      py      :     0.000327
      dz2     :    -0.001467  d :     0.002750
      dxz     :    -0.000070
      dyz     :     0.000936
      dx2y2   :    -0.000664
      dxy     :     0.004016
      f0      :     0.000135  f :     0.000517
      f+1     :    -0.000196
      f-1     :     0.000013
      f+2     :    -0.000055
      f-2     :     0.000379
      f+3     :     0.000113
      f-3     :     0.000129

 19 H s       :     0.005385  s :     0.005385
      pz      :     0.000414  p :     0.001009
      px      :     0.000333
      py      :     0.000263
      dz2     :     0.000015  d :     0.000106
      dxz     :    -0.000012
      dyz     :     0.000059
      dx2y2   :     0.000037
      dxy     :     0.000007

 20 H s       :    -0.004354  s :    -0.004354
      pz      :    -0.000202  p :    -0.000514
      px      :    -0.000168
      py      :    -0.000145
      dz2     :     0.000067  d :    -0.000277
      dxz     :    -0.000067
      dyz     :    -0.000082
      dx2y2   :    -0.000097
      dxy     :    -0.000099

 21 H s       :     0.005301  s :     0.005301
      pz      :     0.000429  p :     0.001005
      px      :     0.000317
      py      :     0.000259
      dz2     :     0.000015  d :     0.000105
      dxz     :    -0.000010
      dyz     :     0.000059
      dx2y2   :     0.000037
      dxy     :     0.000005

 22 O s       :     0.009248  s :     0.009248
      pz      :     0.008990  p :     0.201932
      px      :     0.187346
      py      :     0.005596
      dz2     :     0.000272  d :     0.005078
      dxz     :     0.003865
      dyz     :     0.000257
      dx2y2   :     0.000056
      dxy     :     0.000628
      f0      :    -0.000022  f :    -0.000062
      f+1     :    -0.000015
      f-1     :    -0.000007
      f+2     :    -0.000023
      f-2     :     0.000017
      f+3     :    -0.000018
      f-3     :     0.000005

 23 O s       :     0.009225  s :     0.009225
      pz      :     0.007699  p :     0.202117
      px      :     0.187548
      py      :     0.006870
      dz2     :     0.000356  d :     0.005080
      dxz     :     0.003405
      dyz     :     0.000160
      dx2y2   :     0.000069
      dxy     :     0.001090
      f0      :    -0.000016  f :    -0.000063
      f+1     :    -0.000043
      f-1     :    -0.000014
      f+2     :    -0.000027
      f-2     :     0.000036
      f+3     :    -0.000010
      f-3     :     0.000011



                     *******************************
                     * LOEWDIN POPULATION ANALYSIS *
                     *******************************

-------------------------------------------
LOEWDIN ATOMIC CHARGES AND SPIN POPULATIONS
-------------------------------------------
   0 C :   -0.606370    0.127626
   1 C :   -0.132300    0.085701
   2 C :   -0.132297    0.085593
   3 C :   -0.606497    0.127682
   4 C :   -0.151788    0.047631
   5 C :   -0.151762    0.047622
   6 C :    0.181621    0.013602
   7 C :    0.186961    0.019682
   8 C :    0.186947    0.019658
   9 C :    0.181541    0.013624
  10 H :   -0.199154    0.000836
  11 H :   -0.175119    0.003467
  12 H :   -0.175128    0.003477
  13 H :   -0.199076    0.000824
  14 C :    0.542264    0.012568
  15 H :   -0.155044    0.002776
  16 H :   -0.222114   -0.001107
  17 H :   -0.155498    0.002737
  18 C :    0.542308    0.012607
  19 H :   -0.155193    0.002780
  20 H :   -0.222256   -0.001109
  21 H :   -0.155355    0.002750
  22 O :    0.386503    0.184416
  23 O :    0.386806    0.184557

----------------------------------------------------
LOEWDIN REDUCED ORBITAL CHARGES AND SPIN POPULATIONS
----------------------------------------------------
CHARGE
  0 C s       :     2.474817  s :     2.474817
      pz      :     0.826136  p :     2.243804
      px      :     0.586733
      py      :     0.830934
      dz2     :     0.339900  d :     1.231126
      dxz     :     0.206349
      dyz     :     0.382338
      dx2y2   :     0.153489
      dxy     :     0.149049
      f0      :     0.181112  f :     0.656623
      f+1     :     0.069166
      f-1     :     0.139119
      f+2     :     0.117186
      f-2     :     0.081902
      f+3     :     0.033453
      f-3     :     0.034686

  1 C s       :     2.466807  s :     2.466807
      pz      :     0.820261  p :     2.254919
      px      :     0.616357
      py      :     0.818301
      dz2     :     0.239486  d :     0.920489
      dxz     :     0.145140
      dyz     :     0.279235
      dx2y2   :     0.124720
      dxy     :     0.131907
      f0      :     0.139028  f :     0.490085
      f+1     :     0.043628
      f-1     :     0.079748
      f+2     :     0.083206
      f-2     :     0.071635
      f+3     :     0.039425
      f-3     :     0.033416

  2 C s       :     2.466807  s :     2.466807
      pz      :     0.851606  p :     2.254968
      px      :     0.616395
      py      :     0.786967
      dz2     :     0.237650  d :     0.920472
      dxz     :     0.129718
      dyz     :     0.276366
      dx2y2   :     0.129423
      dxy     :     0.147315
      f0      :     0.134232  f :     0.490050
      f+1     :     0.051625
      f-1     :     0.085787
      f+2     :     0.087539
      f-2     :     0.049160
      f+3     :     0.053897
      f-3     :     0.027810

  3 C s       :     2.474830  s :     2.474830
      pz      :     0.840104  p :     2.243825
      px      :     0.586744
      py      :     0.816977
      dz2     :     0.349914  d :     1.231200
      dxz     :     0.220382
[...]
      pz      :     0.000060  p :     0.002278
      px      :     0.002159
      py      :     0.000058
      dz2     :     0.000015  d :     0.001675
      dxz     :     0.000286
      dyz     :     0.000054
      dx2y2   :    -0.000027
      dxy     :     0.001347

 12 H s       :    -0.000487  s :    -0.000487
      pz      :    -0.000047  p :     0.002284
      px      :     0.002166
      py      :     0.000166
      dz2     :     0.000038  d :     0.001679
      dxz     :     0.000153
      dyz     :    -0.000012
      dx2y2   :     0.000017
      dxy     :     0.001483

 13 H s       :    -0.000287  s :    -0.000287
      pz      :    -0.000193  p :     0.001269
      px      :     0.001608
      py      :    -0.000146
      dz2     :    -0.000032  d :    -0.000158
      dxz     :     0.000277
      dyz     :    -0.000158
      dx2y2   :    -0.000014
      dxy     :    -0.000232

 14 C s       :    -0.000314  s :    -0.000314
      pz      :    -0.000471  p :    -0.002127
      px      :    -0.000227
      py      :    -0.001429
      dz2     :     0.000042  d :     0.010901
      dxz     :     0.000944
      dyz     :    -0.000289
      dx2y2   :     0.000336
      dxy     :     0.009868
      f0      :    -0.000061  f :     0.004107
      f+1     :     0.000508
      f-1     :     0.000093
      f+2     :    -0.000075
      f-2     :    -0.000380
      f+3     :     0.003969
      f-3     :     0.000053

 15 H s       :     0.002706  s :     0.002706
      pz      :    -0.000027  p :     0.000141
      px      :     0.000025
      py      :     0.000142
      dz2     :    -0.000004  d :    -0.000071
      dxz     :    -0.000020
      dyz     :     0.000083
      dx2y2   :    -0.000049
      dxy     :    -0.000081

 16 H s       :    -0.000091  s :    -0.000091
      pz      :    -0.000365  p :    -0.000602
      px      :     0.000011
      py      :    -0.000247
      dz2     :    -0.000049  d :    -0.000415
      dxz     :    -0.000145
      dyz     :    -0.000302
      dx2y2   :    -0.000036
      dxy     :     0.000117

 17 H s       :     0.002675  s :     0.002675
      pz      :    -0.000025  p :     0.000132
      px      :     0.000038
      py      :     0.000119
      dz2     :    -0.000005  d :    -0.000070
      dxz     :    -0.000023
      dyz     :     0.000074
      dx2y2   :    -0.000045
      dxy     :    -0.000071

 18 C s       :    -0.000315  s :    -0.000315
      pz      :    -0.001098  p :    -0.002133
      px      :    -0.000227
      py      :    -0.000808
      dz2     :    -0.000055  d :     0.010932
      dxz     :     0.003248
      dyz     :     0.000236
      dx2y2   :    -0.000090
      dxy     :     0.007594
      f0      :    -0.000030  f :     0.004123
      f+1     :     0.000473
      f-1     :     0.000135
      f+2     :    -0.000121
      f-2     :     0.003203
      f+3     :     0.000437
      f-3     :     0.000027

 19 H s       :     0.002710  s :     0.002710
      pz      :     0.000109  p :     0.000140
      px      :     0.000026
      py      :     0.000006
      dz2     :     0.000045  d :    -0.000071
      dxz     :    -0.000083
      dyz     :     0.000037
      dx2y2   :    -0.000051
      dxy     :    -0.000019

 20 H s       :    -0.000090  s :    -0.000090
      pz      :    -0.000127  p :    -0.000602
      px      :     0.000012
      py      :    -0.000487
      dz2     :    -0.000167  d :    -0.000417
      dxz     :     0.000142
      dyz     :    -0.000052
      dx2y2   :    -0.000169
      dxy     :    -0.000171

 21 H s       :     0.002685  s :     0.002685
      pz      :     0.000082  p :     0.000134
      px      :     0.000038
      py      :     0.000015
      dz2     :     0.000039  d :    -0.000070
      dxz     :    -0.000072
      dyz     :     0.000038
      dx2y2   :    -0.000052
      dxy     :    -0.000023

 22 O s       :     0.003381  s :     0.003381
      pz      :     0.002080  p :     0.152333
      px      :     0.146899
      py      :     0.003354
      dz2     :     0.000100  d :     0.023923
      dxz     :     0.019870
      dyz     :     0.000156
      dx2y2   :     0.000080
      dxy     :     0.003717
      f0      :    -0.000062  f :     0.004779
      f+1     :     0.002929
      f-1     :     0.000075
      f+2     :    -0.000029
      f-2     :     0.001742
      f+3     :     0.000102
      f-3     :     0.000022

 23 O s       :     0.003385  s :     0.003385
      pz      :     0.002252  p :     0.152505
      px      :     0.147061
      py      :     0.003192
      dz2     :     0.000169  d :     0.023897
      dxz     :     0.017776
      dyz     :     0.000120
      dx2y2   :     0.000043
      dxy     :     0.005789
      f0      :    -0.000047  f :     0.004770
      f+1     :     0.002379
      f-1     :     0.000076
      f+2     :    -0.000044
      f-2     :     0.002181
      f+3     :     0.000206
      f-3     :     0.000020



                      *****************************
                      * MAYER POPULATION ANALYSIS *
                      *****************************

  NA   - Mulliken gross atomic population
  ZA   - Total nuclear charge
  QA   - Mulliken gross atomic charge
  VA   - Mayer's total valence
  BVA  - Mayer's bonded valence
  FA   - Mayer's free valence

  ATOM       NA         ZA         QA         VA         BVA        FA
  0 C      4.7711     6.0000     1.2289     2.2854     2.2549     0.0305
  1 C      5.8877     6.0000     0.1123     3.0138     3.0009     0.0129
  2 C      5.8877     6.0000     0.1123     3.0132     3.0003     0.0129
  3 C      4.7722     6.0000     1.2278     2.2888     2.2582     0.0306
  4 C      4.8532     6.0000     1.1468     0.4848     0.4822     0.0026
  5 C      4.8520     6.0000     1.1480     0.4847     0.4820     0.0027
  6 C      7.1839     6.0000    -1.1839     1.5972     1.5971     0.0001
  7 C      6.4548     6.0000    -0.4548     2.2694     2.2684     0.0011
  8 C      6.4558     6.0000    -0.4558     2.2648     2.2637     0.0011
  9 C      7.1817     6.0000    -1.1817     1.5925     1.5925     0.0001
 10 H      1.0343     1.0000    -0.0343     1.2314     1.2313     0.0001
 11 H      0.3816     1.0000     0.6184     0.3542     0.3542    -0.0000
 12 H      0.3838     1.0000     0.6162     0.3567     0.3567    -0.0000
 13 H      1.0345     1.0000    -0.0345     1.2313     1.2312     0.0001
 14 C      6.9537     6.0000    -0.9537     3.4713     3.4712     0.0001
 15 H      0.8518     1.0000     0.1482     1.0551     1.0551     0.0000
 16 H      0.8096     1.0000     0.1904     0.9698     0.9698     0.0000
 17 H      0.8530     1.0000     0.1470     1.0555     1.0555     0.0000
 18 C      6.9531     6.0000    -0.9531     3.4710     3.4709     0.0001
 19 H      0.8521     1.0000     0.1479     1.0540     1.0540     0.0000
 20 H      0.8109     1.0000     0.1891     0.9716     0.9716     0.0000
 21 H      0.8526     1.0000     0.1474     1.0549     1.0548     0.0000
 22 O      9.4649     8.0000    -1.4649     0.8959     0.8577     0.0382
 23 O      9.4641     8.0000    -1.4641     0.8965     0.8582     0.0383

  Mayer bond orders larger than 0.100000
B(  0-C ,  1-C ) :   1.2688 B(  0-C ,  2-C ) :  -0.5304 B(  0-C ,  3-C ) :   0.9780 
B(  0-C ,  4-C ) :  -0.4781 B(  0-C ,  5-C ) :   0.6429 B(  0-C ,  6-C ) :   0.6430 
B(  0-C ,  7-C ) :   0.1026 B(  0-C ,  9-C ) :  -0.1222 B(  0-C , 23-O ) :  -0.3192 
B(  1-C ,  2-C ) :   1.0754 B(  1-C ,  3-C ) :  -0.5318 B(  1-C ,  4-C ) :  -0.1927 
B(  1-C ,  5-C ) :   0.8093 B(  1-C , 18-C ) :   0.1852 B(  1-C , 19-H ) :  -0.1682 
B(  1-C , 21-H ) :  -0.1682 B(  1-C , 22-O ) :   0.1126 B(  1-C , 23-O ) :   0.3694 
B(  2-C ,  3-C ) :   1.2686 B(  2-C ,  4-C ) :   0.8075 B(  2-C ,  5-C ) :  -0.1921 
B(  2-C , 14-C ) :   0.1842 B(  2-C , 15-H ) :  -0.1683 B(  2-C , 17-H ) :  -0.1676 
B(  2-C , 22-O ) :   0.3709 B(  2-C , 23-O ) :   0.1123 B(  3-C ,  4-C ) :   0.6442 
B(  3-C ,  5-C ) :  -0.4798 B(  3-C ,  6-C ) :  -0.1216 B(  3-C ,  8-C ) :   0.1030 
B(  3-C ,  9-C ) :   0.6437 B(  3-C , 22-O ) :  -0.3167 B(  4-C ,  5-C ) :   0.8184 
B(  4-C ,  6-C ) :  -0.6706 B(  4-C ,  7-C ) :  -0.2171 B(  4-C ,  8-C ) :  -0.1368 
B(  4-C ,  9-C ) :  -0.5074 B(  4-C , 10-H ) :  -0.1718 B(  4-C , 18-C ) :  -0.1004 
B(  4-C , 22-O ) :   0.3544 B(  5-C ,  6-C ) :  -0.5073 B(  5-C ,  7-C ) :  -0.1375 
B(  5-C ,  8-C ) :  -0.2163 B(  5-C ,  9-C ) :  -0.6704 B(  5-C , 13-H ) :  -0.1716 
B(  5-C , 14-C ) :  -0.1009 B(  5-C , 23-O ) :   0.3569 B(  6-C ,  7-C ) :   1.1377 
B(  6-C ,  9-C ) :  -0.1041 B(  6-C , 12-H ) :  -0.1173 B(  6-C , 13-H ) :   1.1769 
B(  7-C ,  8-C ) :   0.9777 B(  7-C , 12-H ) :   0.3000 B(  8-C ,  9-C ) :   1.1348 
B(  8-C , 11-H ) :   0.2978 B(  9-C , 10-H ) :   1.1775 B(  9-C , 11-H ) :  -0.1179 
B( 10-H , 22-O ) :   0.2207 B( 13-H , 23-O ) :   0.2202 B( 14-C , 15-H ) :   1.1215 
B( 14-C , 16-H ) :   0.9022 B( 14-C , 17-H ) :   1.1231 B( 18-C , 19-H ) :   1.1214 
B( 18-C , 20-H ) :   0.9044 B( 18-C , 21-H ) :   1.1220 

-------
TIMINGS
-------

Total SCF time: 0 days 0 hours 18 min 14 sec 

Total time                  ....    1094.338 sec
Sum of individual times     ....    1059.139 sec  ( 96.8%)

SCF preparation             ....       8.833 sec  (  0.8%)
Fock matrix formation       ....     560.869 sec  ( 51.3%)
  Startup                   ....     107.890 sec  ( 19.2% of F)
  Split-RI-J                ....     108.727 sec  ( 19.4% of F)
  XC integration            ....     165.543 sec  ( 29.5% of F)
    XC Preparation          ....       0.000 sec  (  0.0% of XC)
    Basis function eval.    ....       4.809 sec  (  2.9% of XC)
    Density eval.           ....      50.556 sec  ( 30.5% of XC)
    XC-Functional eval.     ....       0.677 sec  (  0.4% of XC)
    XC-Potential eval.      ....      63.479 sec  ( 38.3% of XC)
  CPCM terms                ....      33.663 sec  (  6.0% of F)
Diagonalization             ....       0.000 sec  (  0.0%)
Density matrix formation    ....     165.714 sec  ( 15.1%)
Total Energy calculation    ....      92.837 sec  (  8.5%)
Population analysis         ....      18.048 sec  (  1.6%)
Orbital Transformation      ....      15.925 sec  (  1.5%)
Orbital Orthonormalization  ....       0.000 sec  (  0.0%)
DIIS solution               ....     142.415 sec  ( 13.0%)
SOSCF solution              ....      54.498 sec  (  5.0%)
Finished LeanSCF after 1102.6 sec

Maximum memory used throughout the entire LEANSCF-calculation: 113.9 MB


-------------------------------------------------------------------------------
                          DFT DISPERSION CORRECTION                            
                                                                               
                              DFTD3 V3.1  Rev 1                                
                          USING Becke-Johnson damping                          
-------------------------------------------------------------------------------
The R2SCAN functional is recognized
Active option DFTDOPT                   ...         4   

molecular C6(AA) [au] = 6928.734298 


            DFT-D V3
 parameters
 s6 scaling factor         :     1.0000 
 a1 scaling factor         :     0.4948 
 s8 scaling factor         :     0.7898 
 a2 scaling factor         :     5.7308 
 ad hoc parameters k1-k3   :    16.0000     1.3333    -4.0000 

 Edisp/kcal,au: -5.849075105147  -0.009321093502 
 E6   /kcal   :  -4.557306711 
 E8   /kcal   :  -1.291768395 
 % E8         :  22.085002694 

-------------------------   ----------------
Dispersion correction           -0.009321094
-------------------------   ----------------


-------------------------   --------------------
FINAL SINGLE POINT ENERGY      -613.796211067410
-------------------------   --------------------



           ************************************************************
           *        Program running with 15 parallel MPI-processes    *
           *              working on a common directory               *
           ************************************************************

------------------------------------------------------------------------------
                              ORCA PROPERTY CALCULATIONS
------------------------------------------------------------------------------

GBWName                                 ... cs_rporg_w09_red_solv_03.gbw
Number of atoms                         ...     24
Number of basis functions               ...    958
Max core memory                         ...   3500 MB

Electric properties:
Dipole moment                           ... YES
Quadrupole moment                       ...  NO
Static polarizability (Dipole/Dipole)   ...  NO
Static polarizability (Dipole/Quad.)    ...  NO
Static polarizability (Quad./Quad.)     ...  NO
Static polarizability (Velocity)        ...  NO

Atomic electric properties:
Dipole moment                           ...  NO
Quadrupole moment                       ...  NO
Static polarizability                   ...  NO

Choice of electric origin               ... Center of mass
Position of electric origin             ...    -0.000570     0.410175     2.757249

General magnetic properties:
Magnetizability                         ...  NO

EPR properties:
g-Tensor (aka g-matrix)                 ...  NO
Zero-Field splitting spin-orbit         ...  NO
Zero-field splitting spin-spin          ...  NO
Hyperfine couplings                     ...  NO (   0 nuclei)
Quadrupole couplings                    ...  NO (   0 nuclei)
Contact density                         ...  NO (   0 nuclei)

NMR properties:
Chemical shifts                         ...  NO (   0 nuclei)
Spin-rotation constants                 ...  NO (   0 nuclei)
Spin-spin couplings                     ...  NO (   0 nuclei,    0 pairs)

Choice of magnetic origin               ... GIAO
Position of magnetic origin             ...     0.000000     0.000000     0.000000

Properties with geometric perturbations:
SCF Hessian                             ...  NO
IR spectrum                             ...  NO
VCD spectrum                            ...  NO
X-ray spectroscopy properties:
SCF XES/XAS/RIXS spectra                ...  NO


-------------
DIPOLE MOMENT
-------------

Method             : SCF
Type of density    : Electron Density
Multiplicity       :   2
Irrep              :   0
Energy             :  -613.7868899739080462 Eh
Relativity type    : 
Basis              : AO
                                X                 Y                 Z
Electronic contribution:     -0.006405488      -6.737811249       3.358587576
Nuclear contribution   :      0.007077470       6.336292283      -3.161748014
                        -----------------------------------------
Total Dipole Moment    :      0.000671982      -0.401518966       0.196839562
                        -----------------------------------------
Magnitude (a.u.)       :      0.447173060
Magnitude (Debye)      :      1.136623589



--------------------
Rotational spectrum 
--------------------
 
Rotational constants in cm-1:             0.036449             0.021992             0.013787 
Rotational constants in MHz :          1092.703549           659.301071           413.332938 

Dipole components along the rotational axes: 
x,y,z [a.u.] :    -0.447162    -0.003120    -0.000773 
x,y,z [Debye]:    -1.136594    -0.007930    -0.001965 

 

Dipole moment calculation done in   3.1 sec 

Maximum memory used throughout the entire PROP-calculation: 88.5 MB

--------------------------------
SUGGESTED CITATIONS FOR THIS RUN
--------------------------------

Below you find a list of papers that are relevant to this ORCA run
We neither can nor want to force you to cite these papers, but we appreciate if you do
You receive ORCA, which is the product of decades of hard work by many enthusiastic individuals, for free
The only thing we kindly ask in return is that you cite our papers,
We deeply appreciate it, if you show your appreciation for ORCA by not just citing the generic ORCA reference.

Please note that relegating all ORCA citations to the supporting information does *not* help us.
SI sections are not indexed - citations you put there will not count into any citation statistics
But we need these citations in order to attract the funding resources that allow us to do what we are doing

Therefore, if you are a happy ORCA user, please consider citing a few of the papers listed below in the main body of your paper

In addition to the list printed below, the program has created the file cs_rporg_w09_red_solv_03.bibtex that contains the list in bibtex format
You can import this file easily into all common literature databanks and citation aid programs


List of essential papers. We consider these as the minimum necessary citations

  1. Neese,F.
     Software update: the ORCA program system, version 5.0
     WIRES Comput. Molec. Sci., 2022 12(1)e1606
     doi.org/10.1002/wcms.1606

List of papers to cite with high priority. The work reported in these papers was absolutely
necessary for this run to complete.
Our perspective: the developers of density functionals and basis sets usually get cited in chemistry papers
Good! But without the algorithms to do something with them, the functionals or basis sets would not do anything.
Hence, in our opinion, the algorithm design and method developments papers are equally worthy of getting cited

  1. Neese,F.
     An improvement of the resolution of the identity approximation for the formation of the Coulomb matrix
     J. Comp. Chem., 2003 24(14)1740-1747
     doi.org/10.1002/jcc.10318
  2. Garcia-Rates,M.; Neese,F.
     Effect of the Solute Cavity on the Solvation Energy and its Derivatives within the Framework of the Gaussian Charge Scheme
     J. Comput. Chem., 2020 41 922-939
     doi.org/10.1002/jcc.26139
  3. Neese,F.
     The SHARK Integral Generation and Digestion System
     J. Comp. Chem., 2022  1-16
     doi.org/10.1002/jcc.26942
  4. Lehtola,S.; Steigemann,C.; Oliveira,M.; Marques,M.
     Recent developments in Libxc - A comprehensive library of functionals for density functional theory
     Software X, 2018 7 
     doi.org/10.1016/j.softx.2017.11.002
  5. Grimme,S.; Antony,J.; Ehrlich,S.; Krieg,H.
     A consistent and accurate ab initio parametrization of density functional dispersion correction (DFT-D) for the 94 elements H-Pu
     J. Chem. Phys., 2010 132 154104-XXXX
     doi.org/10.1063/1.3382344
  6. Grimme,S.; Ehrlich,S.; Goerigk,L.
     Effect of the damping function in dispersion corrected density functional theory
     J. Comput. Chem., 2011 32(7)1456-1465
     doi.org/10.1002/jcc.21759

List of suggested additional citations. These are papers that are important in the 'surrounding' of 
of this run, or papers that preceded the highly important papers. If you like your results we are grateful for a citation.

  1. Neese,F.
     The ORCA program system
     WIRES Comput. Molec. Sci., 2012 2(1)73-78
     doi.org/10.1002/wcms.81
  2. Neese,F.
     Software update: the ORCA program system, version 4.0
     WIRES Comput. Molec. Sci., 2018 8(1)1-6
     doi.org/10.1002/wcms.1327
  3. Neese,F.; Wennmohs,F.; Becker,U.; Riplinger,C.
     The ORCA quantum chemistry program package
     J. Chem. Phys., 2020 152 Art. No. L224108
     doi.org/10.1063/5.0004608

List of optional additional citations

  1. Neese,F.
     Approximate second-order SCF convergence for spin unrestricted wavefunctions
     Chem. Phys. Lett., 2000 325(1-3)93-98
     doi.org/10.1016/s0009-2614(00)00662-x

Timings for individual modules:

Sum of individual times          ...     1158.813 sec (=  19.314 min)
Startup calculation              ...       17.561 sec (=   0.293 min)   1.5 %
SCF iterations                   ...     1132.952 sec (=  18.883 min)  97.8 %
Property calculations            ...        8.300 sec (=   0.138 min)   0.7 %
                             ****ORCA TERMINATED NORMALLY****
TOTAL RUN TIME: 0 days 0 hours 19 minutes 37 seconds 21 msec
