 vasp.6.4.2 20Jul23 (build Sep 06 2024 14:39:43) complex                        
  
 executed on             LinuxIFC date 2025.09.12  02:57:22
 running   90 mpi-ranks, on    6 nodes
 distrk:  each k-point on   90 cores,    1 groups
 distr:  one band on NCORE=  15 cores,    6 groups


--------------------------------------------------------------------------------------------------------


 INCAR:
   SYSTEM = 103_red
   ISTART = 1
   ICHARG = 2
   INIWAV = 1
   NELM = 100
   ALGO = fast   	
   ISPIN = 2
   EDIFF = 1E-05
   ISMEAR = 0
   SIGMA = 0.05
   PREC = accurate
   ENCUT = 500
   LREAL = auto  	
   LWAVE = .TRUE.
   LCHARG = .FALSE.
   LAECHG = .FALSE.
   LVHAR = .FALSE.
   LVTOT = .FALSE.
   EDIFFG = -0.02
   IBRION = 2
   NSW = 500
   ISIF = 2
   POTIM = 0.5
   IVDW = 11
   LPLANE = .TRUE.
   NCORE = 15
   LSCALU = .FALSE.
   NSIM = 4
   LSOL = .TRUE.
   EB_K = 35.6880
   LAMBDA_D_K = 3.04
   NELECT = 63

 POTCAR:    PAW_PBE C 08Apr2002                   
 POTCAR:    PAW_PBE N 08Apr2002                   
 POTCAR:    PAW_PBE O 08Apr2002                   
 POTCAR:    PAW_PBE H 15Jun2001                   
 -----------------------------------------------------------------------------
|                                                                             |
|           W    W    AA    RRRRR   N    N  II  N    N   GGGG   !!!           |
|           W    W   A  A   R    R  NN   N  II  NN   N  G    G  !!!           |
|           W    W  A    A  R    R  N N  N  II  N N  N  G       !!!           |
|           W WW W  AAAAAA  RRRRR   N  N N  II  N  N N  G  GGG   !            |
|           WW  WW  A    A  R   R   N   NN  II  N   NN  G    G                |
|           W    W  A    A  R    R  N    N  II  N    N   GGGG   !!!           |
|                                                                             |
|     You use a magnetic or noncollinear calculation, but did not specify     |
|     the initial magnetic moment with the MAGMOM tag. Note that a            |
|     default of 1 will be used for all atoms. This ferromagnetic setup       |
|     may break the symmetry of the crystal, in particular it may rule        |
|     out finding an antiferromagnetic solution. Thence, we recommend         |
|     setting the initial magnetic moment manually or verifying carefully     |
|     that this magnetic setup is desired.                                    |
|                                                                             |
 -----------------------------------------------------------------------------

 POTCAR:    PAW_PBE C 08Apr2002                   
   SHA256 =  253f7b50bb8d59471dbedb8285d89021f4a42ed1a2c5d38a03a736e69125dd95 C/POTCAR              
   COPYR  = (c) Copyright 08Apr2002 Georg Kresse                                                    
   COPYR  = This file is part of the software VASP. Any use, copying, and all other rights are regul
   COPYR  = If you do not have a valid VASP license, you may not use, copy or distribute this file. 
   VRHFIN =C: s2p2                                                                                  
   LEXCH  = PE                                                                                      
   EATOM  =   147.1560 eV,   10.8157 Ry                                                             
                                                                                                    
   TITEL  = PAW_PBE C 08Apr2002                                                                     
   LULTRA =        F    use ultrasoft PP ?                                                          
   IUNSCR =        1    unscreen: 0-lin 1-nonlin 2-no                                               
   RPACOR =    1.200    partial core radius                                                         
   POMASS =   12.011; ZVAL   =    4.000    mass and valenz                                          
   RCORE  =    1.500    outmost cutoff radius                                                       
   RWIGS  =    1.630; RWIGS  =    0.863    wigner-seitz radius (au A)                               
   ENMAX  =  400.000; ENMIN  =  300.000 eV                                                          
   ICORE  =        2    local potential                                                             
   LCOR   =        T    correct aug charges                                                         
   LPAW   =        T    paw PP                                                                      
   EAUG   =  644.873                                                                                
   DEXC   =    0.000                                                                                
   RMAX   =    1.529    core radius for proj-oper                                                   
   RAUG   =    1.300    factor for augmentation sphere                                              
   RDEP   =    1.501    radius for radial grids                                                     
   RDEPT  =    1.300    core radius for aug-charge                                                  
                                                                                                    
   Atomic configuration                                                                             
    4 entries                                                                                       
     n  l   j            E        occ.                                                              
     1  0  0.50      -273.3789   2.0000                                                             
     2  0  0.50       -13.7508   2.0000                                                             
     2  1  0.50        -5.2854   2.0000                                                             
     3  2  1.50        -5.4423   0.0000                                                             
   Description                                                                                      
     l       E           TYP  RCUT    TYP  RCUT                                                     
     0    -13.7508458     23  1.200                                                                 
     0     -8.2022199     23  1.200                                                                 
     1     -5.2854383     23  1.500                                                                 
     1     34.0145650     23  1.500                                                                 
     2     -5.4423304      7  1.500                                                                 
  local pseudopotential read in
  partial core-charges read in
  partial kinetic energy density read in
  atomic valenz-charges read in
  non local Contribution for L=           0  read in
    real space projection operators read in
  non local Contribution for L=           0  read in
    real space projection operators read in
  non local Contribution for L=           1  read in
    real space projection operators read in
  non local Contribution for L=           1  read in
    real space projection operators read in
    PAW grid and wavefunctions read in
 
   number of l-projection  operators is LMAX  =           4
   number of lm-projection operators is LMMAX =           8
 
 POTCAR:    PAW_PBE N 08Apr2002                   
   SHA256 =  e053789ff3a61a86a1b75d8a110fcc91f86041011e7b0817c7c99e4e8a6349d7 N/POTCAR              
   COPYR  = (c) Copyright 08Apr2002 Georg Kresse                                                    
   COPYR  = This file is part of the software VASP. Any use, copying, and all other rights are regul
   COPYR  = If you do not have a valid VASP license, you may not use, copy or distribute this file. 
   VRHFIN =N: s2p3                                                                                  
   LEXCH  = PE                                                                                      
   EATOM  =   264.5486 eV,   19.4438 Ry                                                             
                                                                                                    
   TITEL  = PAW_PBE N 08Apr2002                                                                     
   LULTRA =        F    use ultrasoft PP ?                                                          
   IUNSCR =        1    unscreen: 0-lin 1-nonlin 2-no                                               
   RPACOR =    1.200    partial core radius                                                         
   POMASS =   14.001; ZVAL   =    5.000    mass and valenz                                          
   RCORE  =    1.500    outmost cutoff radius                                                       
   RWIGS  =    1.400; RWIGS  =    0.741    wigner-seitz radius (au A)                               
   ENMAX  =  400.000; ENMIN  =  300.000 eV                                                          
   ICORE  =        2    local potential                                                             
   LCOR   =        T    correct aug charges                                                         
   LPAW   =        T    paw PP                                                                      
   EAUG   =  627.112                                                                                
   DEXC   =    0.000                                                                                
   RMAX   =    1.529    core radius for proj-oper                                                   
   RAUG   =    1.300    factor for augmentation sphere                                              
   RDEP   =    1.514    radius for radial grids                                                     
   RDEPT  =    1.338    core radius for aug-charge                                                  
                                                                                                    
   Atomic configuration                                                                             
    4 entries                                                                                       
     n  l   j            E        occ.                                                              
     1  0  0.50      -384.7179   2.0000                                                             
     2  0  0.50       -18.5828   2.0000                                                             
     2  1  0.50        -7.0898   3.0000                                                             
     3  2  1.50        -6.8029   0.0000                                                             
   Description                                                                                      
     l       E           TYP  RCUT    TYP  RCUT                                                     
     0    -18.5828119     23  1.200                                                                 
     0    -13.5018863     23  1.200                                                                 
     1     -7.0897853     23  1.500                                                                 
     1      9.5240782     23  1.500                                                                 
     2     -6.8029130      7  1.500                                                                 
  local pseudopotential read in
  partial core-charges read in
  partial kinetic energy density read in
  atomic valenz-charges read in
  non local Contribution for L=           0  read in
    real space projection operators read in
  non local Contribution for L=           0  read in
    real space projection operators read in
  non local Contribution for L=           1  read in
    real space projection operators read in
  non local Contribution for L=           1  read in
    real space projection operators read in
    PAW grid and wavefunctions read in
 
   number of l-projection  operators is LMAX  =           4
   number of lm-projection operators is LMMAX =           8
 
 POTCAR:    PAW_PBE O 08Apr2002                   
   SHA256 =  818f92134a0a090dccd8ba1447fa70422a3b330e708bb4f08108d8ae51209ddf O/POTCAR              
   COPYR  = (c) Copyright 08Apr2002 Georg Kresse                                                    
   COPYR  = This file is part of the software VASP. Any use, copying, and all other rights are regul
   COPYR  = If you do not have a valid VASP license, you may not use, copy or distribute this file. 
   VRHFIN =O: s2p4                                                                                  
   LEXCH  = PE                                                                                      
   EATOM  =   432.3788 eV,   31.7789 Ry                                                             
                                                                                                    
   TITEL  = PAW_PBE O 08Apr2002                                                                     
   LULTRA =        F    use ultrasoft PP ?                                                          
   IUNSCR =        1    unscreen: 0-lin 1-nonlin 2-no                                               
   RPACOR =    1.200    partial core radius                                                         
   POMASS =   16.000; ZVAL   =    6.000    mass and valenz                                          
   RCORE  =    1.520    outmost cutoff radius                                                       
   RWIGS  =    1.550; RWIGS  =    0.820    wigner-seitz radius (au A)                               
   ENMAX  =  400.000; ENMIN  =  300.000 eV                                                          
   ICORE  =        2    local potential                                                             
   LCOR   =        T    correct aug charges                                                         
   LPAW   =        T    paw PP                                                                      
   EAUG   =  605.392                                                                                
   DEXC   =    0.000                                                                                
   RMAX   =    1.553    core radius for proj-oper                                                   
   RAUG   =    1.300    factor for augmentation sphere                                              
   RDEP   =    1.550    radius for radial grids                                                     
   RDEPT  =    1.329    core radius for aug-charge                                                  
                                                                                                    
   Atomic configuration                                                                             
    4 entries                                                                                       
     n  l   j            E        occ.                                                              
     1  0  0.50      -514.6923   2.0000                                                             
     2  0  0.50       -23.9615   2.0000                                                             
     2  1  0.50        -9.0305   4.0000                                                             
     3  2  1.50        -9.5241   0.0000                                                             
   Description                                                                                      
     l       E           TYP  RCUT    TYP  RCUT                                                     
     0    -23.9615318     23  1.200                                                                 
     0     -9.5240782     23  1.200                                                                 
     1     -9.0304911     23  1.520                                                                 
     1      8.1634956     23  1.520                                                                 
     2     -9.5240782      7  1.500                                                                 
  local pseudopotential read in
  partial core-charges read in
  partial kinetic energy density read in
  kinetic energy density of atom read in
  atomic valenz-charges read in
  non local Contribution for L=           0  read in
    real space projection operators read in
  non local Contribution for L=           0  read in
    real space projection operators read in
  non local Contribution for L=           1  read in
    real space projection operators read in
  non local Contribution for L=           1  read in
    real space projection operators read in
    PAW grid and wavefunctions read in
 
   number of l-projection  operators is LMAX  =           4
   number of lm-projection operators is LMMAX =           8
 
 POTCAR:    PAW_PBE H 15Jun2001                   
   SHA256 =  030f79b5d3ab3cf0e668861823c8fb652ff669f3e15e46930bd03bfd63a607b6 H/POTCAR              
   COPYR  = (c) Copyright 15Jun2001 Georg Kresse                                                    
   COPYR  = This file is part of the software VASP. Any use, copying, and all other rights are regul
   COPYR  = If you do not have a valid VASP license, you may not use, copy or distribute this file. 
   VRHFIN =H: ultrasoft test                                                                        
   LEXCH  = PE                                                                                      
   EATOM  =    12.4884 eV,    0.9179 Ry                                                             
                                                                                                    
   TITEL  = PAW_PBE H 15Jun2001                                                                     
   LULTRA =        F    use ultrasoft PP ?                                                          
   IUNSCR =        0    unscreen: 0-lin 1-nonlin 2-no                                               
   RPACOR =    0.000    partial core radius                                                         
   POMASS =    1.000; ZVAL   =    1.000    mass and valenz                                          
   RCORE  =    1.100    outmost cutoff radius                                                       
   RWIGS  =    0.700; RWIGS  =    0.370    wigner-seitz radius (au A)                               
   ENMAX  =  250.000; ENMIN  =  200.000 eV                                                          
   RCLOC  =    0.701    cutoff for local pot                                                        
   LCOR   =        T    correct aug charges                                                         
   LPAW   =        T    paw PP                                                                      
   EAUG   =  400.000                                                                                
   RMAX   =    1.123    core radius for proj-oper                                                   
   RAUG   =    1.200    factor for augmentation sphere                                              
   RDEP   =    1.112    radius for radial grids                                                     
   RDEPT  =    0.926    core radius for aug-charge                                                  
                                                                                                    
   Atomic configuration                                                                             
    2 entries                                                                                       
     n  l   j            E        occ.                                                              
     1  0  0.50        -6.4927   1.0000                                                             
     2  1  0.50        -3.4015   0.0000                                                             
   Description                                                                                      
     l       E           TYP  RCUT    TYP  RCUT                                                     
     0     -6.4927494     23  1.100                                                                 
     0      6.8029130     23  1.100                                                                 
     1     -4.0817478     23  1.100                                                                 
  local pseudopotential read in
  atomic valenz-charges read in
  non local Contribution for L=           0  read in
    real space projection operators read in
  non local Contribution for L=           0  read in
    real space projection operators read in
  non local Contribution for L=           1  read in
    real space projection operators read in
    PAW grid and wavefunctions read in
 
   number of l-projection  operators is LMAX  =           3
   number of lm-projection operators is LMMAX =           5
 
 Optimization of the real space projectors (new method)

 maximal supplied QI-value         = 25.13
 optimisation between [QCUT,QGAM] = [ 11.31, 22.87] = [ 35.82,146.48] Ry 
 Optimized for a Real-space Cutoff    1.03 Angstroem

   l    n(q)    QCUT    max X(q) W(low)/X(q) W(high)/X(q)  e(spline) 
   0      7    11.310   115.676    0.20E-03    0.90E-03    0.20E-06
   0      7    11.310    87.132    0.20E-03    0.89E-03    0.19E-06
   1      6    11.310     4.429    0.16E-03    0.28E-03    0.12E-06
   1      6    11.310     2.733    0.12E-03    0.21E-03    0.99E-07
 Optimization of the real space projectors (new method)

 maximal supplied QI-value         = 25.13
 optimisation between [QCUT,QGAM] = [ 11.31, 22.87] = [ 35.82,146.48] Ry 
 Optimized for a Real-space Cutoff    1.43 Angstroem

   l    n(q)    QCUT    max X(q) W(low)/X(q) W(high)/X(q)  e(spline) 
   0     10    11.310    79.467    0.42E-04    0.81E-04    0.60E-06
   0     10    11.310    66.151    0.40E-04    0.81E-04    0.60E-06
   1      9    11.310    17.416    0.14E-03    0.88E-04    0.14E-05
   1      9    11.310    12.382    0.15E-03    0.93E-04    0.14E-05
 Optimization of the real space projectors (new method)

 maximal supplied QI-value         = 24.76
 optimisation between [QCUT,QGAM] = [ 11.39, 22.77] = [ 36.31,145.25] Ry 
 Optimized for a Real-space Cutoff    1.10 Angstroem

   l    n(q)    QCUT    max X(q) W(low)/X(q) W(high)/X(q)  e(spline) 
   0      7    11.387    20.381    0.22E-03    0.48E-03    0.18E-06
   0      7    11.387    15.268    0.22E-03    0.52E-03    0.19E-06
   1      7    11.387     5.964    0.22E-03    0.73E-03    0.24E-06
   1      7    11.387     5.382    0.19E-03    0.60E-03    0.21E-06
 Optimization of the real space projectors (new method)

 maximal supplied QI-value         = 34.20
 optimisation between [QCUT,QGAM] = [ 11.29, 22.57] = [ 35.68,142.71] Ry 
 Optimized for a Real-space Cutoff    1.20 Angstroem

   l    n(q)    QCUT    max X(q) W(low)/X(q) W(high)/X(q)  e(spline) 
   0      8    11.287    19.460    0.22E-03    0.50E-03    0.19E-06
   0      8    11.287    12.209    0.21E-03    0.48E-03    0.18E-06
   1      8    11.287     4.655    0.21E-03    0.11E-04    0.26E-06
  PAW_PBE C 08Apr2002                   :
 energy of atom  1       EATOM= -147.1560
 kinetic energy error for atom=    0.0076 (will be added to EATOM!!)
  PAW_PBE N 08Apr2002                   :
 energy of atom  2       EATOM= -264.5486
 kinetic energy error for atom=    0.0138 (will be added to EATOM!!)
  PAW_PBE O 08Apr2002                   :
 energy of atom  3       EATOM= -432.3788
 kinetic energy error for atom=    0.0224 (will be added to EATOM!!)
  PAW_PBE H 15Jun2001                   :
 energy of atom  4       EATOM=  -12.4884
 kinetic energy error for atom=    0.0020 (will be added to EATOM!!)
 
 
 POSCAR: C N O H
  positions in direct lattice
  velocities in cartesian coordinates
 exchange correlation table for  LEXCH =        8
   RHO(1)=    0.500       N(1)  =     2000
   RHO(2)=  100.500       N(2)  =     4000
 


--------------------------------------------------------------------------------------------------------


 ion  position               nearest neighbor table
   1  0.501  0.463  0.500-  19 1.09   2 1.38   6 1.42
   2  0.467  0.463  0.500-  18 1.09   1 1.38   3 1.42
   3  0.449  0.494  0.500-   9 1.40   4 1.42   2 1.42
   4  0.467  0.525  0.500-  17 1.09   5 1.38   3 1.42
   5  0.502  0.524  0.500-  16 1.09   4 1.38   6 1.42
   6  0.520  0.494  0.500-   5 1.42   1 1.42   7 1.46
   7  0.556  0.492  0.500-  10 1.26   6 1.46   8 1.52
   8  0.576  0.524  0.500-  14 1.10  15 1.10  13 1.10   7 1.52
   9  0.414  0.494  0.500-  11 1.29  12 1.29   3 1.40
  10  0.572  0.465  0.500-   7 1.26
  11  0.398  0.522  0.500-   9 1.29
  12  0.398  0.466  0.500-   9 1.29
  13  0.570  0.540  0.522-   8 1.10
  14  0.603  0.518  0.500-   8 1.10
  15  0.570  0.540  0.478-   8 1.10
  16  0.515  0.548  0.500-   5 1.09
  17  0.453  0.548  0.500-   4 1.09
  18  0.453  0.440  0.500-   2 1.09
  19  0.515  0.440  0.500-   1 1.09
 
  LATTYP: Found a simple cubic cell.
 ALAT       =    40.0000000000
  
  Lattice vectors:
  
 A1 = (  40.0000000000,   0.0000000000,   0.0000000000)
 A2 = (   0.0000000000,  40.0000000000,   0.0000000000)
 A3 = (   0.0000000000,   0.0000000000,  40.0000000000)


Analysis of symmetry for initial positions (statically):
=====================================================================
 Subroutine PRICEL returns:
 Original cell was already a primitive cell.
 

 Routine SETGRP: Setting up the symmetry group for a 
 simple cubic supercell.


 Subroutine GETGRP returns: Found  1 space group operations
 (whereof  1 operations were pure point group operations)
 out of a pool of 48 trial point group operations.


The static configuration has the point symmetry C_1 .


Analysis of symmetry for dynamics (positions and initial velocities):
=====================================================================
 Subroutine PRICEL returns:
 Original cell was already a primitive cell.
 

 Routine SETGRP: Setting up the symmetry group for a 
 simple cubic supercell.


 Subroutine GETGRP returns: Found  1 space group operations
 (whereof  1 operations were pure point group operations)
 out of a pool of 48 trial point group operations.


The dynamic configuration has the point symmetry C_1 .


Analysis of constrained symmetry for selective dynamics:
=====================================================================
 Subroutine PRICEL returns:
 Original cell was already a primitive cell.
 

 Routine SETGRP: Setting up the symmetry group for a 
 simple cubic supercell.


 Subroutine GETGRP returns: Found  1 space group operations
 (whereof  1 operations were pure point group operations)
 out of a pool of 48 trial point group operations.


The constrained configuration has the point symmetry C_1 .


Analysis of structural, dynamic, and magnetic symmetry:
=====================================================================
 Subroutine PRICEL returns:
 Original cell was already a primitive cell.
 

 Routine SETGRP: Setting up the symmetry group for a 
 simple cubic supercell.


 Subroutine GETGRP returns: Found  1 space group operations
 (whereof  1 operations were pure point group operations)
 out of a pool of 48 trial point group operations.


The overall configuration has the point symmetry C_1 .


 Subroutine INISYM returns: Found  1 space group operations
 (whereof  1 operations are pure point group operations),
 and found     1 'primitive' translations


----------------------------------------------------------------------------------------

                                     Primitive cell                                     

  volume of cell :   64000.0000

  direct lattice vectors                    reciprocal lattice vectors
    40.000000000  0.000000000  0.000000000     0.025000000  0.000000000  0.000000000
     0.000000000 40.000000000  0.000000000     0.000000000  0.025000000  0.000000000
     0.000000000  0.000000000 40.000000000     0.000000000  0.000000000  0.025000000

  length of vectors
    40.000000000 40.000000000 40.000000000     0.025000000  0.025000000  0.025000000

  position of ions in fractional coordinates (direct lattice)
     0.501161069  0.463323908  0.499985317
     0.466671974  0.463300952  0.500006301
     0.448982664  0.494083110  0.500033928
     0.467141591  0.524546867  0.500033665
     0.501740806  0.524071480  0.500013956
     0.519896992  0.493530241  0.499987646
     0.556470936  0.491999087  0.499958727
     0.576317881  0.524325648  0.499941618
     0.413901617  0.494275681  0.500061683
     0.571753862  0.464560386  0.499953518
     0.398194691  0.522366713  0.500083499
     0.397942986  0.466318555  0.500060700
     0.570489206  0.539580215  0.522079007
     0.603061095  0.518408924  0.499880478
     0.570388272  0.539632646  0.477867708
     0.514993746  0.547899851  0.500022274
     0.453462035  0.548063823  0.500065687
     0.452616796  0.439998722  0.500004397
     0.514810782  0.439717191  0.499958891

  ion indices of the primitive-cell ions
   primitive index   ion index
                 1           1
                 2           2
                 3           3
                 4           4
                 5           5
                 6           6
                 7           7
                 8           8
                 9           9
                10          10
                11          11
                12          12
                13          13
                14          14
                15          15
                16          16
                17          17
                18          18
                19          19

----------------------------------------------------------------------------------------

 
 
 KPOINTS: K-Point Grid                            

Automatic generation of k-mesh.
 Grid dimensions read from file:
 generate k-points for:    1    1    1

 Generating k-lattice:

  Cartesian coordinates                     Fractional coordinates (reciprocal lattice)
     0.025000000  0.000000000  0.000000000     1.000000000  0.000000000  0.000000000
     0.000000000  0.025000000  0.000000000     0.000000000  1.000000000  0.000000000
     0.000000000  0.000000000  0.025000000     0.000000000  0.000000000  1.000000000

  Length of vectors
     0.025000000  0.025000000  0.025000000

  Shift w.r.t. Gamma in fractional coordinates (k-lattice)
     0.000000000  0.000000000  0.000000000

 
 Subroutine IBZKPT returns following result:
 ===========================================
 
 Found      1 irreducible k-points:
 
 Following reciprocal coordinates:
            Coordinates               Weight
  0.000000  0.000000  0.000000      1.000000
 
 Following cartesian coordinates:
            Coordinates               Weight
  0.000000  0.000000  0.000000      1.000000
 


--------------------------------------------------------------------------------------------------------




 Dimension of arrays:
   k-points           NKPTS =      1   k-points in BZ     NKDIM =      1   number of bands    NBANDS=     54
   number of dos      NEDOS =    301   number of ions     NIONS =     19
   non local maximal  LDIM  =      4   non local SUM 2l+1 LMDIM =      8
   total plane-waves  NPLWV = ******
   max r-space proj   IRMAX =   4928   max aug-charges    IRDMAX=   5350
   dimension x,y,z NGX =   294 NGY =  294 NGZ =  294
   dimension x,y,z NGXF=   588 NGYF=  588 NGZF=  588
   support grid    NGXF=   588 NGYF=  588 NGZF=  588
   ions per type =               8   1   3   7
   NGX,Y,Z   is equivalent  to a cutoff of  12.22, 12.22, 12.22 a.u.
   NGXF,Y,Z  is equivalent  to a cutoff of  24.44, 24.44, 24.44 a.u.

 SYSTEM =  103_red                                 
 POSCAR =  C N O H                                 

 Startparameter for this run:
   NWRITE =      2    write-flag & timer
   PREC   = accura    normal or accurate (medium, high low for compatibility)
   ISTART =      1    job   : 0-new  1-cont  2-samecut
   ICHARG =      2    charge: 1-file 2-atom 10-const
   ISPIN  =      2    spin polarized calculation?
   LNONCOLLINEAR =      F non collinear calculations
   LSORBIT =      F    spin-orbit coupling
   INIWAV =      1    electr: 0-lowe 1-rand  2-diag
   LASPH  =      F    aspherical Exc in radial PAW
 Electronic Relaxation 1
   ENCUT  =  500.0 eV  36.75 Ry    6.06 a.u.  72.93 72.93 72.93*2*pi/ulx,y,z
   ENINI  =  500.0     initial cutoff
   ENAUG  =  644.9 eV  augmentation charge cutoff
   NELM   =    100;   NELMIN=  2; NELMDL=  0     # of ELM steps 
   EDIFF  = 0.1E-04   stopping-criterion for ELM
   LREAL  =      T    real-space projection
   NLSPLINE    = F    spline interpolate recip. space projectors
   LCOMPAT=      F    compatible to vasp.4.4
   GGA_COMPAT  = T    GGA compatible to vasp.4.4-vasp.4.6
   LMAXPAW     = -100 max onsite density
   LMAXMIX     =    2 max onsite mixed and CHGCAR
   VOSKOWN=      0    Vosko Wilk Nusair interpolation
   ROPT   =   -0.00025  -0.00025  -0.00025  -0.00025
 Ionic relaxation
   EDIFFG = -.2E-01   stopping-criterion for IOM
   NSW    =    500    number of steps for IOM
   NBLOCK =      1;   KBLOCK =    500    inner block; outer block 
   IBRION =      2    ionic relax: 0-MD 1-quasi-New 2-CG
   NFREE  =      1    steps in history (QN), initial steepest desc. (CG)
   ISIF   =      2    stress and relaxation
   IWAVPR =     11    prediction:  0-non 1-charg 2-wave 3-comb
   ISYM   =      2    0-nonsym 1-usesym 2-fastsym
   LCORR  =      T    Harris-Foulkes like correction to forces

   POTIM  = 0.5000    time-step for ionic-motion
   TEIN   =    0.0    initial temperature
   TEBEG  =    0.0;   TEEND  =   0.0 temperature during run
   SMASS  =  -3.00    Nose mass-parameter (am)
   estimated Nose-frequenzy (Omega)   =  0.10E-29 period in steps = 0.13E+47 mass=  -0.366E-25a.u.
   SCALEE = 1.0000    scale energy and forces
   NPACO  =    256;   APACO  = 10.0  distance and # of slots for P.C.
   PSTRESS=    0.0 pullay stress

  Mass of Ions in am
   POMASS =  12.01 14.00 16.00  1.00
  Ionic Valenz
   ZVAL   =   4.00  5.00  6.00  1.00
  Atomic Wigner-Seitz radii
   RWIGS  =  -1.00 -1.00 -1.00 -1.00
  virtual crystal weights 
   VCA    =   1.00  1.00  1.00  1.00
   NELECT =      63.0000    total number of electrons
   NUPDOWN=      -1.0000    fix difference up-down

 DOS related values:
   EMIN   =  10.00;   EMAX   =-10.00  energy-range for DOS
   EFERMI =   0.00;   METHOD = LEGACY      
   ISMEAR =     0;   SIGMA  =   0.05  broadening in eV -4-tet -1-fermi 0-gaus

 Electronic relaxation 2 (details)
   IALGO  =     68    algorithm
   LDIAG  =      T    sub-space diagonalisation (order eigenvalues)
   LSUBROT=      F    optimize rotation matrix (better conditioning)
   TURBO    =      0    0=normal 1=particle mesh
   IRESTART =      0    0=no restart 2=restart with 2 vectors
   NREBOOT  =      0    no. of reboots
   NMIN     =      0    reboot dimension
   EREF     =   0.00    reference energy to select bands
   IMIX   =      4    mixing-type and parameters
     AMIX     =   0.40;   BMIX     =  1.00
     AMIX_MAG =   1.60;   BMIX_MAG =  1.00
     AMIN     =   0.10
     WC   =   100.;   INIMIX=   1;  MIXPRE=   1;  MAXMIX= -45

 Intra band minimization:
   WEIMIN = 0.0010     energy-eigenvalue tresh-hold
   EBREAK =  0.46E-07  absolut break condition
   DEPER  =   0.30     relativ break condition  

   TIME   =   0.40     timestep for ELM

  volume/ion in A,a.u.               =    3368.42     22731.23
  Fermi-wavevector in a.u.,A,eV,Ry     =   0.162853  0.307747  0.360840  0.026521
  Thomas-Fermi vector in A             =   0.860501
 
 Write flags
   LWAVE        =      T    write WAVECAR
   LDOWNSAMPLE  =      F    k-point downsampling of WAVECAR
   LCHARG       =      F    write CHGCAR
   LVTOT        =      F    write LOCPOT, total local potential
   LVHAR        =      F    write LOCPOT, Hartree potential only
   LELF         =      F    write electronic localiz. function (ELF)
   LORBIT       =      0    0 simple, 1 ext, 2 COOP (PROOUT), +10 PAW based schemes


 Dipole corrections
   LMONO  =      F    monopole corrections only (constant potential shift)
   LDIPOL =      F    correct potential (dipole corrections)
   IDIPOL =      0    1-x, 2-y, 3-z, 4-all directions 
   EPSILON=  1.0000000 bulk dielectric constant

 Exchange correlation treatment:
   GGA     =    --    GGA type
   LEXCH   =     8    internal setting for exchange type
   LIBXC   =     F    Libxc                    
   VOSKOWN =     0    Vosko Wilk Nusair interpolation
   LHFCALC =     F    Hartree Fock is set to
   LHFONE  =     F    Hartree Fock one center treatment
   AEXX    =    0.0000 exact exchange contribution

 Linear response parameters
   LEPSILON=     F    determine dielectric tensor
   LRPA    =     F    only Hartree local field effects (RPA)
   LNABLA  =     F    use nabla operator in PAW spheres
   LVEL    =     F    velocity operator in full k-point grid
   CSHIFT  =0.1000    complex shift for real part using Kramers Kronig
   OMEGAMAX=  -1.0    maximum frequency
   DEG_THRESHOLD= 0.2000000E-02 threshold for treating states as degnerate
   RTIME   =   -0.100 relaxation time in fs
  (WPLASMAI=    0.000 imaginary part of plasma frequency in eV, 0.658/RTIME)
   DFIELD  = 0.0000000 0.0000000 0.0000000 field for delta impulse in time
 
  Optional k-point grid parameters
   LKPOINTS_OPT  =     F    use optional k-point grid
   KPOINTS_OPT_MODE=     1    mode for optional k-point grid
 
 Orbital magnetization related:
   ORBITALMAG=     F  switch on orbital magnetization
   LCHIMAG   =     F  perturbation theory with respect to B field
   DQ        =  0.001000  dq finite difference perturbation B field
   LLRAUG    =     F  two centre corrections for induced B field
   LBONE     =     F  B-component reconstruction in AE one-centre
   LVGVCALC  =     T  calculate vGv susceptibility
   LVGVAPPL  =     F  apply vGv susceptibility instead of pGv for G=0

 Random number generation:
   RANDOM_GENERATOR = DEFAULT
   PCG_SEED         = not used
 Solvation model:
   LSOL    =     T         switch on solvation model
   EB_K    = 35.688000     relative permittivity of the bulk solvent
   SIGMA_K =  0.600000     width of the dielectric cavity
   NC_K    =  0.002500     cutoff charge density
   TAU     =  0.000525     cavity surface tension
   LAMBDA_D_K    =  3.040000     Debye length in Angstroms
   LRHOB     =     F     write boundcharge  density
   LRHOION     =     F     write ioniccharge density



--------------------------------------------------------------------------------------------------------


 conjugate gradient relaxation of ions
   using selective dynamics as specified on POSCAR
 charge density and potential will be updated during run
 spin polarized calculation
 RMM-DIIS sequential band-by-band and
  variant of blocked Davidson during initial phase
 perform sub-space diagonalisation
    before iterative eigenvector-optimisation
 modified Broyden-mixing scheme, WC =      100.0
 initial mixing is a Kerker type mixing with AMIX =  0.4000 and BMIX =      1.0000
 Hartree-type preconditioning will be used
 using additional bands           22
 real space projection scheme for non local part
 use partial core corrections
 calculate Harris-corrections to forces 
   (improved forces if not selfconsistent)
 use gradient corrections 
 use of overlap-Matrix (Vanderbilt PP)
 Gauss-broadening in eV      SIGMA  =   0.05


--------------------------------------------------------------------------------------------------------


  energy-cutoff  :      500.00
  volume of cell :    64000.00
      direct lattice vectors                 reciprocal lattice vectors
    40.000000000  0.000000000  0.000000000     0.025000000  0.000000000  0.000000000
     0.000000000 40.000000000  0.000000000     0.000000000  0.025000000  0.000000000
     0.000000000  0.000000000 40.000000000     0.000000000  0.000000000  0.025000000

  length of vectors
    40.000000000 40.000000000 40.000000000     0.025000000  0.025000000  0.025000000


 
 old parameters found on file WAVECAR:
  energy-cutoff  :      500.00
  volume of cell :    64000.00
      direct lattice vectors                 reciprocal lattice vectors
    40.000000000  0.000000000  0.000000000     0.025000000  0.000000000  0.000000000
     0.000000000 40.000000000  0.000000000     0.000000000  0.025000000  0.000000000
     0.000000000  0.000000000 40.000000000     0.000000000  0.000000000  0.025000000

  length of vectors

 
 k-points in units of 2pi/SCALE and weight: K-Point Grid                            
   0.00000000  0.00000000  0.00000000       1.000
 
 k-points in reciprocal lattice and weights: K-Point Grid                            
   0.00000000  0.00000000  0.00000000       1.000
 
 position of ions in fractional coordinates (direct lattice) 
   0.50116107  0.46332391  0.49998532
   0.46667197  0.46330095  0.50000630
   0.44898266  0.49408311  0.50003393
   0.46714159  0.52454687  0.50003367
   0.50174081  0.52407148  0.50001396
   0.51989699  0.49353024  0.49998765
   0.55647094  0.49199909  0.49995873
   0.57631788  0.52432565  0.49994162
   0.41390162  0.49427568  0.50006168
   0.57175386  0.46456039  0.49995352
   0.39819469  0.52236671  0.50008350
   0.39794299  0.46631856  0.50006070
   0.57048921  0.53958022  0.52207901
   0.60306110  0.51840892  0.49988048
   0.57038827  0.53963265  0.47786771
   0.51499375  0.54789985  0.50002227
   0.45346203  0.54806382  0.50006569
   0.45261680  0.43999872  0.50000440
   0.51481078  0.43971719  0.49995889
 
 position of ions in cartesian coordinates  (Angst):
  20.04644274 18.53295633 19.99941269
  18.66687895 18.53203807 20.00025203
  17.95930657 19.76332440 20.00135713
  18.68566366 20.98187469 20.00134661
  20.06963223 20.96285921 20.00055825
  20.79587969 19.74120965 19.99950584
  22.25883744 19.67996346 19.99834908
  23.05271525 20.97302590 19.99766472
  16.55606467 19.77102725 20.00246730
  22.87015449 18.58241545 19.99814073
  15.92778762 20.89466851 20.00333996
  15.91771942 18.65274221 20.00242799
  22.81956825 21.58320861 20.88316027
  24.12244382 20.73635697 19.99521912
  22.81553087 21.58530583 19.11470832
  20.59974984 21.91599404 20.00089097
  18.13848139 21.92255292 20.00262750
  18.10467183 17.59994888 20.00017587
  20.59243126 17.58868763 19.99835564
 


--------------------------------------------------------------------------------------------------------


 k-point   1 :   0.0000 0.0000 0.0000  plane waves: 1624525

 maximum and minimum number of plane-waves per node :    108307   108296

 maximum number of plane-waves:   1624525
 maximum index in each direction: 
   IXMAX=   72   IYMAX=   72   IZMAX=   72
   IXMIN=  -72   IYMIN=  -72   IZMIN=  -72


 real space projection operators:
  total allocation   :       2350.06 KBytes
  max/ min on nodes  :        190.09        129.53


 parallel 3D FFT for wavefunctions:
    minimum data exchange during FFTs selected (reduces bandwidth)
 parallel 3D FFT for charge:
    minimum data exchange during FFTs selected (reduces bandwidth)


 total amount of memory used by VASP MPI-rank0   565941. kBytes
=======================================================================

   base      :      30000. kBytes
   nonlr-proj:       1818. kBytes
   fftplans  :     131430. kBytes
   grid      :     371484. kBytes
   one-center:         12. kBytes
   wavefun   :      31197. kBytes
 
     INWAV:  cpu time     14.5910: real time     14.6090
 Broyden mixing: mesh for mixing (old mesh)
   NGX =145   NGY =145   NGZ =145
  (NGX  =588   NGY  =588   NGZ  =588)
  gives a total of ****** points

 initial charge density was supplied:
 charge density of overlapping atoms calculated
 number of electron      62.0000000 magnetization      19.0000000
 keeping initial charge density in first step


--------------------------------------------------------------------------------------------------------


 Maximum index for non-local projection operator          333
 Maximum index for augmentation-charges          270 (set IRDMAX)


--------------------------------------------------------------------------------------------------------


 First call to EWALD:  gamma=   0.044
 Maximum number of real-space cells 3x 3x 3
 Maximum number of reciprocal cells 3x 3x 3

    FEWALD:  cpu time      0.2207: real time      0.2207


--------------------------------------- Ionic step        1  -------------------------------------------




--------------------------------------- Iteration      1(   1)  ---------------------------------------


    POTLOK:  cpu time    548.0065: real time    548.0445
    SETDIJ:  cpu time      0.0368: real time      0.0368
     EDDAV:  cpu time     49.1234: real time     49.1248
       DOS:  cpu time      0.0066: real time      0.0066
    CHARGE:  cpu time      3.1664: real time      3.1665
    MIXING:  cpu time      0.0876: real time      0.0877
    --------------------------------------------
      LOOP:  cpu time    600.4274: real time    600.4670

 eigenvalue-minimisations  :   288
 total energy-change (2. order) :-0.1243985E+03  (-0.9541612E+01)
 number of electron      62.9999984 magnetization      18.3064999
 augmentation part        3.3475457 magnetization      17.4624323

 Broyden mixing:
  rms(total) = 0.29379E+01    rms(broyden)= 0.29372E+01
  rms(prec ) = 0.29712E+01
  weight for this iteration     100.00

 Free energy of the ion-electron system (eV)
  ---------------------------------------------------
  alpha Z        PSCENC =         0.26386137
  Ewald energy   TEWEN  =      7014.73458126
  -Hartree energ DENC   =     -9108.28686698
  -exchange      EXHF   =         0.00000000
  -V(xc)+E(xc)   XCENC  =       226.81504799
  PAW double counting   =      2123.72502725    -2134.83455969
  entropy T*S    EENTRO =        -0.00000000
  eigenvalues    EBANDS =     -1063.79011993
  atomic energy  EATOM  =      2826.19653576
  Solvation  Ediel_sol  =        -9.22197766
  ---------------------------------------------------
  free energy    TOTEN  =      -124.39847061 eV

  energy without entropy =     -124.39847061  energy(sigma->0) =     -124.39847061


--------------------------------------------------------------------------------------------------------




--------------------------------------- Iteration      1(   2)  ---------------------------------------


    POTLOK:  cpu time    546.0243: real time    546.0573
    SETDIJ:  cpu time      0.0300: real time      0.0300
    EDDIAG:  cpu time      6.3011: real time      6.3013
  RMM-DIIS:  cpu time      9.2711: real time      9.2713
    ORTHCH:  cpu time      1.3548: real time      1.3548
       DOS:  cpu time      0.2294: real time      0.2294
    CHARGE:  cpu time      4.3062: real time      4.3063
    MIXING:  cpu time      0.1096: real time      0.1096
    --------------------------------------------
      LOOP:  cpu time    567.6264: real time    567.6600

 eigenvalue-minimisations  :   216
 total energy-change (2. order) : 0.5648728E+02  (-0.9778293E+01)
 number of electron      62.9999986 magnetization      17.5658964
 augmentation part        3.2276630 magnetization      16.5577753

 Broyden mixing:
  rms(total) = 0.13595E+01    rms(broyden)= 0.13592E+01
  rms(prec ) = 0.13864E+01
  weight for this iteration     100.00

 eigenvalues of (default mixing * dielectric matrix)
  average eigenvalue GAMMA=   0.9465
  0.9465

 Free energy of the ion-electron system (eV)
  ---------------------------------------------------
  alpha Z        PSCENC =         0.26386137
  Ewald energy   TEWEN  =      7014.73458126
  -Hartree energ DENC   =     -9247.84313446
  -exchange      EXHF   =         0.00000000
  -V(xc)+E(xc)   XCENC  =       275.06587871
  PAW double counting   =      3226.74347398    -3239.41806998
  entropy T*S    EENTRO =        -0.00000000
  eigenvalues    EBANDS =      -920.91810866
  atomic energy  EATOM  =      2826.19653576
  Solvation  Ediel_sol  =        -2.73621279
  ---------------------------------------------------
  free energy    TOTEN  =       -67.91119481 eV

  energy without entropy =      -67.91119481  energy(sigma->0) =      -67.91119481


--------------------------------------------------------------------------------------------------------




--------------------------------------- Iteration      1(   3)  ---------------------------------------


    POTLOK:  cpu time    546.0393: real time    546.0662
    SETDIJ:  cpu time      0.0293: real time      0.0293
    EDDIAG:  cpu time      5.3418: real time      5.3420
  RMM-DIIS:  cpu time      9.2821: real time      9.2824
    ORTHCH:  cpu time      1.1850: real time      1.1850
       DOS:  cpu time      0.4051: real time      0.4051
    CHARGE:  cpu time      3.3244: real time      3.3245
    MIXING:  cpu time      0.1057: real time      0.1057
    --------------------------------------------
      LOOP:  cpu time    565.7127: real time    565.7401

 eigenvalue-minimisations  :   216
 total energy-change (2. order) :-0.2986434E+02  (-0.3696447E+01)
 number of electron      62.9999986 magnetization      16.7201224
 augmentation part        3.1289322 magnetization      15.6977844

 Broyden mixing:
  rms(total) = 0.81819E+00    rms(broyden)= 0.81807E+00
  rms(prec ) = 0.83282E+00
  weight for this iteration     100.00

 eigenvalues of (default mixing * dielectric matrix)
  average eigenvalue GAMMA=   1.1017
  0.7933  1.4101

 Free energy of the ion-electron system (eV)
  ---------------------------------------------------
  alpha Z        PSCENC =         0.26386137
  Ewald energy   TEWEN  =      7014.73458126
  -Hartree energ DENC   =     -9358.17922799
  -exchange      EXHF   =         0.00000000
  -V(xc)+E(xc)   XCENC  =       255.36673299
  PAW double counting   =      4156.40545311    -4169.75507505
  entropy T*S    EENTRO =        -0.00000000
  eigenvalues    EBANDS =      -829.09079292
  atomic energy  EATOM  =      2826.19653576
  Solvation  Ediel_sol  =         6.28239324
  ---------------------------------------------------
  free energy    TOTEN  =       -97.77553822 eV

  energy without entropy =      -97.77553822  energy(sigma->0) =      -97.77553822


--------------------------------------------------------------------------------------------------------




--------------------------------------- Iteration      1(   4)  ---------------------------------------


    POTLOK:  cpu time    529.9311: real time    529.9588
    SETDIJ:  cpu time      0.0304: real time      0.0305
    EDDIAG:  cpu time      5.5032: real time      5.5035
  RMM-DIIS:  cpu time      9.4594: real time      9.4600
    ORTHCH:  cpu time      1.3625: real time      1.3626
       DOS:  cpu time      0.1586: real time      0.1586
    CHARGE:  cpu time      3.3638: real time      3.3640
    MIXING:  cpu time      0.1077: real time      0.1077
    --------------------------------------------
      LOOP:  cpu time    549.9167: real time    549.9456

 eigenvalue-minimisations  :   216
 total energy-change (2. order) :-0.8021060E+01  (-0.1476228E+01)
 number of electron      62.9999986 magnetization      15.9456706
 augmentation part        3.0513278 magnetization      14.9537463

 Broyden mixing:
  rms(total) = 0.57409E+00    rms(broyden)= 0.57400E+00
  rms(prec ) = 0.58394E+00
  weight for this iteration     100.00

 eigenvalues of (default mixing * dielectric matrix)
  average eigenvalue GAMMA=   1.0958
  1.3721  1.2286  0.6868

 Free energy of the ion-electron system (eV)
  ---------------------------------------------------
  alpha Z        PSCENC =         0.26386137
  Ewald energy   TEWEN  =      7014.73458126
  -Hartree energ DENC   =     -9433.90482332
  -exchange      EXHF   =         0.00000000
  -V(xc)+E(xc)   XCENC  =       252.10080444
  PAW double counting   =      4899.76046396    -4913.26540977
  entropy T*S    EENTRO =        -0.00000000
  eigenvalues    EBANDS =      -773.52164055
  atomic energy  EATOM  =      2826.19653576
  Solvation  Ediel_sol  =        21.83902842
  ---------------------------------------------------
  free energy    TOTEN  =      -105.79659843 eV

  energy without entropy =     -105.79659843  energy(sigma->0) =     -105.79659843


--------------------------------------------------------------------------------------------------------




--------------------------------------- Iteration      1(   5)  ---------------------------------------


    POTLOK:  cpu time    513.4459: real time    513.4827
    SETDIJ:  cpu time      0.0308: real time      0.0308
    EDDIAG:  cpu time      5.3741: real time      5.3745
  RMM-DIIS:  cpu time      9.1621: real time      9.1628
    ORTHCH:  cpu time      1.0138: real time      1.0139
       DOS:  cpu time      0.3827: real time      0.3828
    CHARGE:  cpu time      4.1027: real time      4.1030
    MIXING:  cpu time      0.1160: real time      0.1160
    --------------------------------------------
      LOOP:  cpu time    533.6282: real time    533.6664

 eigenvalue-minimisations  :   216
 total energy-change (2. order) :-0.6186579E+01  (-0.4152777E+00)
 number of electron      62.9999985 magnetization      14.8397172
 augmentation part        3.0338118 magnetization      13.8735976

 Broyden mixing:
  rms(total) = 0.36273E+00    rms(broyden)= 0.36269E+00
  rms(prec ) = 0.37119E+00
  weight for this iteration     100.00

 eigenvalues of (default mixing * dielectric matrix)
  average eigenvalue GAMMA=   1.2885
  1.8300  1.8300  0.8442  0.6498

 Free energy of the ion-electron system (eV)
  ---------------------------------------------------
  alpha Z        PSCENC =         0.26386137
  Ewald energy   TEWEN  =      7014.73458126
  -Hartree energ DENC   =     -9459.61535763
  -exchange      EXHF   =         0.00000000
  -V(xc)+E(xc)   XCENC  =       247.89695066
  PAW double counting   =      5196.95097278    -5210.23248045
  entropy T*S    EENTRO =        -0.00000000
  eigenvalues    EBANDS =      -769.29739047
  atomic energy  EATOM  =      2826.19653576
  Solvation  Ediel_sol  =        41.11914922
  ---------------------------------------------------
  free energy    TOTEN  =      -111.98317750 eV

  energy without entropy =     -111.98317750  energy(sigma->0) =     -111.98317750


--------------------------------------------------------------------------------------------------------




--------------------------------------- Iteration      1(   6)  ---------------------------------------


    POTLOK:  cpu time    532.4796: real time    532.5184
    SETDIJ:  cpu time      0.0334: real time      0.0334
    EDDIAG:  cpu time      6.0782: real time      6.0785
  RMM-DIIS:  cpu time      9.2994: real time      9.3001
    ORTHCH:  cpu time      1.0391: real time      1.0392
       DOS:  cpu time      0.3899: real time      0.3899
    CHARGE:  cpu time      2.9456: real time      2.9458
    MIXING:  cpu time      0.1241: real time      0.1241
    --------------------------------------------
      LOOP:  cpu time    552.3893: real time    552.4295

 eigenvalue-minimisations  :   216
 total energy-change (2. order) :-0.6392372E+01  (-0.3834705E+00)
 number of electron      62.9999985 magnetization      14.1605967
 augmentation part        3.0271964 magnetization      13.2250122

 Broyden mixing:
  rms(total) = 0.21990E+00    rms(broyden)= 0.21987E+00
  rms(prec ) = 0.22699E+00
  weight for this iteration     100.00

 eigenvalues of (default mixing * dielectric matrix)
  average eigenvalue GAMMA=   1.3007
  2.3363  1.6676  1.0359  0.8295  0.6340

 Free energy of the ion-electron system (eV)
  ---------------------------------------------------
  alpha Z        PSCENC =         0.26386137
  Ewald energy   TEWEN  =      7014.73458126
  -Hartree energ DENC   =     -9491.05646114
  -exchange      EXHF   =         0.00000000
  -V(xc)+E(xc)   XCENC  =       243.58783173
  PAW double counting   =      5478.21638551    -5491.26338801
  entropy T*S    EENTRO =        -0.00000000
  eigenvalues    EBANDS =      -767.72760177
  atomic energy  EATOM  =      2826.19653576
  Solvation  Ediel_sol  =        68.67270594
  ---------------------------------------------------
  free energy    TOTEN  =      -118.37554935 eV

  energy without entropy =     -118.37554935  energy(sigma->0) =     -118.37554935


--------------------------------------------------------------------------------------------------------




--------------------------------------- Iteration      1(   7)  ---------------------------------------


    POTLOK:  cpu time    514.8874: real time    514.9223
    SETDIJ:  cpu time      0.0321: real time      0.0321
    EDDIAG:  cpu time      5.3567: real time      5.3568
  RMM-DIIS:  cpu time      9.3576: real time      9.3580
    ORTHCH:  cpu time      0.7892: real time      0.7892
       DOS:  cpu time      0.3692: real time      0.3692
    CHARGE:  cpu time      3.3143: real time      3.3144
    MIXING:  cpu time      0.1317: real time      0.1317
    --------------------------------------------
      LOOP:  cpu time    534.2383: real time    534.2737

 eigenvalue-minimisations  :   219
 total energy-change (2. order) :-0.1180599E+01  (-0.1331306E+00)
 number of electron      62.9999985 magnetization      13.0941214
 augmentation part        3.0018714 magnetization      12.1809858

 Broyden mixing:
  rms(total) = 0.18969E+00    rms(broyden)= 0.18967E+00
  rms(prec ) = 0.19537E+00
  weight for this iteration     100.00

 eigenvalues of (default mixing * dielectric matrix)
  average eigenvalue GAMMA=   1.2517
  2.1697  2.1697  0.9045  0.9045  0.6810  0.6810

 Free energy of the ion-electron system (eV)
  ---------------------------------------------------
  alpha Z        PSCENC =         0.26386137
  Ewald energy   TEWEN  =      7014.73458126
  -Hartree energ DENC   =     -9507.37863048
  -exchange      EXHF   =         0.00000000
  -V(xc)+E(xc)   XCENC  =       243.10281144
  PAW double counting   =      5513.92022621    -5526.95304840
  entropy T*S    EENTRO =        -0.00000000
  eigenvalues    EBANDS =      -767.09292180
  atomic energy  EATOM  =      2826.19653576
  Solvation  Ediel_sol  =        83.65043664
  ---------------------------------------------------
  free energy    TOTEN  =      -119.55614799 eV

  energy without entropy =     -119.55614799  energy(sigma->0) =     -119.55614799


--------------------------------------------------------------------------------------------------------




--------------------------------------- Iteration      1(   8)  ---------------------------------------


    POTLOK:  cpu time    526.1157: real time    526.1432
    SETDIJ:  cpu time      0.0325: real time      0.0324
    EDDIAG:  cpu time      5.4605: real time      5.4607
  RMM-DIIS:  cpu time      9.7071: real time      9.7074
    ORTHCH:  cpu time      1.2855: real time      1.2856
       DOS:  cpu time      0.3285: real time      0.3284
    CHARGE:  cpu time      3.5330: real time      3.5331
    MIXING:  cpu time      0.1248: real time      0.1248
    --------------------------------------------
      LOOP:  cpu time    546.5876: real time    546.6156

 eigenvalue-minimisations  :   218
 total energy-change (2. order) :-0.1440067E+01  (-0.6276995E-01)
 number of electron      62.9999985 magnetization      11.7258349
 augmentation part        2.9984069 magnetization      10.8276805

 Broyden mixing:
  rms(total) = 0.13964E+00    rms(broyden)= 0.13962E+00
  rms(prec ) = 0.14370E+00
  weight for this iteration     100.00

 eigenvalues of (default mixing * dielectric matrix)
  average eigenvalue GAMMA=   1.4295
  2.7542  2.7542  1.2043  1.0735  0.9293  0.6150  0.6760

 Free energy of the ion-electron system (eV)
  ---------------------------------------------------
  alpha Z        PSCENC =         0.26386137
  Ewald energy   TEWEN  =      7014.73458126
  -Hartree energ DENC   =     -9517.62304546
  -exchange      EXHF   =         0.00000000
  -V(xc)+E(xc)   XCENC  =       241.75311396
  PAW double counting   =      5416.80032785    -5429.74143393
  entropy T*S    EENTRO =        -0.00000000
  eigenvalues    EBANDS =      -777.90214003
  atomic energy  EATOM  =      2826.19653576
  Solvation  Ediel_sol  =       104.52198386
  ---------------------------------------------------
  free energy    TOTEN  =      -120.99621536 eV

  energy without entropy =     -120.99621536  energy(sigma->0) =     -120.99621536


--------------------------------------------------------------------------------------------------------




--------------------------------------- Iteration      1(   9)  ---------------------------------------


    POTLOK:  cpu time    526.2872: real time    526.3122
    SETDIJ:  cpu time      0.0294: real time      0.0294
    EDDIAG:  cpu time      5.5859: real time      5.5860
  RMM-DIIS:  cpu time      9.6759: real time      9.6762
    ORTHCH:  cpu time      1.0558: real time      1.0558
       DOS:  cpu time      0.2047: real time      0.2047
    CHARGE:  cpu time      2.9536: real time      2.9537
    MIXING:  cpu time      0.1381: real time      0.1381
    --------------------------------------------
      LOOP:  cpu time    545.9306: real time    545.9561

 eigenvalue-minimisations  :   223
 total energy-change (2. order) :-0.7918832E+00  (-0.7645692E-01)
 number of electron      62.9999985 magnetization      10.7268772
 augmentation part        2.9950574 magnetization       9.8430089

 Broyden mixing:
  rms(total) = 0.97521E-01    rms(broyden)= 0.97511E-01
  rms(prec ) = 0.10008E+00
  weight for this iteration     100.00

 eigenvalues of (default mixing * dielectric matrix)
  average eigenvalue GAMMA=   1.5124
  4.1124  2.2388  1.7235  0.9688  0.8556  0.8556  0.6119  0.7330

 Free energy of the ion-electron system (eV)
  ---------------------------------------------------
  alpha Z        PSCENC =         0.26386137
  Ewald energy   TEWEN  =      7014.73458126
  -Hartree energ DENC   =     -9536.83912912
  -exchange      EXHF   =         0.00000000
  -V(xc)+E(xc)   XCENC  =       241.25881100
  PAW double counting   =      5380.76171597    -5393.65387968
  entropy T*S    EENTRO =        -0.00000000
  eigenvalues    EBANDS =      -782.32219349
  atomic energy  EATOM  =      2826.19653576
  Solvation  Ediel_sol  =       127.81159834
  ---------------------------------------------------
  free energy    TOTEN  =      -121.78809859 eV

  energy without entropy =     -121.78809859  energy(sigma->0) =     -121.78809859


--------------------------------------------------------------------------------------------------------




--------------------------------------- Iteration      1(  10)  ---------------------------------------


    POTLOK:  cpu time    504.9028: real time    504.9354
    SETDIJ:  cpu time      0.0305: real time      0.0305
    EDDIAG:  cpu time      5.8476: real time      5.8478
  RMM-DIIS:  cpu time      9.4984: real time      9.4987
    ORTHCH:  cpu time      1.6409: real time      1.6410
       DOS:  cpu time      0.0226: real time      0.0226
    CHARGE:  cpu time      4.1258: real time      4.1259
    MIXING:  cpu time      0.1391: real time      0.1391
    --------------------------------------------
      LOOP:  cpu time    526.2078: real time    526.2411

 eigenvalue-minimisations  :   217
 total energy-change (2. order) :-0.1603110E+01  (-0.2952047E-01)
 number of electron      62.9999985 magnetization       9.4661947
 augmentation part        2.9909494 magnetization       8.5910510

 Broyden mixing:
  rms(total) = 0.71380E-01    rms(broyden)= 0.71375E-01
  rms(prec ) = 0.72963E-01
  weight for this iteration     100.00

 eigenvalues of (default mixing * dielectric matrix)
  average eigenvalue GAMMA=   1.6420
  5.4281  2.0722  2.0722  1.3161  0.9021  0.9021  0.7782  0.6978  0.6097

 Free energy of the ion-electron system (eV)
  ---------------------------------------------------
  alpha Z        PSCENC =         0.26386137
  Ewald energy   TEWEN  =      7014.73458126
  -Hartree energ DENC   =     -9550.67731099
  -exchange      EXHF   =         0.00000000
  -V(xc)+E(xc)   XCENC  =       239.86655929
  PAW double counting   =      5373.23904175    -5386.14502840
  entropy T*S    EENTRO =        -0.00000000
  eigenvalues    EBANDS =      -781.58024058
  atomic energy  EATOM  =      2826.19653576
  Solvation  Ediel_sol  =       140.71079221
  ---------------------------------------------------
  free energy    TOTEN  =      -123.39120833 eV

  energy without entropy =     -123.39120833  energy(sigma->0) =     -123.39120833


--------------------------------------------------------------------------------------------------------




--------------------------------------- Iteration      1(  11)  ---------------------------------------


    POTLOK:  cpu time    499.1352: real time    499.1592
    SETDIJ:  cpu time      0.0308: real time      0.0308
    EDDIAG:  cpu time      5.7101: real time      5.7103
  RMM-DIIS:  cpu time      9.9483: real time      9.9487
    ORTHCH:  cpu time      1.1653: real time      1.1653
       DOS:  cpu time      0.0512: real time      0.0512
    CHARGE:  cpu time      3.5452: real time      3.5453
    MIXING:  cpu time      0.1645: real time      0.1645
    --------------------------------------------
      LOOP:  cpu time    519.7507: real time    519.7753

 eigenvalue-minimisations  :   224
 total energy-change (2. order) :-0.2017610E+01  (-0.2503464E-01)
 number of electron      62.9999985 magnetization       8.6404374
 augmentation part        2.9829516 magnetization       7.7751172

 Broyden mixing:
  rms(total) = 0.48999E-01    rms(broyden)= 0.48990E-01
  rms(prec ) = 0.49745E-01
  weight for this iteration     100.00

 eigenvalues of (default mixing * dielectric matrix)
  average eigenvalue GAMMA=   1.7490
  6.7714  2.1695  2.1695  1.5205  0.9959  0.8895  0.8895  0.8105  0.6573  0.6168

 Free energy of the ion-electron system (eV)
  ---------------------------------------------------
  alpha Z        PSCENC =         0.26386137
  Ewald energy   TEWEN  =      7014.73458126
  -Hartree energ DENC   =     -9562.64879829
  -exchange      EXHF   =         0.00000000
  -V(xc)+E(xc)   XCENC  =       237.95294594
  PAW double counting   =      5338.81475195    -5351.74302779
  entropy T*S    EENTRO =        -0.00000000
  eigenvalues    EBANDS =      -782.12845056
  atomic energy  EATOM  =      2826.19653576
  Solvation  Ediel_sol  =       153.14878227
  ---------------------------------------------------
  free energy    TOTEN  =      -125.40881807 eV

  energy without entropy =     -125.40881807  energy(sigma->0) =     -125.40881807


--------------------------------------------------------------------------------------------------------




--------------------------------------- Iteration      1(  12)  ---------------------------------------


    POTLOK:  cpu time    498.7899: real time    498.8206
    SETDIJ:  cpu time      0.0314: real time      0.0314
    EDDIAG:  cpu time      5.2889: real time      5.2891
  RMM-DIIS:  cpu time      9.9200: real time      9.9204
    ORTHCH:  cpu time      1.4415: real time      1.4416
       DOS:  cpu time      0.1865: real time      0.1865
    CHARGE:  cpu time      3.9384: real time      3.9385
    MIXING:  cpu time      0.1532: real time      0.1532
    --------------------------------------------
      LOOP:  cpu time    519.7498: real time    519.7813

 eigenvalue-minimisations  :   227
 total energy-change (2. order) :-0.8302211E+00  (-0.5666269E-02)
 number of electron      62.9999985 magnetization       7.8571775
 augmentation part        2.9816628 magnetization       6.9949565

 Broyden mixing:
  rms(total) = 0.39605E-01    rms(broyden)= 0.39603E-01
  rms(prec ) = 0.40077E-01
  weight for this iteration     100.00

 eigenvalues of (default mixing * dielectric matrix)
  average eigenvalue GAMMA=   1.7688
  7.4628  2.2936  1.9886  1.9886  1.0540  0.9120  0.9120  0.7888  0.7888  0.6102
  0.6577

 Free energy of the ion-electron system (eV)
  ---------------------------------------------------
  alpha Z        PSCENC =         0.26386137
  Ewald energy   TEWEN  =      7014.73458126
  -Hartree energ DENC   =     -9567.13315438
  -exchange      EXHF   =         0.00000000
  -V(xc)+E(xc)   XCENC  =       237.13150881
  PAW double counting   =      5333.40791508    -5346.33235094
  entropy T*S    EENTRO =        -0.00000000
  eigenvalues    EBANDS =      -783.19522393
  atomic energy  EATOM  =      2826.19653576
  Solvation  Ediel_sol  =       158.68728783
  ---------------------------------------------------
  free energy    TOTEN  =      -126.23903914 eV

  energy without entropy =     -126.23903914  energy(sigma->0) =     -126.23903914


--------------------------------------------------------------------------------------------------------




--------------------------------------- Iteration      1(  13)  ---------------------------------------


    POTLOK:  cpu time    469.5026: real time    469.5257
    SETDIJ:  cpu time      0.0301: real time      0.0301
    EDDIAG:  cpu time      5.2440: real time      5.2442
  RMM-DIIS:  cpu time      9.3867: real time      9.3871
    ORTHCH:  cpu time      1.8683: real time      1.8683
       DOS:  cpu time      0.0023: real time      0.0023
    CHARGE:  cpu time      3.3574: real time      3.3575
    MIXING:  cpu time      0.1573: real time      0.1573
    --------------------------------------------
      LOOP:  cpu time    489.5487: real time    489.5726

 eigenvalue-minimisations  :   216
 total energy-change (2. order) :-0.4399539E+00  (-0.1931693E-02)
 number of electron      62.9999985 magnetization       6.6591739
 augmentation part        2.9825192 magnetization       5.7979924

 Broyden mixing:
  rms(total) = 0.31476E-01    rms(broyden)= 0.31476E-01
  rms(prec ) = 0.31722E-01
  weight for this iteration     100.00

 eigenvalues of (default mixing * dielectric matrix)
  average eigenvalue GAMMA=   1.9279
  8.4455  3.4195  2.1276  2.0941  1.4542  0.9319  0.9319  0.9186  0.7763  0.7763
  0.6107  0.6484

 Free energy of the ion-electron system (eV)
  ---------------------------------------------------
  alpha Z        PSCENC =         0.26386137
  Ewald energy   TEWEN  =      7014.73458126
  -Hartree energ DENC   =     -9567.97495449
  -exchange      EXHF   =         0.00000000
  -V(xc)+E(xc)   XCENC  =       236.64843211
  PAW double counting   =      5339.52603499    -5352.43349785
  entropy T*S    EENTRO =        -0.00000000
  eigenvalues    EBANDS =      -785.04912591
  atomic energy  EATOM  =      2826.19653576
  Solvation  Ediel_sol  =       161.40913966
  ---------------------------------------------------
  free energy    TOTEN  =      -126.67899309 eV

  energy without entropy =     -126.67899309  energy(sigma->0) =     -126.67899309


--------------------------------------------------------------------------------------------------------




--------------------------------------- Iteration      1(  14)  ---------------------------------------


    POTLOK:  cpu time    498.5925: real time    498.6149
    SETDIJ:  cpu time      0.0307: real time      0.0307
    EDDIAG:  cpu time      5.9033: real time      5.9036
  RMM-DIIS:  cpu time      9.5283: real time      9.5288
    ORTHCH:  cpu time      1.0968: real time      1.0969
       DOS:  cpu time      0.3715: real time      0.3715
    CHARGE:  cpu time      3.3345: real time      3.3346
    MIXING:  cpu time      0.1720: real time      0.1720
    --------------------------------------------
      LOOP:  cpu time    519.0297: real time    519.0530

 eigenvalue-minimisations  :   217
 total energy-change (2. order) :-0.4463617E+00  (-0.1960006E-02)
 number of electron      62.9999985 magnetization       6.0672664
 augmentation part        2.9831332 magnetization       5.2062486

 Broyden mixing:
  rms(total) = 0.24285E-01    rms(broyden)= 0.24285E-01
  rms(prec ) = 0.24401E-01
  weight for this iteration     100.00

 eigenvalues of (default mixing * dielectric matrix)
  average eigenvalue GAMMA=   1.9657
  9.0967  4.1844  2.1424  1.7938  1.7938  1.0273  1.0273  0.8629  0.8629  0.8050
  0.7059  0.6245  0.6265

 Free energy of the ion-electron system (eV)
  ---------------------------------------------------
  alpha Z        PSCENC =         0.26386137
  Ewald energy   TEWEN  =      7014.73458126
  -Hartree energ DENC   =     -9568.85245182
  -exchange      EXHF   =         0.00000000
  -V(xc)+E(xc)   XCENC  =       236.17727951
  PAW double counting   =      5348.49767035    -5361.40191968
  entropy T*S    EENTRO =        -0.00000000
  eigenvalues    EBANDS =      -786.56360964
  atomic energy  EATOM  =      2826.19653576
  Solvation  Ediel_sol  =       163.82269807
  ---------------------------------------------------
  free energy    TOTEN  =      -127.12535482 eV

  energy without entropy =     -127.12535482  energy(sigma->0) =     -127.12535482


--------------------------------------------------------------------------------------------------------




--------------------------------------- Iteration      1(  15)  ---------------------------------------


    POTLOK:  cpu time    464.3392: real time    464.3600
    SETDIJ:  cpu time      0.0295: real time      0.0295
    EDDIAG:  cpu time      5.3692: real time      5.3694
  RMM-DIIS:  cpu time      9.7297: real time      9.7326
    ORTHCH:  cpu time      1.4573: real time      1.4573
       DOS:  cpu time      0.0053: real time      0.0053
    CHARGE:  cpu time      2.7707: real time      2.7707
    MIXING:  cpu time      0.1693: real time      0.1693
    --------------------------------------------
      LOOP:  cpu time    483.8702: real time    483.8941

 eigenvalue-minimisations  :   219
 total energy-change (2. order) :-0.1249365E+00  (-0.7077354E-03)
 number of electron      62.9999985 magnetization       5.1209155
 augmentation part        2.9830485 magnetization       4.2600030

 Broyden mixing:
  rms(total) = 0.21372E-01    rms(broyden)= 0.21371E-01
  rms(prec ) = 0.21472E-01
  weight for this iteration     100.00

 eigenvalues of (default mixing * dielectric matrix)
  average eigenvalue GAMMA=   1.9827
  9.5794  4.5460  2.0739  1.9784  1.9784  1.2268  0.9760  0.9760  0.8190  0.8190
  0.8093  0.7305  0.6223  0.6223

 Free energy of the ion-electron system (eV)
  ---------------------------------------------------
  alpha Z        PSCENC =         0.26386137
  Ewald energy   TEWEN  =      7014.73458126
  -Hartree energ DENC   =     -9569.24300919
  -exchange      EXHF   =         0.00000000
  -V(xc)+E(xc)   XCENC  =       236.05674275
  PAW double counting   =      5348.14766635    -5361.06074399
  entropy T*S    EENTRO =        -0.00000000
  eigenvalues    EBANDS =      -786.47909712
  atomic energy  EATOM  =      2826.19653576
  Solvation  Ediel_sol  =       164.13317146
  ---------------------------------------------------
  free energy    TOTEN  =      -127.25029135 eV

  energy without entropy =     -127.25029135  energy(sigma->0) =     -127.25029135


--------------------------------------------------------------------------------------------------------




--------------------------------------- Iteration      1(  16)  ---------------------------------------


    POTLOK:  cpu time    472.0383: real time    472.0624
    SETDIJ:  cpu time      0.0345: real time      0.0344
    EDDIAG:  cpu time      5.5867: real time      5.5869
  RMM-DIIS:  cpu time      9.3518: real time      9.3522
    ORTHCH:  cpu time      1.2056: real time      1.2057
       DOS:  cpu time      0.4526: real time      0.4526
    CHARGE:  cpu time      3.5382: real time      3.5383
    MIXING:  cpu time      0.1922: real time      0.1922
    --------------------------------------------
      LOOP:  cpu time    492.3999: real time    492.4247

 eigenvalue-minimisations  :   216
 total energy-change (2. order) :-0.7539057E-01  (-0.6272746E-03)
 number of electron      62.9999985 magnetization       4.2568662
 augmentation part        2.9830957 magnetization       3.3963922

 Broyden mixing:
  rms(total) = 0.17583E-01    rms(broyden)= 0.17582E-01
  rms(prec ) = 0.17670E-01
  weight for this iteration     100.00

 eigenvalues of (default mixing * dielectric matrix)
  average eigenvalue GAMMA=   2.0852
 10.2273  5.4044  2.6864  2.1006  2.0112  1.5735  1.0457  1.0457  0.8694  0.8694
  0.7691  0.7142  0.7142  0.6231  0.6231

 Free energy of the ion-electron system (eV)
  ---------------------------------------------------
  alpha Z        PSCENC =         0.26386137
  Ewald energy   TEWEN  =      7014.73458126
  -Hartree energ DENC   =     -9569.08294451
  -exchange      EXHF   =         0.00000000
  -V(xc)+E(xc)   XCENC  =       235.96924557
  PAW double counting   =      5347.42128737    -5360.33625880
  entropy T*S    EENTRO =        -0.00000000
  eigenvalues    EBANDS =      -786.52490041
  atomic energy  EATOM  =      2826.19653576
  Solvation  Ediel_sol  =       164.03291047
  ---------------------------------------------------
  free energy    TOTEN  =      -127.32568192 eV

  energy without entropy =     -127.32568192  energy(sigma->0) =     -127.32568192


--------------------------------------------------------------------------------------------------------




--------------------------------------- Iteration      1(  17)  ---------------------------------------


    POTLOK:  cpu time    472.6198: real time    472.6417
    SETDIJ:  cpu time      0.0333: real time      0.0333
    EDDIAG:  cpu time      5.0595: real time      5.0617
  RMM-DIIS:  cpu time      9.7107: real time      9.7110
    ORTHCH:  cpu time      0.8884: real time      0.8884
       DOS:  cpu time      0.3780: real time      0.3780
    CHARGE:  cpu time      2.9770: real time      2.9770
    MIXING:  cpu time      0.1928: real time      0.1928
    --------------------------------------------
      LOOP:  cpu time    491.8594: real time    491.8839

 eigenvalue-minimisations  :   219
 total energy-change (2. order) :-0.2158984E-01  (-0.3762273E-03)
 number of electron      62.9999985 magnetization       3.4881150
 augmentation part        2.9832435 magnetization       2.6278871

 Broyden mixing:
  rms(total) = 0.14761E-01    rms(broyden)= 0.14761E-01
  rms(prec ) = 0.14864E-01
  weight for this iteration     100.00

 eigenvalues of (default mixing * dielectric matrix)
  average eigenvalue GAMMA=   2.1150
 10.7212  6.0718  3.0903  2.0543  2.0543  1.6044  1.0255  1.0255  1.0314  0.8641
  0.8641  0.7506  0.7506  0.6854  0.6234  0.6234

 Free energy of the ion-electron system (eV)
  ---------------------------------------------------
  alpha Z        PSCENC =         0.26386137
  Ewald energy   TEWEN  =      7014.73458126
  -Hartree energ DENC   =     -9568.89929394
  -exchange      EXHF   =         0.00000000
  -V(xc)+E(xc)   XCENC  =       235.94484914
  PAW double counting   =      5348.49292087    -5361.40864996
  entropy T*S    EENTRO =        -0.00000000
  eigenvalues    EBANDS =      -786.33783214
  atomic energy  EATOM  =      2826.19653576
  Solvation  Ediel_sol  =       163.66575588
  ---------------------------------------------------
  free energy    TOTEN  =      -127.34727175 eV

  energy without entropy =     -127.34727175  energy(sigma->0) =     -127.34727175


--------------------------------------------------------------------------------------------------------




--------------------------------------- Iteration      1(  18)  ---------------------------------------


    POTLOK:  cpu time    471.5948: real time    471.6175
    SETDIJ:  cpu time      0.0311: real time      0.0311
    EDDIAG:  cpu time      5.6070: real time      5.6074
  RMM-DIIS:  cpu time      9.5838: real time      9.5845
    ORTHCH:  cpu time      1.2441: real time      1.2441
       DOS:  cpu time      0.5292: real time      0.5292
    CHARGE:  cpu time      3.7310: real time      3.7312
[...]
  alpha Z        PSCENC =         0.26386137
  Ewald energy   TEWEN  =      7019.54665439
  -Hartree energ DENC   =     -9572.31211620
  -exchange      EXHF   =         0.00000000
  -V(xc)+E(xc)   XCENC  =       235.89857278
  PAW double counting   =      5357.65668112    -5370.57676454
  entropy T*S    EENTRO =        -0.00000000
  eigenvalues    EBANDS =      -786.10185446
  atomic energy  EATOM  =      2826.19653576
  Solvation  Ediel_sol  =       161.96435090
  ---------------------------------------------------
  free energy    TOTEN  =      -127.46407887 eV

  energy without entropy =     -127.46407887  energy(sigma->0) =     -127.46407887


--------------------------------------------------------------------------------------------------------




--------------------------------------- Iteration      6(   8)  ---------------------------------------


    POTLOK:  cpu time    382.5448: real time    382.5630
    SETDIJ:  cpu time      0.0305: real time      0.0305
    EDDIAG:  cpu time      5.3306: real time      5.3307
  RMM-DIIS:  cpu time      6.4510: real time      6.4512
    ORTHCH:  cpu time      1.2490: real time      1.2490
       DOS:  cpu time      0.2049: real time      0.2049
    --------------------------------------------
      LOOP:  cpu time    395.8108: real time    395.8293

 eigenvalue-minimisations  :   108
 total energy-change (2. order) : 0.4291798E-05  (-0.4972718E-07)
 number of electron      62.9999985 magnetization       1.0000004
 augmentation part        2.9852138 magnetization       0.1403958

 Free energy of the ion-electron system (eV)
  ---------------------------------------------------
  alpha Z        PSCENC =         0.26386137
  Ewald energy   TEWEN  =      7019.54665439
  -Hartree energ DENC   =     -9572.31319041
  -exchange      EXHF   =         0.00000000
  -V(xc)+E(xc)   XCENC  =       235.89860545
  PAW double counting   =      5357.68257053    -5370.60264317
  entropy T*S    EENTRO =        -0.00000000
  eigenvalues    EBANDS =      -786.10105132
  atomic energy  EATOM  =      2826.19653576
  Solvation  Ediel_sol  =       161.96458282
  ---------------------------------------------------
  free energy    TOTEN  =      -127.46407457 eV

  energy without entropy =     -127.46407457  energy(sigma->0) =     -127.46407457


--------------------------------------------------------------------------------------------------------




 average (electrostatic) potential at core
  the test charge radii are     0.6991  0.7089  0.7215  0.5201
  (the norm of the test charge is              1.0000)
       1 -58.6050       2 -58.6386       3 -59.5394       4 -58.6455       5 -58.7075
       6 -58.6132       7 -60.1611       8 -58.2443       9 -77.1322      10 -79.4068
      11 -79.5915      12 -79.5900      13 -41.8282      14 -41.6595      15 -41.8282
      16 -41.9935      17 -41.8868      18 -41.8737      19 -41.7905
 
 
 
 E-fermi :  -3.1645     XC(G=0):  -0.0517     alpha+bet : -0.0205

 Fermi energy:        -3.1644577166

 spin component 1

 k-point     1 :       0.0000    0.0000    0.0000
  band No.  band energies     occupation 
      1     -28.6725      1.00000
      2     -25.1561      1.00000
      3     -24.3300      1.00000
      4     -21.3460      1.00000
      5     -19.5886      1.00000
      6     -18.4390      1.00000
      7     -18.0276      1.00000
      8     -16.8289      1.00000
      9     -14.7238      1.00000
     10     -14.3697      1.00000
     11     -13.2987      1.00000
     12     -12.5308      1.00000
     13     -11.7468      1.00000
     14     -11.6619      1.00000
     15     -11.2585      1.00000
     16     -10.7143      1.00000
     17     -10.5663      1.00000
     18     -10.4730      1.00000
     19     -10.0749      1.00000
     20      -9.5631      1.00000
     21      -9.5015      1.00000
     22      -8.9818      1.00000
     23      -8.7113      1.00000
     24      -8.2342      1.00000
     25      -7.8709      1.00000
     26      -6.6196      1.00000
     27      -6.3525      1.00000
     28      -6.3408      1.00000
     29      -6.2894      1.00000
     30      -5.5174      1.00000
     31      -5.3796      1.00000
     32      -3.3890      1.00000
     33      -1.8620      0.00000
     34      -1.1301      0.00000
     35      -0.4035      0.00000
     36      -0.0866      0.00000
     37      -0.0041      0.00000
     38       0.0089      0.00000
     39       0.0546      0.00000
     40       0.0796      0.00000
     41       0.0802      0.00000
     42       0.0968      0.00000
     43       0.1029      0.00000
     44       0.1134      0.00000
     45       0.1214      0.00000
     46       0.1682      0.00000
     47       0.1710      0.00000
     48       0.1716      0.00000
     49       0.1721      0.00000
     50       0.1722      0.00000
     51       0.1751      0.00000
     52       0.1755      0.00000
     53       0.1784      0.00000
     54       0.2155      0.00000
 Fermi energy:        -3.1644577166

 spin component 2

 k-point     1 :       0.0000    0.0000    0.0000
  band No.  band energies     occupation 
      1     -28.4786      1.00000
      2     -25.0570      1.00000
      3     -24.1529      1.00000
      4     -21.2704      1.00000
      5     -19.4520      1.00000
      6     -18.3828      1.00000
      7     -17.9560      1.00000
      8     -16.7076      1.00000
      9     -14.6995      1.00000
     10     -14.2640      1.00000
     11     -13.2529      1.00000
     12     -12.4050      1.00000
     13     -11.5725      1.00000
     14     -11.2698      1.00000
     15     -11.2057      1.00000
     16     -10.6437      1.00000
     17     -10.5367      1.00000
     18     -10.3558      1.00000
     19     -10.0591      1.00000
     20      -9.5224      1.00000
     21      -9.4801      1.00000
     22      -8.8374      1.00000
     23      -8.6785      1.00000
     24      -8.0453      1.00000
     25      -7.8557      1.00000
     26      -6.3506      1.00000
     27      -6.2440      1.00000
     28      -6.0692      1.00000
     29      -5.9972      1.00000
     30      -5.4192      1.00000
     31      -5.3208      1.00000
     32      -2.9400      0.00000
     33      -1.4957      0.00000
     34      -1.0386      0.00000
     35      -0.3583      0.00000
     36      -0.0579      0.00000
     37      -0.0014      0.00000
     38       0.0302      0.00000
     39       0.0649      0.00000
     40       0.0795      0.00000
     41       0.0808      0.00000
     42       0.1011      0.00000
     43       0.1115      0.00000
     44       0.1133      0.00000
     45       0.1358      0.00000
     46       0.1675      0.00000
     47       0.1714      0.00000
     48       0.1727      0.00000
     49       0.1734      0.00000
     50       0.1736      0.00000
     51       0.1769      0.00000
     52       0.1771      0.00000
     53       0.1786      0.00000
     54       0.2203      0.00000


--------------------------------------------------------------------------------------------------------


 soft charge-density along one line, spin component           1
         0         1         2         3         4         5         6         7         8         9
 total charge-density along one line
 
 soft charge-density along one line, spin component           2
         0         1         2         3         4         5         6         7         8         9
 total charge-density along one line
 
 pseudopotential strength for first ion, spin component:           1
 10.245  13.625   0.001   0.000  -0.001  -0.003  -0.000   0.003
 13.625  18.119   0.001   0.000  -0.001  -0.005  -0.000   0.004
  0.001   0.001  -4.368   0.000  -0.001   8.544  -0.000   0.001
  0.000   0.000   0.000  -4.364   0.000  -0.000   8.542  -0.000
 -0.001  -0.001  -0.001   0.000  -4.371   0.001  -0.000   8.548
 -0.003  -0.005   8.544  -0.000   0.001 -18.850   0.000  -0.002
 -0.000  -0.000  -0.000   8.542  -0.000   0.000 -18.855   0.000
  0.003   0.004   0.001  -0.000   8.548  -0.002   0.000 -18.857
 pseudopotential strength for first ion, spin component:           2
 10.245  13.624   0.001   0.000  -0.001  -0.004  -0.000   0.003
 13.624  18.118   0.002   0.000  -0.001  -0.005  -0.000   0.004
  0.001   0.002  -4.368  -0.000  -0.001   8.544   0.000   0.001
  0.000   0.000  -0.000  -4.363   0.000   0.000   8.540  -0.000
 -0.001  -0.001  -0.001   0.000  -4.371   0.001  -0.000   8.549
 -0.004  -0.005   8.544   0.000   0.001 -18.851   0.000  -0.002
 -0.000  -0.000   0.000   8.540  -0.000   0.000 -18.851   0.000
  0.003   0.004   0.001  -0.000   8.549  -0.002   0.000 -18.858
 total augmentation occupancy for first ion, spin component:           1
  7.834  -3.398   0.154   0.000  -0.180   0.033   0.000  -0.033
 -3.398   1.518  -0.107  -0.000   0.114  -0.021  -0.000   0.019
  0.154  -0.107   1.758   0.000   0.022   0.152   0.000   0.007
  0.000  -0.000   0.000   1.132  -0.000   0.000   0.065  -0.000
 -0.180   0.114   0.022  -0.000   1.855   0.007  -0.000   0.170
  0.033  -0.021   0.152   0.000   0.007   0.014   0.000   0.001
  0.000  -0.000   0.000   0.065  -0.000   0.000   0.004  -0.000
 -0.033   0.019   0.007  -0.000   0.170   0.001  -0.000   0.017
 total augmentation occupancy for first ion, spin component:           2
  0.004  -0.004  -0.002   0.000  -0.004  -0.000   0.000  -0.001
 -0.004   0.003   0.000  -0.000   0.003   0.000  -0.000   0.000
 -0.002   0.000  -0.002  -0.000  -0.001   0.000   0.000   0.000
  0.000  -0.000  -0.000   0.007   0.000   0.000   0.000  -0.000
 -0.004   0.003  -0.001   0.000  -0.003   0.000  -0.000   0.000
 -0.000   0.000   0.000   0.000   0.000   0.000   0.000   0.000
  0.000  -0.000   0.000   0.000  -0.000   0.000   0.000  -0.000
 -0.001   0.000   0.000  -0.000   0.000   0.000  -0.000   0.000


------------------------ aborting loop because EDIFF is reached ----------------------------------------


    CHARGE:  cpu time      3.3479: real time      3.3481
    FORLOC:  cpu time      0.3195: real time      0.3195
    FORNL :  cpu time      4.3673: real time      4.3676
    STRESS:  cpu time     13.0045: real time     13.0054
    FORCOR:  cpu time     18.6138: real time     18.6148
    FORHAR:  cpu time      2.9505: real time      2.9507
    MIXING:  cpu time      0.1142: real time      0.1143
    OFIELD:  cpu time      0.0000: real time      0.0000

 ---------------------------------------------------------------------------------------------

         DFTD3 V3.0 Rev 1        
 Edisp (eV)   -0.23434

 E6    (eV) :    -0.0940
 E8    (eV) :    -0.1403
 % E8        : 59.89
    FORVDW:  cpu time      0.0082: real time      0.0083

  FORCE on cell =-STRESS in cart. coord.  units (eV):
  Direction    XX          YY          ZZ          XY          YZ          ZX
  --------------------------------------------------------------------------------------
  Alpha Z     0.26386     0.26386     0.26386
  Ewald    4813.46344  2760.43717  -554.35464   -18.28362     1.08186    -3.77384
  Hartree  5280.56134  3224.13963  1067.61828     9.75737     0.66564    -2.95608
  E(xc)    -252.39567  -252.01450  -258.07434    -0.24236     0.00220    -0.00410
  Local  -10778.99720 -6623.01890 -1271.06091    -5.18535    -1.69179     6.68277
  n-local  -134.69681  -135.10335  -126.15125     0.36330    -0.00567     0.00854
  augment    19.86594    16.20790    18.69760     0.83048    -0.00164    -0.00127
  Kinetic  1051.81375  1010.88795  1123.12007    13.32054    -0.05329     0.04567
  Fock        0.00000     0.00000     0.00000     0.00000     0.00000     0.00000
  vdW        -0.01447     0.02098     0.00323    -0.01427     0.00001    -0.00004
  -------------------------------------------------------------------------------------
  Total      -0.13583     1.82075     0.06190     0.54608    -0.00269     0.00165
  in kB      -0.00340     0.04558     0.00155     0.01367    -0.00007     0.00004
  external pressure =        0.01 kB  Pullay stress =        0.00 kB


 VOLUME and BASIS-vectors are now :
 -----------------------------------------------------------------------------
  energy-cutoff  :      500.00
  volume of cell :    64000.00
      direct lattice vectors                 reciprocal lattice vectors
    40.000000000  0.000000000  0.000000000     0.025000000  0.000000000  0.000000000
     0.000000000 40.000000000  0.000000000     0.000000000  0.025000000  0.000000000
     0.000000000  0.000000000 40.000000000     0.000000000  0.000000000  0.025000000

  length of vectors
    40.000000000 40.000000000 40.000000000     0.025000000  0.025000000  0.025000000


 FORCES acting on ions
    electron-ion (+dipol)            ewald-force                    non-local-force                 convergence-correction
 -----------------------------------------------------------------------------------------------
   -.546E+02 0.190E+03 0.118E+00   0.552E+02 -.191E+03 -.117E+00   -.880E+00 0.121E+01 -.263E-04   0.128E-02 -.177E-03 -.111E-04
   0.390E+02 0.197E+03 0.638E-01   -.403E+02 -.199E+03 -.628E-01   0.303E+00 0.225E+01 -.260E-03   0.135E-02 -.525E-04 -.307E-04
   0.588E+01 -.330E+00 0.438E-01   -.181E+01 0.295E-01 -.467E-01   -.538E+01 0.503E-01 0.430E-02   0.124E-02 -.220E-03 -.400E-04
   0.354E+02 -.197E+03 -.765E-01   -.371E+02 0.198E+03 0.773E-01   0.330E+00 -.223E+01 0.308E-03   0.123E-02 -.337E-03 -.258E-04
   -.612E+02 -.187E+03 -.918E-01   0.607E+02 0.187E+03 0.923E-01   -.717E+00 -.818E+00 0.821E-04   0.110E-02 -.351E-03 -.688E-05
   -.603E+02 -.644E+01 0.376E-01   0.604E+02 0.519E+01 -.378E-01   -.660E+00 0.152E+00 -.886E-04   0.118E-02 -.425E-03 0.446E-06
   -.791E+02 -.694E+02 0.964E-01   0.766E+02 0.721E+02 -.960E-01   0.223E+01 -.460E+01 -.698E-05   0.672E-03 -.606E-03 0.110E-04
   -.158E+03 -.141E+03 0.165E+00   0.159E+03 0.139E+03 -.170E+00   -.708E+00 0.384E+00 0.292E-02   0.299E-03 -.614E-03 0.457E-05
   0.792E+02 -.561E+00 -.377E-01   -.762E+02 0.370E+00 0.360E-01   -.523E+01 0.373E-01 0.435E-02   0.786E-03 -.181E-03 -.756E-04
   -.283E+03 0.296E+03 0.129E+00   0.308E+03 -.341E+03 -.136E+00   -.239E+02 0.416E+02 0.689E-02   0.558E-03 -.231E-03 0.195E-04
   0.318E+03 -.350E+03 -.369E+00   -.345E+03 0.392E+03 0.406E+00   0.243E+02 -.421E+02 -.359E-01   0.212E-03 0.485E-03 -.605E-04
   0.322E+03 0.346E+03 -.130E+00   -.349E+03 -.388E+03 0.138E+00   0.247E+02 0.418E+02 -.437E-02   0.511E-03 -.544E-03 -.123E-03
   -.188E+02 -.572E+02 -.563E+02   0.176E+02 0.599E+02 0.606E+02   0.111E+01 -.308E+01 -.443E+01   0.744E-04 -.119E-03 0.149E-04
   -.871E+02 -.915E+01 0.175E+00   0.923E+02 0.745E+01 -.187E+00   -.552E+01 0.121E+01 0.125E-01   0.189E-04 -.144E-03 -.147E-07
   -.186E+02 -.574E+02 0.562E+02   0.173E+02 0.600E+02 -.605E+02   0.113E+01 -.310E+01 0.442E+01   0.747E-04 -.118E-03 -.163E-04
   -.287E+02 -.861E+02 -.380E-01   0.312E+02 0.907E+02 0.393E-01   -.280E+01 -.510E+01 -.112E-02   0.241E-03 -.841E-04 -.162E-05
   0.260E+02 -.899E+02 -.779E-01   -.295E+02 0.945E+02 0.835E-01   0.302E+01 -.506E+01 -.607E-02   0.239E-03 0.310E-04 -.653E-05
   0.272E+02 0.897E+02 0.346E-01   -.306E+02 -.943E+02 -.347E-01   0.310E+01 0.501E+01 0.943E-03   0.271E-03 -.710E-04 -.977E-05
   -.282E+02 0.876E+02 0.767E-01   0.313E+02 -.924E+02 -.814E-01   -.299E+01 0.502E+01 0.549E-02   0.286E-03 0.343E-04 -.222E-05
 -----------------------------------------------------------------------------------------------
   -.114E+02 -.327E+02 0.166E-01   0.497E-13 -.142E-12 -.257E-14   0.114E+02 0.327E+02 -.214E-01   0.116E-01 -.372E-02 -.360E-03
 
 
 POSITION                                       TOTAL-FORCE (eV/Angst)
 -----------------------------------------------------------------------------------
     20.04589     18.53324     19.99943         0.005238     -0.008077     -0.000557
     18.66692     18.53278     20.00034         0.002773     -0.015271     -0.000590
     17.96000     19.76307     20.00131         0.010288      0.000526      0.000320
     18.68578     20.98100     20.00140         0.005863      0.012946      0.000879
     20.06917     20.96160     20.00066         0.004656      0.006389      0.000322
     20.79537     19.74094     19.99948        -0.002536     -0.009291     -0.000668
     22.25784     19.68033     19.99836        -0.007528      0.008198      0.000290
     23.05079     20.97256     19.99759        -0.006044      0.006169     -0.001301
     16.55797     19.77078     20.00243        -0.019555      0.003400      0.000636
     22.86911     18.58342     19.99817         0.003087     -0.015404     -0.000226
     15.93094     20.89454     20.00335         0.014449      0.001826     -0.000578
     15.91944     18.65314     20.00256         0.010345      0.001296      0.001241
     22.81955     21.58328     20.88201        -0.011767      0.010179      0.010931
     24.12002     20.73827     19.99514         0.003586     -0.000079     -0.000081
     22.81562     21.58536     19.11576        -0.011781      0.010518     -0.011923
     20.60127     21.91318     20.00086         0.008032     -0.006671      0.000391
     18.13832     21.92090     20.00252        -0.002815     -0.002796     -0.000210
     18.10406     17.60197     20.00016        -0.007390      0.001417      0.000463
     20.59190     17.58980     19.99841         0.001100     -0.005275      0.000660
 -----------------------------------------------------------------------------------
    total drift:                               -0.011774     -0.000924     -0.005070


--------------------------------------------------------------------------------------------------------



  FREE ENERGIE OF THE ION-ELECTRON SYSTEM (eV)
  ---------------------------------------------------
  free  energy   TOTEN  =      -127.69841141 eV

  energy  without entropy=     -127.69841141  energy(sigma->0) =     -127.69841141
 
 d Force = 0.6353124E-04[ 0.317E-05, 0.124E-03]  d Energy = 0.7227379E-05 0.563E-04
 d Force =-0.1002113E+01[-0.100E+01,-0.100E+01]  d Ewald  =-0.1002113E+01-0.374E-07


--------------------------------------------------------------------------------------------------------


    POTLOK:  cpu time    369.0263: real time    369.0387


--------------------------------------------------------------------------------------------------------


 Conjugate gradient step on ions:
 trial-energy change:   -0.000007  1 .order   -0.000064   -0.000124   -0.000003
  (g-gl).g = 0.269E-03      g.g   = 0.267E-03  gl.gl    = 0.460E-03
 g(Force)  = 0.267E-03   g(Stress)= 0.000E+00 ortho     =-0.114E-04
 gamma     =   0.58561
 trial     =   0.47653
 opt step  =   0.48904  (harmonic =   0.48904) maximal distance =0.00090572
 next E    =  -127.698468   (d E  =  -0.00006)


--------------------------------------------------------------------------------------------------------


  
 reached required accuracy - stopping structural energy minimisation
 writing wavefunctions
     LOOP+:  cpu time   3894.8582: real time   3896.9065
    4ORBIT:  cpu time      0.0000: real time      0.0000

 total amount of memory used by VASP MPI-rank0   565941. kBytes
=======================================================================

   base      :      30000. kBytes
   nonlr-proj:       1818. kBytes
   fftplans  :     131430. kBytes
   grid      :     371484. kBytes
   one-center:         12. kBytes
   wavefun   :      31197. kBytes
 
  
  
 General timing and accounting informations for this job:
 ========================================================
  
                  Total CPU time used (sec):    34745.559
                            User time (sec):    14009.259
                          System time (sec):    20736.300
                         Elapsed time (sec):    34750.344
  
                   Maximum memory used (kb):     1637076.
                   Average memory used (kb):          N/A
  
                          Minor page faults:     84422320
                          Major page faults:            0
                 Voluntary context switches:         4042
