
                                 *****************
                                 * O   R   C   A *
                                 *****************

                                            #,                                       
                                            ###                                      
                                            ####                                     
                                            #####                                    
                                            ######                                   
                                           ########,                                 
                                     ,,################,,,,,                         
                               ,,#################################,,                 
                          ,,##########################################,,             
                       ,#########################################, ''#####,          
                    ,#############################################,,   '####,        
                  ,##################################################,,,,####,       
                ,###########''''           ''''###############################       
              ,#####''   ,,,,##########,,,,          '''####'''          '####       
            ,##' ,,,,###########################,,,                        '##       
           ' ,,###''''                  '''############,,,                           
         ,,##''                                '''############,,,,        ,,,,,,###''
      ,#''                                            '''#######################'''  
     '                                                          ''''####''''         
             ,#######,   #######,   ,#######,      ##                                
            ,#'     '#,  ##    ##  ,#'     '#,    #''#        ,####,   ,####,        
            ##       ##  ##   ,#'  ##            #'  '#       #'       #'  '#        
            ##       ##  #######   ##           ,######,      #####,   #    #        
            '#,     ,#'  ##    ##  '#,     ,#' ,#      #,     #,   #   #,  ,#        
             '#######'   ##     ##  '#######'  #'      '#     '####' # '####'        



                #########################################################
                #                        -***-                          #
                #          Department of theory and spectroscopy        #
                #                                                       #
                #                      Frank Neese                      #
                #                                                       #
                #     Directorship, Architecture, Infrastructure        #
                #                    SHARK, DRIVERS                     #
                #        Core code/Algorithms in most modules           #
                #                                                       #
                #        Max Planck Institute fuer Kohlenforschung      #
                #                Kaiser Wilhelm Platz 1                 #
                #                 D-45470 Muelheim/Ruhr                 #
                #                      Germany                          #
                #                                                       #
                #                  All rights reserved                  #
                #                        -***-                          #
                #########################################################


                         Program Version 6.0.0  -   RELEASE  -


 With contributions from (in alphabetic order):
   Daniel Aravena         : Magnetic Suceptibility
   Michael Atanasov       : Ab Initio Ligand Field Theory (pilot matlab implementation)
   Alexander A. Auer      : GIAO ZORA, VPT2 properties, NMR spectrum
   Ute Becker             : All parallelization in ORCA, NUMFREQ, NUMCALC
   Giovanni Bistoni       : ED, misc. LED, open-shell LED, HFLD
   Martin Brehm           : Molecular dynamics
   Dmytro Bykov           : pre 5.0 version of the SCF Hessian
   Marcos Casanova-Páez   : Triplet and SCS-CIS(D). UHF-(DLPNO)-IP/EA/STEOM-CCSD. UHF-CVS-IP/STEOM-CCSD
   Vijay G. Chilkuri      : MRCI spin determinant printing, contributions to CSF-ICE
   Pauline Colinet        : FMM embedding
   Dipayan Datta          : RHF DLPNO-CCSD density
   Achintya Kumar Dutta   : EOM-CC, STEOM-CC
   Nicolas Foglia         : Exact transition moments, OPA infrastructure, MCD improvements
   Dmitry Ganyushin       : Spin-Orbit,Spin-Spin,Magnetic field MRCI
   Miquel Garcia          : C-PCM and meta-GGA Hessian, CCSD/C-PCM, Gaussian charge scheme
   Tiago L. C. Gouveia    : GS-ROHF, GS-ROCIS
   Yang Guo               : DLPNO-NEVPT2, F12-NEVPT2, CIM, IAO-localization
   Andreas Hansen         : Spin unrestricted coupled pair/coupled cluster methods
   Ingolf Harden          : AUTO-CI MPn and infrastructure 
   Benjamin Helmich-Paris : MC-RPA, TRAH-(SCF,CASSCF), AVAS, COSX integrals, SCF dyn. polar.
   Lee Huntington         : MR-EOM, pCC
   Robert Izsak           : Overlap fitted RIJCOSX, COSX-SCS-MP3, EOM
   Riya Kayal             : Wick's Theorem for AUTO-CI, AUTO-CI UHF-CCSDT
   Emily Kempfer          : AUTO-CI, RHF CISDT and CCSDT
   Christian Kollmar      : KDIIS, OOCD, Brueckner-CCSD(T), CCSD density, CASPT2, CASPT2-K, improved NEVPT2
   Axel Koslowski         : Symmetry handling
   Simone Kossmann        : Meta GGA functionals, TD-DFT gradient, OOMP2, (MP2 Hessian; deprecated post 5.0)
   Lucas Lang             : DCDCAS
   Marvin Lechner         : AUTO-CI (C++ implementation), FIC-MRCC
   Spencer Leger          : CASSCF response
   Dagmar Lenk            : GEPOL surface, SMD, ORCA-2-JSON
   Dimitrios Liakos       : Extrapolation schemes; Compound Job, initial MDCI parallelization
   Dimitrios Manganas     : Further ROCIS development; embedding schemes. LFT, Crystal Embedding
   Dimitrios Pantazis     : SARC Basis sets
   Anastasios Papadopoulos: AUTO-CI, single reference methods and gradients
   Taras Petrenko         : pre 6.0 DFT Hessian and TD-DFT gradient, (ASA, deprecated), ECA, 1-Electron XAS/XES, NRVS
   Peter Pinski           : DLPNO-MP2, DLPNO-MP2 Gradient
   Christoph Reimann      : Effective Core Potentials
   Marius Retegan         : Local ZFS, SOC
   Christoph Riplinger    : Optimizer, TS searches, QM/MM, DLPNO-CCSD(T), (RO)-DLPNO pert. Triples
   Michael Roemelt        : Original ROCIS implementation
   Masaaki Saitow         : Open-shell DLPNO-CCSD energy and density
   Barbara Sandhoefer     : DKH picture change effects
   Kantharuban Sivalingam : CASSCF convergence/infrastructure, NEVPT2 and variants, FIC-MRCI
   Bernardo de Souza      : ESD, SOC TD-DFT
   Georgi Stoychev        : AutoAux, RI-MP2 NMR, DLPNO-MP2 response, X2C
   Van Anh Tran           : RI-MP2 g-tensors
   Willem Van den Heuvel  : Paramagnetic NMR
   Zikuan Wang            : NOTCH, Electric field optimization 
   Frank Wennmohs         : Technical directorship and infrastructure
   Hang Xu                : AUTO-CI-Response properties 


 We gratefully acknowledge several colleagues who have allowed us to
 interface, adapt or use parts of their codes:
   Stefan Grimme, W. Hujo, H. Kruse, P. Pracht,  : VdW corrections, initial TS optimization,
                  C. Bannwarth, S. Ehlert,         DFT functionals, gCP, sTDA/sTD-DF
                  L. Wittmann, M. Mueller
   Ed Valeev, F. Pavosevic, A. Kumar             : LibInt (2-el integral package), F12 methods
   Garnet Chan, S. Sharma, J. Yang, R. Olivares  : DMRG
   Ulf Ekstrom                                   : XCFun DFT Library
   Mihaly Kallay                                 : mrcc  (arbitrary order and MRCC methods)
   Frank Weinhold                                : gennbo (NPA and NBO analysis)
   Simon Mueller                                 : openCOSMO-RS
   Christopher J. Cramer and Donald G. Truhlar   : smd solvation model
   Lars Goerigk                                  : TD-DFT with DH, B97 family of functionals
   V. Asgeirsson, H. Jonsson                     : NEB implementation
   FAccTs GmbH                                   : IRC, NEB, NEB-TS, DLPNO-Multilevel, CI-OPT
                                                   MM, QMMM, 2- and 3-layer-ONIOM, Crystal-QMMM,
                                                   LR-CPCM, SF, NACMEs, symmetry and pop. for TD-DFT,
                                                   nearIR, NL-DFT gradient (VV10), updates on ESD,
                                                   ML-optimized integration grids, MBIS, APM,
                                                   GOAT, DOCKER, SOLVATOR, interface openCOSMO-RS
   S Lehtola, MJT Oliveira, MAL Marques          : LibXC Library
   Liviu Ungur et al                             : ANISO software


 Your calculation uses the libint2 library for the computation of 2-el integrals
 For citations please refer to: http://libint.valeyev.net

 Your ORCA version has been built with support for libXC version: 6.2.2
 For citations please refer to: https://libxc.gitlab.io

 This ORCA versions uses:
   CBLAS   interface :  Fast vector & matrix operations
   LAPACKE interface :  Fast linear algebra routines
   SCALAPACK package :  Parallel linear algebra routines
   Shared memory     :  Shared parallel matrices
   BLAS/LAPACK       :  OpenBLAS 0.3.27  USE64BITINT DYNAMIC_ARCH NO_AFFINITY Haswell SINGLE_THREADED
        Core in use  :  Haswell
   Copyright (c) 2011-2014, The OpenBLAS Project


NOTE: MaxCore=3000 MB was set to SCF,MP2,MDCI,CIPSI,MRCI and CIS
      => If you want to overwrite this, your respective input block should be placed after the MaxCore statement
Your calculation utilizes the atom-pairwise dispersion correction
with the Becke-Johnson damping scheme (D3BJ)


Your calculation utilizes the SMD solvation module
Please cite in your paper:
A.V. Marenich, C.J. Cramer, D.G. Truhlar J. Phys. Chem. B, 113, (2009), 6378 

Warning: RI is on but no J-basis has been assigned. Assigning Def2/J (nothing to worry about!)
================================================================================

----- Orbital basis set information -----
Your calculation utilizes the basis: aug-cc-pVTZ 
    H, B-Ne : Obtained from the ccRepo (grant-hill.group.shef.ac.uk/ccrepo) Feb. 2017
              R. A. Kendall, T. H. Dunning, Jr., R. J. Harrison, J. Chem. Phys. 96, 6796 (1992)
         He : Obtained from the ccRepo (grant-hill.group.shef.ac.uk/ccrepo) Feb. 2017
              D. E. Woon, T. H. Dunning, Jr., J. Chem. Phys. 100, 2975 (1994)
  Li-Be, Na : Obtained from the ccRepo (grant-hill.group.shef.ac.uk/ccrepo) Feb. 2017
              B. P. Prascher, D. E. Woon, K. A. Peterson, T. H. Dunning, Jr., A. K. Wilson, Theor. Chem. Acc. 128, 69 (2011)
         Mg : Obtained from the Peterson Research Group Website (tyr0.chem.wsu.edu/~kipeters) Feb. 2017
              B. P. Prascher, D. E. Woon, K. A. Peterson, T. H. Dunning, Jr., A. K. Wilson, Theor. Chem. Acc. 128, 69 (2011)
      Al-Ar : Obtained from the ccRepo (grant-hill.group.shef.ac.uk/ccrepo) Feb. 2017
              D. E. Woon, T. H. Dunning, Jr., J. Chem. Phys. 98, 1358 (1993)
      Sc-Zn : Obtained from the ccRepo (grant-hill.group.shef.ac.uk/ccrepo) Feb. 2017
              N. B. Balabanov, K. A. Peterson, J. Chem. Phys. 123, 064107 (2005)
              N. B. Balabanov, K. A. Peterson, J. Chem. Phys. 125, 074110 (2006)
      Ga-Kr : Obtained from the ccRepo (grant-hill.group.shef.ac.uk/ccrepo) Feb. 2017
              A. K. Wilson, D. E. Woon, K. A. Peterson, T. H. Dunning, Jr., J. Chem. Phys. 110, 7667 (1999)
     Ag, Au : Obtained from the Peterson Research Group Website (tyr0.chem.wsu.edu/~kipeters) Feb. 2017
              K. A. Peterson, C. Puzzarini, Theor. Chem. Acc. 114, 283 (2005)

----- AuxJ basis set information -----
Your calculation utilizes the auxiliary basis: def2/J
   F. Weigend, Phys. Chem. Chem. Phys. 8, 1057 (2006).

================================================================================
                                        WARNINGS
                       Please study these warnings very carefully!
================================================================================

Using LibXC functional ID 497 : Re-regularized SCAN exchange by Furness et al
[ 1]  J. W. Furness, A. D. Kaplan, J. Ning, J. P. Perdew, and J. Sun.,  J. Phys. Chem. Lett. 11, 8208-8215 (2020)
[ 2]  J. W. Furness, A. D. Kaplan, J. Ning, J. P. Perdew, and J. Sun.,  J. Phys. Chem. Lett. 11, 9248-9248 (2020)
Using LibXC functional ID 498 : Re-regularized SCAN correlation by Furness et al
[ 1]  J. W. Furness, A. D. Kaplan, J. Ning, J. P. Perdew, and J. Sun.,  J. Phys. Chem. Lett. 11, 8208-8215 (2020)
[ 2]  J. W. Furness, A. D. Kaplan, J. Ning, J. P. Perdew, and J. Sun.,  J. Phys. Chem. Lett. 11, 9248-9248 (2020)
Using LibXC functional ID 497 : Re-regularized SCAN exchange by Furness et al
[ 1]  J. W. Furness, A. D. Kaplan, J. Ning, J. P. Perdew, and J. Sun.,  J. Phys. Chem. Lett. 11, 8208-8215 (2020)
[ 2]  J. W. Furness, A. D. Kaplan, J. Ning, J. P. Perdew, and J. Sun.,  J. Phys. Chem. Lett. 11, 9248-9248 (2020)
Using LibXC functional ID 498 : Re-regularized SCAN correlation by Furness et al
[ 1]  J. W. Furness, A. D. Kaplan, J. Ning, J. P. Perdew, and J. Sun.,  J. Phys. Chem. Lett. 11, 8208-8215 (2020)
[ 2]  J. W. Furness, A. D. Kaplan, J. Ning, J. P. Perdew, and J. Sun.,  J. Phys. Chem. Lett. 11, 9248-9248 (2020)

WARNING: your system is open-shell and RHF/RKS was chosen
  ===> : WILL SWITCH to UHF/UKS


================================================================================
                                       INPUT FILE
================================================================================
NAME = cs_rporg_169_red_solv_04.inp
|  1> !r2SCANh aug-cc-pVTZ d3 TightSCF SlowConv RIJCOSX defgrid2
|  2>  
|  3> %pal
|  4> nprocs 6
|  5> end
|  6>  
|  7> %scf
|  8> MaxIter 1500
|  9> end
| 10>  
| 11> %maxcore 3000
| 12>  
| 13> !CPCM
| 14> %cpcm smd true
| 15> SMDsolvent "MeCN"
| 16> surfacetype gepol_ses
| 17> rsolv 2.19
| 18> end 
| 19>  
| 20> * xyz -1 2
| 21>   C          -1.16908364743389     -1.25106043112589     -0.00046711885945
| 22>   C          -2.51558895662628     -0.94805778331016     -0.00048970260602
| 23>   C          -2.96951415995677      0.38786935411419     -0.00003437372110
| 24>   C          -1.99949719417351      1.41257476413842      0.00046952009611
| 25>   C          -0.64650719425624      1.13368035065037      0.00050575201273
| 26>   C          -0.16707249946699     -0.21739071251225      0.00002200149285
| 27>   C           1.18771930240505     -0.62830725495849      0.00000084051024
| 28>   O           1.69166054938407     -1.73447405522234     -0.00027921149921
| 29>   Cl          2.41415222066200      0.84117378911090      0.00088007792741
| 30>   H           0.08783721642061      1.94210741862158      0.00088650713536
| 31>   H          -2.32239478311716      2.46171169296406      0.00083360203305
| 32>   H          -4.03893270236722      0.62157662484535     -0.00006413910783
| 33>   H          -3.24555265578784     -1.76825494852385     -0.00088549117391
| 34>   H          -0.82790279568582     -2.29013880879190     -0.00083276424023
| 35> *
| 36> 
| 37>                          ****END OF INPUT****
================================================================================

                       ****************************
                       * Single Point Calculation *
                       ****************************

---------------------------------
CARTESIAN COORDINATES (ANGSTROEM)
---------------------------------
  C     -1.169084   -1.251060   -0.000467
  C     -2.515589   -0.948058   -0.000490
  C     -2.969514    0.387869   -0.000034
  C     -1.999497    1.412575    0.000470
  C     -0.646507    1.133680    0.000506
  C     -0.167072   -0.217391    0.000022
  C      1.187719   -0.628307    0.000001
  O      1.691661   -1.734474   -0.000279
  Cl     2.414152    0.841174    0.000880
  H      0.087837    1.942107    0.000887
  H     -2.322395    2.461712    0.000834
  H     -4.038933    0.621577   -0.000064
  H     -3.245553   -1.768255   -0.000885
  H     -0.827903   -2.290139   -0.000833

----------------------------
CARTESIAN COORDINATES (A.U.)
----------------------------
  NO LB      ZA    FRAG     MASS         X           Y           Z
   0 C     6.0000    0    12.011   -2.209248   -2.364162   -0.000883
   1 C     6.0000    0    12.011   -4.753774   -1.791570   -0.000925
   2 C     6.0000    0    12.011   -5.611569    0.732967   -0.000065
   3 C     6.0000    0    12.011   -3.778502    2.669379    0.000887
   4 C     6.0000    0    12.011   -1.221722    2.142345    0.000956
   5 C     6.0000    0    12.011   -0.315721   -0.410809    0.000042
   6 C     6.0000    0    12.011    2.244464   -1.187329    0.000002
   7 O     8.0000    0    15.999    3.196775   -3.277681   -0.000528
   8 Cl   17.0000    0    35.453    4.562087    1.589588    0.001663
   9 H     1.0000    0     1.008    0.165988    3.670051    0.001675
  10 H     1.0000    0     1.008   -4.388690    4.651961    0.001575
  11 H     1.0000    0     1.008   -7.632477    1.174610   -0.000121
  12 H     1.0000    0     1.008   -6.133206   -3.341518   -0.001673
  13 H     1.0000    0     1.008   -1.564510   -4.327735   -0.001574

--------------------------------
INTERNAL COORDINATES (ANGSTROEM)
--------------------------------
 C      0   0   0     0.000000000000     0.00000000     0.00000000
 C      1   0   0     1.380176493343     0.00000000     0.00000000
 C      2   1   0     1.410939266606   121.44884170     0.00000000
 C      3   2   1     1.411011816091   117.80358151     0.00000000
 C      4   3   2     1.381435497974   121.78218758     0.00000000
 C      5   4   3     1.433614619867   121.18484586     0.00000000
 C      6   5   4     1.415737698772   126.41036364   179.99973680
 O      7   6   5     1.215550019062   131.36566056   179.99344301
 Cl     7   6   5     1.914030567917   112.97559746     0.00000000
 H      5   4   3     1.092161243908   120.60346214   179.99917913
 H      4   3   2     1.097702728851   119.46343363   180.00015355
 H      3   2   1     1.094657530066   121.09430768   179.99943620
 H      2   1   3     1.097984767001   118.98666070   179.99915563
 H      1   2   3     1.093658256600   120.85952653   180.00062800

---------------------------
INTERNAL COORDINATES (A.U.)
---------------------------
 C      0   0   0     0.000000000000     0.00000000     0.00000000
 C      1   0   0     2.608155588894     0.00000000     0.00000000
 C      2   1   0     2.666288805480   121.44884170     0.00000000
 C      3   2   1     2.666425904139   117.80358151     0.00000000
 C      4   3   2     2.610534762849   121.78218758     0.00000000
 C      5   4   3     2.709139013135   121.18484586     0.00000000
 C      6   5   4     2.675356528146   126.41036364   179.99973680
 O      7   6   5     2.297056638110   131.36566056   179.99344301
 Cl     7   6   5     3.616993585318   112.97559746     0.00000000
 H      5   4   3     2.063885645069   120.60346214   179.99917913
 H      4   3   2     2.074357533986   119.46343363   180.00015355
 H      3   2   1     2.068602942259   121.09430768   179.99943620
 H      2   1   3     2.074890508850   118.98666070   179.99915563
 H      1   2   3     2.066714589076   120.85952653   180.00062800

---------------------
BASIS SET INFORMATION
---------------------
There are 4 groups of distinct atoms

 Group   1 Type C   : 19s6p3d2f contracted to 5s4p3d2f pattern {88111/3111/111/11}
 Group   2 Type O   : 19s6p3d2f contracted to 5s4p3d2f pattern {88111/3111/111/11}
 Group   3 Type Cl  : 42s17p3d2f contracted to 6s5p3d2f pattern {131313111/77111/111/11}
 Group   4 Type H   : 6s3p2d contracted to 4s3p2d pattern {3111/111/11}

Atom   0C    basis set group =>   1
Atom   1C    basis set group =>   1
Atom   2C    basis set group =>   1
Atom   3C    basis set group =>   1
Atom   4C    basis set group =>   1
Atom   5C    basis set group =>   1
Atom   6C    basis set group =>   1
Atom   7O    basis set group =>   2
Atom   8Cl   basis set group =>   3
Atom   9H    basis set group =>   4
Atom  10H    basis set group =>   4
Atom  11H    basis set group =>   4
Atom  12H    basis set group =>   4
Atom  13H    basis set group =>   4
---------------------------------
AUXILIARY/J BASIS SET INFORMATION
---------------------------------
There are 4 groups of distinct atoms

 Group   1 Type C   : 12s5p4d2f1g contracted to 6s4p3d1f1g pattern {711111/2111/211/2/1}
 Group   2 Type O   : 12s5p4d2f1g contracted to 6s4p3d1f1g pattern {711111/2111/211/2/1}
 Group   3 Type Cl  : 14s5p5d2f1g contracted to 8s4p3d1f1g pattern {71111111/2111/311/2/1}
 Group   4 Type H   : 5s2p1d contracted to 3s1p1d pattern {311/2/1}

Atom   0C    basis set group =>   1
Atom   1C    basis set group =>   1
Atom   2C    basis set group =>   1
Atom   3C    basis set group =>   1
Atom   4C    basis set group =>   1
Atom   5C    basis set group =>   1
Atom   6C    basis set group =>   1
Atom   7O    basis set group =>   2
Atom   8Cl   basis set group =>   3
Atom   9H    basis set group =>   4
Atom  10H    basis set group =>   4
Atom  11H    basis set group =>   4
Atom  12H    basis set group =>   4
Atom  13H    basis set group =>   4


           ************************************************************
           *        Program running with 6 parallel MPI-processes     *
           *              working on a common directory               *
           ************************************************************
------------------------------------------------------------------------------
                             ORCA STARTUP CALCULATIONS
                           -- RI-GTO INTEGRALS CHOSEN --
------------------------------------------------------------------------------
------------------------------------------------------------------------------
                   ___                                                        
                  /   \      - P O W E R E D   B Y -                         
                 /     \                                                     
                 |  |  |   _    _      __       _____    __    __             
                 |  |  |  | |  | |    /  \     |  _  \  |  |  /  |          
                  \  \/   | |  | |   /    \    | | | |  |  | /  /          
                 / \  \   | |__| |  /  /\  \   | |_| |  |  |/  /          
                |  |  |   |  __  | /  /__\  \  |    /   |      \           
                |  |  |   | |  | | |   __   |  |    \   |  |\   \          
                \     /   | |  | | |  |  |  |  | |\  \  |  | \   \       
                 \___/    |_|  |_| |__|  |__|  |_| \__\ |__|  \__/        
                                                                              
                      - O R C A' S   B I G   F R I E N D -                    
                                      &                                       
                       - I N T E G R A L  F E E D E R -                       
                                                                              
 v1 FN, 2020, v2 2021, v3 2022-2024                                           
------------------------------------------------------------------------------


----------------------
SHARK INTEGRAL PACKAGE
----------------------

Number of atoms                             ...     14
Number of basis functions                   ...    606
Number of shells                            ...    236
Maximum angular momentum                    ...      3
Integral batch strategy                     ... SHARK/LIBINT Hybrid
RI-J (if used) integral strategy            ... SPLIT-RIJ (Revised 2003 algorithm where possible)
Printlevel                                  ...      1
Contraction scheme used                     ... PARTIAL GENERAL contraction
Prescreening option                         ... SCHWARTZ
   Thresh                                   ... 2.500e-11
   Tcut                                     ... 2.500e-12
   Tpresel                                  ... 2.500e-12 
Coulomb Range Separation                    ... NOT USED
Exchange Range Separation                   ... NOT USED
Multipole approximations                    ... NOT USED
Finite Nucleus Model                        ... NOT USED
CABS basis                                  ... NOT available
Auxiliary Coulomb fitting basis             ... AVAILABLE
   # of basis functions in Aux-J            ...    498
   # of shells in Aux-J                     ...    162
   Maximum angular momentum in Aux-J        ...      4
Auxiliary J/K fitting basis                 ... NOT available
Auxiliary Correlation fitting basis         ... NOT available
Auxiliary 'external' fitting basis          ... NOT available

Checking pre-screening integrals            ... done (  0.0 sec) Dimension = 236
Save PGC pre-screening integrals            ... done (  0.0 sec) Dimension = 236
Calculate PGC overlap integrals             ... done (  0.1 sec) Dimension = 173
Calculating pre-screening integrals (ORCA)  ... done (  0.2 sec) Dimension = 173
Check shell pair data                       ... done (  0.0 sec)
Shell pair information
Shell pair cut-off parameter TPreSel        ...   2.5e-12
Total number of shell pairs                 ...     27966
Shell pairs after pre-screening             ...     22741
Total number of primitive shell pairs       ...     34492
Primitive shell pairs kept                  ...     26566
          la=0 lb=0:   5081 shell pairs
          la=1 lb=0:   5840 shell pairs
          la=1 lb=1:   1503 shell pairs
          la=2 lb=0:   3937 shell pairs
          la=2 lb=1:   1950 shell pairs
          la=2 lb=2:    671 shell pairs
          la=3 lb=0:   1979 shell pairs
          la=3 lb=1:    968 shell pairs
          la=3 lb=2:    645 shell pairs
          la=3 lb=3:    167 shell pairs

Calculating one electron integrals          ... done (  0.1 sec)
Calculating RI/J V-Matrix + Cholesky decomp.... done (  0.1 sec)
Calculating Nuclear repulsion               ... done (  0.0 sec) ENN=    455.698028192117 Eh

Diagonalization of the overlap matrix:
Smallest eigenvalue                        ... 7.069e-07
Time for diagonalization                   ...    0.055 sec
Threshold for overlap eigenvalues          ... 1.000e-07
Number of eigenvalues below threshold      ... 0

IMPORTANT:
Smallest eigenvalue of S below the DiffSThresh (1.000e-06) while
Thresh>1e-12 and/or TCut>1e-13! In order to avoid SCF convergence issues,
Thresh will be set to at least 1e-12 and TCut to at least 1e-13.
This can be turned off by adding %SCF DiffSThresh -1 END to the input.

Time for construction of square roots      ...    0.054 sec
Total time needed                          ...    0.140 sec

-------------------
DFT GRID GENERATION
-------------------

General Integration Accuracy     IntAcc      ... 4.388
Radial Grid Type                 RadialGrid  ... OptM3 with GC (2021)
Angular Grid (max. ang.)         AngularGrid ... 4 (Lebedev-302)
Angular grid pruning method      GridPruning ... 4 (adaptive)
Weight generation scheme         WeightScheme... mBecke (2022)
Basis function cutoff            BFCut       ... 1.0000e-11
Integration weight cutoff        WCut        ... 1.0000e-14
Partially contracted basis set               ... off
Rotationally invariant grid construction     ... off
Angular grids for H and He will be reduced by one unit
Diffuse basis detected: some atoms will have their outermost
                        angular grid increased by 1.

Total number of grid points                  ...    75075
Total number of batches                      ...     1179
Average number of points per batch           ...       63
Average number of grid points per atom       ...     5362

---------------------
SHARK GRID GENERATION
---------------------

General Integration Accuracy     IntAcc      ... 4.388
Radial Grid Type                 RadialGrid  ... OptM3 with GC (2021)
Angular Grid (max. ang.)         AngularGrid ... 4 (Lebedev-302)
Angular grid pruning method      GridPruning ... 4 (adaptive)
Weight generation scheme         WeightScheme... mBecke (2022)
Basis function cutoff            BFCut       ... 1.0000e-11
Integration weight cutoff        WCut        ... 1.0000e-14
Partially contracted basis set               ... off
Rotationally invariant grid construction     ... off
Angular grids for H and He will be reduced by one unit
Diffuse basis detected: some atoms will have their outermost
                        angular grid increased by 1.
Core-polarized basis detected: some atoms will have their core
                               angular grid increased.
Steep s-basis detected: some atoms will have their radial
                        grid points doubled.

Total number of grid points                  ...   138173
Total number of batches                      ...     2167
Average number of points per batch           ...       63
Average number of grid points per atom       ...     9870

--------------------
COSX GRID GENERATION
--------------------

GRIDX 1
-------
General Integration Accuracy     IntAcc      ... 3.816
Radial Grid Type                 RadialGrid  ... OptM3 with GC (2021)
Angular Grid (max. ang.)         AngularGrid ... 1 (Lebedev-50)
Angular grid pruning method      GridPruning ... 4 (adaptive)
Weight generation scheme         WeightScheme... mBecke (2022)
Basis function cutoff            BFCut       ... 1.0000e-11
Integration weight cutoff        WCut        ... 1.0000e-14
Partially contracted basis set               ... on
Rotationally invariant grid construction     ... off
Angular grids for H and He will be reduced by one unit
Diffuse basis detected: some atoms will have their outermost
                        angular grid increased by 1.

Total number of grid points                  ...    10646
Total number of batches                      ...       91
Average number of points per batch           ...      116
Average number of grid points per atom       ...      760
UseSFitting                                  ... on

GRIDX 2
-------
General Integration Accuracy     IntAcc      ... 4.020
Radial Grid Type                 RadialGrid  ... OptM3 with GC (2021)
Angular Grid (max. ang.)         AngularGrid ... 2 (Lebedev-110)
Angular grid pruning method      GridPruning ... 4 (adaptive)
Weight generation scheme         WeightScheme... mBecke (2022)
Basis function cutoff            BFCut       ... 1.0000e-11
Integration weight cutoff        WCut        ... 1.0000e-14
Partially contracted basis set               ... on
Rotationally invariant grid construction     ... off
Angular grids for H and He will be reduced by one unit
Diffuse basis detected: some atoms will have their outermost
                        angular grid increased by 1.

Total number of grid points                  ...    23429
Total number of batches                      ...      190
Average number of points per batch           ...      123
Average number of grid points per atom       ...     1674
UseSFitting                                  ... on

GRIDX 3
-------
General Integration Accuracy     IntAcc      ... 4.338
Radial Grid Type                 RadialGrid  ... OptM3 with GC (2021)
Angular Grid (max. ang.)         AngularGrid ... 3 (Lebedev-194)
Angular grid pruning method      GridPruning ... 4 (adaptive)
Weight generation scheme         WeightScheme... mBecke (2022)
Basis function cutoff            BFCut       ... 1.0000e-11
Integration weight cutoff        WCut        ... 1.0000e-14
Partially contracted basis set               ... on
Rotationally invariant grid construction     ... off
Angular grids for H and He will be reduced by one unit
Diffuse basis detected: some atoms will have their outermost
                        angular grid increased by 1.

Total number of grid points                  ...    52294
Total number of batches                      ...      415
Average number of points per batch           ...      126
Average number of grid points per atom       ...     3735
UseSFitting                                  ... on
Initializing property integral containers    ... done (  0.0 sec)

SHARK setup successfully completed in   6.7 seconds

Maximum memory used throughout the entire STARTUP-calculation: 77.3 MB


           ************************************************************
           *        Program running with 6 parallel MPI-processes     *
           *              working on a common directory               *
           ************************************************************
-------------------------------------------------------------------------------
                                 ORCA GUESS
                   Start orbitals & Density for SCF / CASSCF
-------------------------------------------------------------------------------

------------
SCF SETTINGS
------------
Hamiltonian:
 Density Functional     Method          .... DFT(GTOs)
  Functional kind                       .... Exchange
  Functional name                       .... Re-regularized SCAN exchange by Furness et al
  Functional family                     .... MGGA
  Functional refs                              
    [ 0] J. W. Furness, A. D. Kaplan, J. Ning, J. P. Perdew, and J. Sun.,  J. Phys. Chem. Lett. 11, 8208-8215 (2020), doi: 10.1021/acs.jpclett.0c02405
    [ 1] J. W. Furness, A. D. Kaplan, J. Ning, J. P. Perdew, and J. Sun.,  J. Phys. Chem. Lett. 11, 9248-9248 (2020), doi: 10.1021/acs.jpclett.0c03077
  Functional external parameters        .... 6
    Parameter  0 _c1        =  6.670000e-01 : c1 parameter        
    Parameter  1 _c2        =  8.000000e-01 : c2 parameter        
    Parameter  2 _d         =  1.240000e+00 : d parameter         
    Parameter  3 _k1        =  6.500000e-02 : k1 parameter        
    Parameter  4 _eta       =  1.000000e-03 : eta parameter       
    Parameter  5 _dp2       =  3.610000e-01 : dp2 parameter       
  Functional kind                       .... Correlation
  Functional name                       .... Re-regularized SCAN correlation by Furness et al
  Functional family                     .... MGGA
  Functional refs                              
    [ 0] J. W. Furness, A. D. Kaplan, J. Ning, J. P. Perdew, and J. Sun.,  J. Phys. Chem. Lett. 11, 8208-8215 (2020), doi: 10.1021/acs.jpclett.0c02405
    [ 1] J. W. Furness, A. D. Kaplan, J. Ning, J. P. Perdew, and J. Sun.,  J. Phys. Chem. Lett. 11, 9248-9248 (2020), doi: 10.1021/acs.jpclett.0c03077
  Functional external parameters        .... 1
    Parameter  0 _eta       =  1.000000e-03 : Regularization parameter
 Gradients option       PostSCFGGA      .... off
 Hybrid DFT is turned on
   Fraction HF Exchange ScalHFX         ....  0.100000
   Scaling of DF-GGA-X  ScalDFX         ....  0.900000
   Scaling of DF-GGA-C  ScalDFC         ....  1.000000
   Scaling of DF-LDA-C  ScalLDAC        ....  1.000000
   Perturbative correction              ....  0.000000
   NL short-range parameter             .... 11.900000
 RI-approximation to the Coulomb term is turned on
   Number of AuxJ basis functions       .... 498
   RIJ-COSX (HFX calculated with COS-X)).... on


General Settings:
 Integral files         IntName         .... cs_rporg_169_red_solv_04
 Hartree-Fock type      HFTyp           .... UHF
 Total Charge           Charge          ....   -1
 Multiplicity           Mult            ....    2
 Number of Electrons    NEL             ....   73
 Basis Dimension        Dim             ....  533
 Nuclear Repulsion      ENuc            ....    455.6980281921 Eh

Convergence Acceleration:
 AO-DIIS                CNVDIIS         .... on
   Start iteration      DIISMaxIt       ....     0
   Startup error        DIISStart       ....  0.200000
   # of expansion vecs  DIISMaxEq       ....     5
   Bias factor          DIISBfac        ....   1.050
   Max. coefficient     DIISMaxC        ....  10.000
 MO-DIIS                CNVKDIIS        .... off
 Trust-Rad. Augm. Hess. CNVTRAH         .... auto
   Auto Start mean grad. ratio tolernc. ....  1.125000
   Auto Start start iteration           ....    50
   Auto Start num. interpolation iter.  ....    10
   Max. Number of Micro iterations      ....    24
   Max. Number of Macro iterations      .... Maxiter - #DIIS iter
   Number of Davidson start vectors     ....     2
   Converg. threshold    (grad. norm)   ....   1.000e-05
   Grad. Scal. Fac. for Micro threshold ....   0.100
   Minimum threshold for Micro iter.    ....   1.000e-02
   NR start threshold (gradient norm)   ....   1.000e-04
   Initial trust radius                 ....   0.400
   Minimum AH scaling param. (alpha)    ....   1.000
   Maximum AH scaling param. (alpha)    .... 1000.000
   Quad. conv. algorithm                .... NR
   White noise on init. David. guess    .... on
   Maximum white noise                  ....   0.010
   Pseudo random numbers                .... off
   Inactive MOs                         .... canonical
   Orbital update algorithm             .... Taylor
   Preconditioner                       .... Diag
   Full preconditioner red. dimension   ....   250
 SOSCF                  CNVSOSCF        .... on
   Start iteration      SOSCFMaxIt      ....   150
   Startup grad/error   SOSCFStart      ....  0.001000
   Hessian update       SOSCFHessUp     .... L-BFGS
 Level Shifting         CNVShift        .... on
   Level shift para.    LevelShift      ....    0.2500
   Turn off err/grad.   ShiftErr        ....    0.0000
 Zerner damping         CNVZerner       .... off
 Static damping         CNVDamp         .... on
   Fraction old density DampFac         ....    0.8500
   Max. Damping (<1)    DampMax         ....    0.9800
   Min. Damping (>=0)   DampMin         ....    0.0000
   Turn off err/grad.   DampErr         ....    0.0300

SCF Procedure:
 Maximum # iterations   MaxIter         ....  1500
 SCF integral mode      SCFMode         .... Direct
   Integral package                     .... SHARK and LIBINT hybrid scheme
 Reset frequency        DirectResetFreq ....    20
 Integral Threshold     Thresh          ....  1.000e-12 Eh
 Primitive CutOff       TCut            ....  1.000e-13 Eh

Convergence Tolerance:
 Convergence Check Mode ConvCheckMode   .... Total+1el-Energy
 Convergence forced     ConvForced      .... 0
 Energy Change          TolE            ....  1.000e-08 Eh
 1-El. energy change                    ....  1.000e-05 Eh
 Orbital Gradient       TolG            ....  1.000e-05
 Orbital Rotation angle TolX            ....  1.000e-05
 DIIS Error             TolErr          ....  5.000e-07

------------------------------
INITIAL GUESS: MODEL POTENTIAL
------------------------------
Loading Hartree-Fock densities                     ... done
Calculating cut-offs                               ... done
Initializing the effective Hamiltonian             ... done
Setting up the integral package (SHARK)            ... done
Starting the Coulomb interaction                   ... done (   0.3 sec)
Making the grid                                    ... done (   0.3 sec)
Mapping shells                                     ... done
Starting the XC term evaluation                    ... done (   0.4 sec)
  promolecular density results
     # of electrons  =     71.996511934
     EX              =    -72.733164795
     EC              =     -2.489420249
     EX+EC           =    -75.222585044
Transforming the Hamiltonian                       ... done (   0.0 sec)
Diagonalizing the Hamiltonian                      ... done (   0.1 sec)
Back transforming the eigenvectors                 ... done (   0.1 sec)
Now organizing SCF variables                       ... done
                      ------------------
                      INITIAL GUESS DONE (   1.4 sec)
                      ------------------
             **** ENERGY FILE WAS UPDATED (cs_rporg_169_red_solv_04.en.tmp) ****
Finished Guess after   2.4 sec
Maximum memory used throughout the entire GUESS-calculation: 39.8 MB


           ************************************************************
           *        Program running with 6 parallel MPI-processes     *
           *              working on a common directory               *
           ************************************************************

-------------------------------------------------------------------------------------------
                                      ORCA LEAN-SCF
                              memory conserving SCF solver
-------------------------------------------------------------------------------------------

--------------------
CPCM SOLVATION MODEL
--------------------
CPCM parameters:
  Epsilon                                         ...      35.6880
  Refrac                                          ...       1.3442
  Rsolv                                           ...       2.1900
  Surface type                                    ...    GEPOL SES
  Discretization scheme                           ... Constant num. charges
  Epsilon function type                           ...         CPCM
Solvent:                                          ... ACETONITRILE
SMD-CDS solvent descriptors:
  Soln                                            ...       1.3442
  Soln25                                          ...       1.3416
  Sola                                            ...       0.0700
  Solb                                            ...       0.3200
  Solg                                            ...      41.2500
  Solc                                            ...       0.0000
  Solh                                            ...       0.0000
Radii:
  Scheme                                          ... Element-dependent radii
  Radius for C  used is    3.4960 Bohr (=   1.8500 Ang.)
  Radius for O  used is    4.0969 Bohr (=   2.1680 Ang.)
  Radius for Cl used is    4.4975 Bohr (=   2.3800 Ang.)
  Radius for H  used is    2.2677 Bohr (=   1.2000 Ang.)
Calculating surface                               ...        done! (  0.0s)
Cavity surface points                             ...          442
Cavity Volume                                     ...    1155.7944
Cavity Surface-area                               ...     629.3820
Calculating surface distance matrix               ...        done! (  0.0s)
Performing Cholesky decomposition & store         ...        done! (  0.0s)
Overall time for CPCM initialization              ...                 0.0s

----------------------------------------D-I-I-S--------------------------------------------
Iteration    Energy (Eh)           Delta-E    RMSDP     MaxDP     DIISErr   Damp  Time(sec)
-------------------------------------------------------------------------------------------
               ***  Starting incremental Fock matrix formation  ***
    1    -804.9330929185186960     0.00e+00  6.64e-04  3.89e-02  1.53e-01  0.850  16.3
Warning: op=0 Small HOMO/LUMO gap (   0.039) - skipping pre-diagonalization
         Will do a full diagonalization
    2    -805.0046464864651625    -7.16e-02  6.40e-04  3.35e-02  1.07e-01  0.850  11.6
                               ***Turning on AO-DIIS***
    3    -805.0503474406502846    -4.57e-02  4.35e-04  1.85e-02  6.63e-02  0.850  11.2
    4    -805.0792859810294431    -2.89e-02  3.51e-04  1.33e-02  5.52e-02  0.850  11.0
    5    -805.1002954464659069    -2.10e-02  2.95e-04  1.12e-02  4.87e-02  0.850  11.1
    6    -805.1170598988267102    -1.68e-02  2.51e-04  1.06e-02  4.22e-02  0.850  11.0
    7    -805.1309708729811518    -1.39e-02  2.15e-04  9.83e-03  3.52e-02  0.850  10.8
    8    -805.1425444913679712    -1.16e-02  1.81e-04  8.64e-03  2.86e-02  0.850  10.7
    9    -805.1520647545348766    -9.52e-03  1.02e-03  4.91e-02  2.41e-02  0.000  10.7
   10    -805.2020819236672651    -5.00e-02  6.48e-05  2.98e-03  2.53e-03  0.000  11.3
   11    -805.2021556277295531    -7.37e-05  3.69e-05  1.84e-03  4.39e-03  0.000  10.5
                              *** Initializing SOSCF ***
---------------------------------------S-O-S-C-F--------------------------------------
Iteration    Energy (Eh)           Delta-E    RMSDP     MaxDP     MaxGrad    Time(sec)
--------------------------------------------------------------------------------------
   12    -805.2022648232518804    -1.09e-04  3.24e-05  1.71e-03  8.63e-04    10.7
               *** Restarting incremental Fock matrix formation ***
   13    -805.2023124573852328    -4.76e-05  1.75e-04  1.77e-02  1.19e-03    16.0
   14    -805.2023463321802410    -3.39e-05  2.47e-04  2.49e-02  7.63e-04    14.0
   15    -805.2023592646710313    -1.29e-05  2.15e-04  2.23e-02  5.94e-04    14.2
   16    -805.2023746284414756    -1.54e-05  6.49e-05  6.43e-03  2.84e-04    13.9
   17    -805.2023749765703542    -3.48e-07  4.46e-05  4.47e-03  2.21e-04    13.8
   18    -805.2023770079022142    -2.03e-06  5.95e-06  5.36e-04  6.82e-05    13.5
   19    -805.2023769319278017     7.60e-08  7.07e-06  7.10e-04  8.18e-05    12.7
   20    -805.2023771302883688    -1.98e-07  1.09e-06  7.80e-05  9.80e-06    12.4
   21    -805.2023771411413691    -1.09e-08  5.19e-07  3.92e-05  8.70e-06    11.8
   22    -805.2023771351600772     5.98e-09  6.91e-07  5.61e-05  2.99e-06    11.2
                 **** Energy Check signals convergence ****

               *****************************************************
               *                     SUCCESS                       *
               *           SCF CONVERGED AFTER  22 CYCLES          *
               *****************************************************

Recomputing exchange energy using gridx3       ... done (   17.782 sec)
Old exchange energy                            :     -7.399848116 Eh
New exchange energy                            :     -7.399832423 Eh
Exchange energy change after final integration :      0.000015693 Eh
Total energy after final integration           :   -805.202361442 Eh

SMD CDS free energy correction energy :                -2.37796     Kcal/mol
Total Energy after SMD CDS correction =              -805.206150957 Eh
             **** ENERGY FILE WAS UPDATED (cs_rporg_169_red_solv_04.en.tmp) ****

----------------
TOTAL SCF ENERGY
----------------

Total Energy       :       -805.20615095714584 Eh          -21910.77329 eV

Components:
Nuclear Repulsion  :        455.69802819211742 Eh           12400.17376 eV
Electronic Energy  :      -1260.81995608711895 Eh          -34308.65522 eV
One Electron Energy:      -2020.25067381206259 Eh          -54973.81565 eV
Two Electron Energy:        759.43071772494375 Eh           20665.16043 eV
CPCM Dielectric    :         -0.08044924015840 Eh              -2.18914 eV
SMD CDS (Gcds)     :         -0.00378951529897 Eh              -0.10312 eV

Virial components:
Potential Energy   :      -1607.29433146150609 Eh          -43736.70229 eV
Kinetic Energy     :        802.08818050436025 Eh           21825.92900 eV
Virial Ratio       :          2.00388731629336

DFT components:
N(Alpha)           :       37.000029624394 electrons
N(Beta)            :       36.000015429197 electrons
N(Total)           :       73.000045053591 electrons
E(X)               :      -66.791340496086 Eh       
E(C)               :       -2.486728908537 Eh       
E(XC)              :      -69.278069404623 Eh       

CPCM Solvation Model Properties:
Surface-charge          :          0.96441175388689
Corrected charge        :          1.00000000000000
Outlying charge corr.   :          0.00008849150907 Eh               0.00241 eV
Free-energy (cav+disp)  :         -0.00378951529897 Eh              -0.10312 eV

---------------
SCF CONVERGENCE
---------------

  Last Energy change         ...   -5.9813e-09  Tolerance :   1.0000e-08
  Last MAX-Density change    ...    5.6108e-05  Tolerance :   1.0000e-07
  Last RMS-Density change    ...    6.9123e-07  Tolerance :   5.0000e-09
  Last DIIS Error            ...    8.6325e-04  Tolerance :   5.0000e-07
  Last Orbital Gradient      ...    2.9852e-06  Tolerance :   1.0000e-05
  Last Orbital Rotation      ...    2.2765e-05  Tolerance :   1.0000e-05


----------------------
UHF SPIN CONTAMINATION
----------------------

Warning: in a DFT calculation there is little theoretical justification to 
         calculate <S**2> as in Hartree-Fock theory. We will do it anyways
         but you should keep in mind that the values have only limited relevance

Expectation value of <S**2>     :     0.783147
Ideal value S*(S+1) for S=0.5   :     0.750000
Deviation                       :     0.033147

----------------
ORBITAL ENERGIES
----------------
                 SPIN UP ORBITALS
  NO   OCC          E(Eh)            E(eV) 
   0   1.0000    -101.536813     -2762.9572 
   1   1.0000     -19.081030      -519.2212 
   2   1.0000     -10.231440      -278.4116 
   3   1.0000     -10.150661      -276.2135 
   4   1.0000     -10.144570      -276.0478 
   5   1.0000     -10.143906      -276.0297 
   6   1.0000     -10.142878      -276.0017 
   7   1.0000     -10.142524      -275.9921 
   8   1.0000     -10.138828      -275.8915 
   9   1.0000      -9.447985      -257.0927 
  10   1.0000      -7.165272      -194.9770 
  11   1.0000      -7.159671      -194.8245 
  12   1.0000      -7.159084      -194.8086 
  13   1.0000      -1.024430       -27.8762 
  14   1.0000      -0.837727       -22.7957 
  15   1.0000      -0.784779       -21.3549 
  16   1.0000      -0.736044       -20.0288 
  17   1.0000      -0.727889       -19.8069 
  18   1.0000      -0.623239       -16.9592 
  19   1.0000      -0.575999       -15.6737 
  20   1.0000      -0.526865       -14.3367 
  21   1.0000      -0.477762       -13.0006 
  22   1.0000      -0.437782       -11.9126 
  23   1.0000      -0.428058       -11.6481 
  24   1.0000      -0.402391       -10.9496 
  25   1.0000      -0.399784       -10.8787 
  26   1.0000      -0.390970       -10.6388 
  27   1.0000      -0.383839       -10.4448 
  28   1.0000      -0.344019        -9.3612 
  29   1.0000      -0.332392        -9.0449 
  30   1.0000      -0.303052        -8.2465 
  31   1.0000      -0.282312        -7.6821 
  32   1.0000      -0.278782        -7.5860 
  33   1.0000      -0.246542        -6.7088 
  34   1.0000      -0.245509        -6.6806 
  35   1.0000      -0.244165        -6.6441 
  36   1.0000      -0.107392        -2.9223 
  37   0.0000      -0.009727        -0.2647 
  38   0.0000       0.005658         0.1540 
  39   0.0000       0.021788         0.5929 
  40   0.0000       0.027198         0.7401 
  41   0.0000       0.030685         0.8350 
  42   0.0000       0.032687         0.8894 
  43   0.0000       0.046286         1.2595 
  44   0.0000       0.047387         1.2895 
  45   0.0000       0.048113         1.3092 
  46   0.0000       0.056145         1.5278 
  47   0.0000       0.071363         1.9419 

                 SPIN DOWN ORBITALS
  NO   OCC          E(Eh)            E(eV) 
   0   1.0000    -101.536790     -2762.9565 
   1   1.0000     -19.074666      -519.0480 
   2   1.0000     -10.225737      -278.2564 
   3   1.0000     -10.150559      -276.2107 
   4   1.0000     -10.146691      -276.1055 
   5   1.0000     -10.145907      -276.0842 
   6   1.0000     -10.139135      -275.8999 
   7   1.0000     -10.138951      -275.8949 
   8   1.0000     -10.133278      -275.7405 
   9   1.0000      -9.447970      -257.0923 
  10   1.0000      -7.165494      -194.9830 
  11   1.0000      -7.159354      -194.8159 
  12   1.0000      -7.159090      -194.8087 
  13   1.0000      -1.013905       -27.5898 
  14   1.0000      -0.833120       -22.6703 
  15   1.0000      -0.781959       -21.2782 
  16   1.0000      -0.730211       -19.8700 
  17   1.0000      -0.724279       -19.7086 
  18   1.0000      -0.608984       -16.5713 
  19   1.0000      -0.574869       -15.6430 
  20   1.0000      -0.522416       -14.2157 
  21   1.0000      -0.472594       -12.8600 
  22   1.0000      -0.435235       -11.8433 
  23   1.0000      -0.423150       -11.5145 
  24   1.0000      -0.401114       -10.9149 
  25   1.0000      -0.390015       -10.6128 
  26   1.0000      -0.381001       -10.3676 
  27   1.0000      -0.371997       -10.1226 
  28   1.0000      -0.330073        -8.9817 
  29   1.0000      -0.328309        -8.9338 
  30   1.0000      -0.302188        -8.2229 
  31   1.0000      -0.278065        -7.5665 
  32   1.0000      -0.275393        -7.4938 
  33   1.0000      -0.240551        -6.5457 
  34   1.0000      -0.235824        -6.4171 
  35   1.0000      -0.224521        -6.1095 
  36   0.0000      -0.042294        -1.1509 
  37   0.0000      -0.004537        -0.1234 
  38   0.0000       0.008878         0.2416 
  39   0.0000       0.025531         0.6947 
  40   0.0000       0.028680         0.7804 
  41   0.0000       0.034243         0.9318 
  42   0.0000       0.048286         1.3139 
  43   0.0000       0.048869         1.3298 
  44   0.0000       0.049607         1.3499 
  45   0.0000       0.057336         1.5602 
  46   0.0000       0.062476         1.7001 
*Only the first 10 virtual orbitals were printed.

                    ********************************
                    * MULLIKEN POPULATION ANALYSIS *
                    ********************************

--------------------------------------------
MULLIKEN ATOMIC CHARGES AND SPIN POPULATIONS
--------------------------------------------
   0 C :   -0.947094    0.296453
   1 C :   -0.402766   -0.200854
   2 C :   -0.417280    0.389066
   3 C :   -0.617015   -0.187116
   4 C :   -0.977102    0.301142
   5 C :    1.696161   -0.010444
   6 C :    0.392233    0.270357
   7 O :   -0.845485    0.206936
   8 Cl:   -0.458501    0.008223
   9 H :    0.197432   -0.017443
  10 H :    0.426883   -0.014927
  11 H :    0.502204   -0.013495
  12 H :    0.373017   -0.007621
  13 H :    0.077313   -0.020276
Sum of atomic charges         :   -1.0000000
Sum of atomic spin populations:    1.0000000

-----------------------------------------------------
MULLIKEN REDUCED ORBITAL CHARGES AND SPIN POPULATIONS
-----------------------------------------------------
CHARGE
  0 C s       :     4.147530  s :     4.147530
      pz      :     1.009453  p :     2.690629
      px      :     0.735519
      py      :     0.945657
      dz2     :    -0.021455  d :     0.128887
      dxz     :     0.018809
      dyz     :     0.008287
      dx2y2   :     0.032054
      dxy     :     0.091192
      f0      :     0.000630  f :    -0.019951
      f+1     :    -0.001594
      f-1     :    -0.001041
      f+2     :    -0.000863
      f-2     :    -0.000456
      f+3     :    -0.000505
      f-3     :    -0.016123

  1 C s       :     3.404887  s :     3.404887
      pz      :     0.974976  p :     2.899029
      px      :     0.999434
      py      :     0.924619
      dz2     :    -0.003964  d :     0.108119
      dxz     :     0.032024
      dyz     :     0.023692
      dx2y2   :    -0.020362
      dxy     :     0.076729
      f0      :     0.000533  f :    -0.009269
      f+1     :     0.000810
      f-1     :    -0.000237
      f+2     :    -0.000259
      f-2     :     0.000482
      f+3     :    -0.002629
      f-3     :    -0.007969

  2 C s       :     3.732631  s :     3.732631
      pz      :     1.049839  p :     2.775537
      px      :     0.943879
      py      :     0.781819
      dz2     :    -0.014491  d :    -0.079740
      dxz     :     0.003019
      dyz     :     0.029575
      dx2y2   :    -0.086703
      dxy     :    -0.011141
      f0      :     0.000904  f :    -0.011148
      f+1     :     0.000583
      f-1     :     0.000341
      f+2     :     0.000502
      f-2     :     0.000006
      f+3     :    -0.005848
      f-3     :    -0.007636

  3 C s       :     3.586023  s :     3.586023
      pz      :     0.978572  p :     2.938424
      px      :     1.083309
      py      :     0.876543
      dz2     :     0.001062  d :     0.102048
      dxz     :     0.032007
      dyz     :     0.016695
      dx2y2   :    -0.024638
      dxy     :     0.076922
      f0      :     0.000540  f :    -0.009480
      f+1     :    -0.000065
      f-1     :    -0.000137
      f+2     :     0.000914
      f-2     :    -0.000417
      f+3     :    -0.003834
      f-3     :    -0.006481

  4 C s       :     4.033342  s :     4.033342
      pz      :     1.013911  p :     2.872011
      px      :     0.868877
      py      :     0.989223
      dz2     :    -0.020958  d :     0.095241
      dxz     :     0.010924
      dyz     :     0.007717
      dx2y2   :    -0.077545
      dxy     :     0.175104
      f0      :     0.001124  f :    -0.023492
      f+1     :     0.000987
      f-1     :    -0.000755
      f+2     :    -0.000800
      f-2     :     0.000374
      f+3     :    -0.015055
      f-3     :    -0.009368

  5 C s       :     2.627200  s :     2.627200
      pz      :     1.049049  p :     1.695410
      px      :     0.200498
      py      :     0.445864
      dz2     :    -0.025270  d :     0.081535
      dxz     :     0.051893
      dyz     :    -0.003999
      dx2y2   :    -0.035563
      dxy     :     0.094474
      f0      :     0.000600  f :    -0.100305
      f+1     :    -0.005846
      f-1     :    -0.001316
      f+2     :     0.000459
      f-2     :    -0.004743
      f+3     :    -0.023392
      f-3     :    -0.066069

  6 C s       :     3.422279  s :     3.422279
      pz      :     0.895696  p :     2.038109
      px      :     0.592144
      py      :     0.550270
      dz2     :     0.006222  d :     0.145205
      dxz     :     0.040017
      dyz     :     0.043765
      dx2y2   :     0.035719
      dxy     :     0.019482
      f0      :     0.003163  f :     0.002174
      f+1     :     0.000291
      f-1     :     0.000814
      f+2     :     0.003215
      f-2     :     0.005292
      f+3     :    -0.004558
      f-3     :    -0.006043

  7 O s       :     4.041465  s :     4.041465
      pz      :     1.589339  p :     4.742747
      px      :     1.751135
      py      :     1.402273
      dz2     :     0.002408  d :     0.056407
      dxz     :     0.005062
      dyz     :     0.020044
      dx2y2   :     0.019864
      dxy     :     0.009030
      f0      :     0.000742  f :     0.004866
      f+1     :     0.000166
      f-1     :     0.000178
      f+2     :     0.000515
      f-2     :     0.000840
      f+3     :     0.000201
      f-3     :     0.002225

  8 Cls       :     5.985375  s :     5.985375
      pz      :     3.955924  p :    11.425456
      px      :     3.757648
      py      :     3.711884
      dz2     :     0.006685  d :     0.043287
      dxz     :     0.008205
      dyz     :     0.008166
      dx2y2   :     0.003764
      dxy     :     0.016468
      f0      :     0.000778  f :     0.004383
      f+1     :     0.000544
      f-1     :     0.000120
      f+2     :     0.000283
      f-2     :     0.001098
      f+3     :     0.000377
      f-3     :     0.001184

  9 H s       :     0.775345  s :     0.775345
      pz      :     0.017333  p :     0.018962
      px      :    -0.012086
      py      :     0.013716
      dz2     :     0.000087  d :     0.008261
      dxz     :     0.001416
      dyz     :     0.003079
      dx2y2   :     0.002225
      dxy     :     0.001455

 10 H s       :     0.552993  s :     0.552993
      pz      :     0.019732  p :     0.012314
      px      :    -0.000082
      py      :    -0.007336
      dz2     :    -0.000364  d :     0.007811
      dxz     :    -0.000088
      dyz     :     0.004736
      dx2y2   :     0.000896
      dxy     :     0.002631

 11 H s       :     0.510458  s :     0.510458
      pz      :     0.017455  p :    -0.020129
      px      :    -0.026358
      py      :    -0.011225
      dz2     :    -0.000285  d :     0.007467
      dxz     :     0.005262
      dyz     :    -0.000087
      dx2y2   :     0.001488
      dxy     :     0.001089

 12 H s       :     0.611738  s :     0.611738
      pz      :     0.018812  p :     0.007944
      px      :    -0.009633
      py      :    -0.001235
      dz2     :    -0.000646  d :     0.007300
      dxz     :     0.001836
      dyz     :     0.002742
      dx2y2   :     0.001977
      dxy     :     0.001391

 13 H s       :     0.925756  s :     0.925756
      pz      :     0.015255  p :    -0.008190
      px      :    -0.020918
      py      :    -0.002527
      dz2     :    -0.000550  d :     0.005122
      dxz     :    -0.000111
      dyz     :     0.004512
      dx2y2   :     0.002432
      dxy     :    -0.001162


SPIN
  0 C s       :     0.043518  s :     0.043518
      pz      :     0.222103  p :     0.256920
      px      :     0.029872
      py      :     0.004945
      dz2     :    -0.000237  d :    -0.002532
      dxz     :    -0.000221
      dyz     :     0.004175
      dx2y2   :    -0.001517
      dxy     :    -0.004733
      f0      :    -0.000072  f :    -0.001452
      f+1     :    -0.000171
      f-1     :    -0.000461
      f+2     :    -0.000606
      f-2     :    -0.000434
      f+3     :    -0.000163
      f-3     :     0.000454

  1 C s       :    -0.041607  s :    -0.041607
      pz      :    -0.125094  p :    -0.175062
      px      :    -0.028064
      py      :    -0.021904
      dz2     :     0.000623  d :     0.015833
      dxz     :     0.008190
      dyz     :     0.006552
      dx2y2   :    -0.000022
      dxy     :     0.000490
      f0      :     0.000347  f :    -0.000018
      f+1     :     0.000255
      f-1     :     0.000057
      f+2     :    -0.000567
      f-2     :     0.000224
      f+3     :     0.000137
      f-3     :    -0.000471

  2 C s       :     0.047142  s :     0.047142
      pz      :     0.302787  p :     0.330849
      px      :     0.005375
      py      :     0.022687
      dz2     :    -0.001875  d :     0.012265
      dxz     :     0.002973
      dyz     :     0.000603
      dx2y2   :     0.012766
      dxy     :    -0.002202
      f0      :    -0.000111  f :    -0.001190
      f+1     :    -0.000473
      f-1     :    -0.000394
      f+2     :    -0.000308
      f-2     :    -0.000053
      f+3     :     0.000122
      f-3     :     0.000028

  3 C s       :    -0.043415  s :    -0.043415
      pz      :    -0.117883  p :    -0.163988
      px      :    -0.037812
      py      :    -0.008293
      dz2     :     0.000377  d :     0.020052
      dxz     :     0.012303
      dyz     :     0.000245
      dx2y2   :     0.005466
      dxy     :     0.001662
      f0      :     0.000324  f :     0.000235
      f+1     :     0.000310
      f-1     :     0.000004
      f+2     :     0.000424
      f-2     :    -0.000653
      f+3     :    -0.000150
      f-3     :    -0.000024

  4 C s       :     0.041394  s :     0.041394
      pz      :     0.204198  p :     0.256593
      px      :     0.033188
      py      :     0.019207
      dz2     :     0.000457  d :     0.003573
      dxz     :     0.000798
      dyz     :     0.004149
      dx2y2   :    -0.002501
      dxy     :     0.000670
      f0      :     0.000103  f :    -0.000418
      f+1     :    -0.000127
      f-1     :    -0.000428
      f+2     :    -0.000824
      f-2     :     0.000034
      f+3     :     0.000901
      f-3     :    -0.000076

  5 C s       :    -0.004164  s :    -0.004164
      pz      :    -0.003137  p :    -0.035310
      px      :    -0.012112
      py      :    -0.020062
      dz2     :    -0.001645  d :     0.031534
      dxz     :     0.024974
      dyz     :    -0.009072
      dx2y2   :     0.003054
      dxy     :     0.014223
      f0      :     0.000290  f :    -0.002504
      f+1     :    -0.000026
      f-1     :    -0.000175
      f+2     :    -0.000076
      f-2     :    -0.001832
      f+3     :     0.000545
      f-3     :    -0.001230

  6 C s       :     0.017760  s :     0.017760
      pz      :     0.251785  p :     0.242855
      px      :     0.008551
      py      :    -0.017481
      dz2     :    -0.001438  d :     0.014373
      dxz     :     0.004064
      dyz     :     0.012643
      dx2y2   :     0.000518
      dxy     :    -0.001414
      f0      :    -0.000114  f :    -0.004631
      f+1     :    -0.000237
      f-1     :    -0.000370
      f+2     :    -0.000560
      f-2     :    -0.000556
      f+3     :    -0.001216
      f-3     :    -0.001578

  7 O s       :     0.014583  s :     0.014583
      pz      :     0.173781  p :     0.185846
      px      :     0.009121
      py      :     0.002944
      dz2     :     0.000136  d :     0.006503
      dxz     :     0.001068
      dyz     :     0.004575
      dx2y2   :     0.000940
      dxy     :    -0.000216
      f0      :    -0.000009  f :     0.000004
      f+1     :    -0.000005
      f-1     :    -0.000038
      f+2     :    -0.000015
      f-2     :     0.000079
      f+3     :    -0.000015
      f-3     :     0.000008

  8 Cls       :     0.004896  s :     0.004896
      pz      :     0.011687  p :    -0.001921
      px      :    -0.004350
      py      :    -0.009258
      dz2     :    -0.000100  d :     0.005020
      dxz     :     0.003466
      dyz     :     0.002643
      dx2y2   :    -0.000751
      dxy     :    -0.000238
      f0      :     0.000101  f :     0.000228
      f+1     :     0.000004
      f-1     :    -0.000021
      f+2     :    -0.000031
      f-2     :     0.000340
      f+3     :    -0.000115
      f-3     :    -0.000049

  9 H s       :    -0.017207  s :    -0.017207
      pz      :     0.002079  p :    -0.000004
      px      :     0.001614
      py      :    -0.003697
      dz2     :     0.000143  d :    -0.000232
      dxz     :    -0.000019
      dyz     :    -0.000018
      dx2y2   :    -0.000180
      dxy     :    -0.000159

 10 H s       :    -0.010376  s :    -0.010376
      pz      :    -0.003942  p :    -0.003617
      px      :    -0.001654
      py      :     0.001979
      dz2     :    -0.000103  d :    -0.000935
      dxz     :    -0.000350
      dyz     :    -0.000418
      dx2y2   :     0.000028
      dxy     :    -0.000091

 11 H s       :    -0.019009  s :    -0.019009
      pz      :     0.005633  p :     0.004811
      px      :     0.000155
      py      :    -0.000977
      dz2     :     0.000209  d :     0.000703
      dxz     :     0.000786
      dyz     :     0.000119
      dx2y2   :    -0.000112
      dxy     :    -0.000300

 12 H s       :    -0.002631  s :    -0.002631
      pz      :    -0.004293  p :    -0.004004
      px      :    -0.000452
      py      :     0.000740
      dz2     :    -0.000108  d :    -0.000986
      dxz     :    -0.000399
      dyz     :    -0.000427
      dx2y2   :    -0.000097
      dxy     :     0.000045

 13 H s       :    -0.016822  s :    -0.016822
      pz      :     0.001507  p :    -0.003170
      px      :    -0.000939
      py      :    -0.003739
      dz2     :     0.000132  d :    -0.000284
      dxz     :    -0.000137
      dyz     :     0.000080
      dx2y2   :    -0.000079
      dxy     :    -0.000280



                     *******************************
                     * LOEWDIN POPULATION ANALYSIS *
                     *******************************

-------------------------------------------
LOEWDIN ATOMIC CHARGES AND SPIN POPULATIONS
-------------------------------------------
   0 C :    0.132176    0.104580
   1 C :    0.132639    0.018575
   2 C :    0.147239    0.143156
   3 C :    0.129453    0.019803
   4 C :    0.096686    0.102124
   5 C :   -0.333907    0.115320
   6 C :   -1.145156    0.210251
   7 O :    0.288442    0.190376
   8 Cl:    0.603146    0.028961
   9 H :   -0.274940    0.022415
  10 H :   -0.186745   -0.008881
  11 H :   -0.199175    0.038827
  12 H :   -0.185454   -0.009466
  13 H :   -0.204405    0.023959

----------------------------------------------------
LOEWDIN REDUCED ORBITAL CHARGES AND SPIN POPULATIONS
----------------------------------------------------
CHARGE
  0 C s       :     2.488111  s :     2.488111
      pz      :     0.626482  p :     2.301491
      px      :     0.856606
      py      :     0.818403
      dz2     :     0.071040  d :     0.735060
      dxz     :     0.139670
      dyz     :     0.051280
      dx2y2   :     0.254210
      dxy     :     0.218859
      f0      :     0.021927  f :     0.343162
      f+1     :     0.031264
      f-1     :     0.019885
      f+2     :     0.027305
      f-2     :     0.046935
      f+3     :     0.089548
      f-3     :     0.106298

  1 C s       :     2.497172  s :     2.497172
      pz      :     0.614348  p :     2.305339
      px      :     0.851756
      py      :     0.839236
      dz2     :     0.068179  d :     0.733489
      dxz     :     0.099750
      dyz     :     0.095539
      dx2y2   :     0.174906
      dxy     :     0.295115
      f0      :     0.018330  f :     0.331361
      f+1     :     0.025686
      f-1     :     0.024256
      f+2     :     0.058566
      f-2     :     0.012862
      f+3     :     0.084268
      f-3     :     0.107393

  2 C s       :     2.498567  s :     2.498567
      pz      :     0.652611  p :     2.329397
      px      :     0.832662
      py      :     0.844124
      dz2     :     0.067042  d :     0.699535
      dxz     :     0.053911
      dyz     :     0.117912
      dx2y2   :     0.267992
      dxy     :     0.192678
      f0      :     0.021397  f :     0.325262
      f+1     :     0.020079
      f-1     :     0.029027
      f+2     :     0.017597
      f-2     :     0.049954
      f+3     :     0.082580
      f-3     :     0.104628

  3 C s       :     2.496946  s :     2.496946
      pz      :     0.616361  p :     2.307099
      px      :     0.862516
      py      :     0.828222
      dz2     :     0.068376  d :     0.734323
      dxz     :     0.144542
      dyz     :     0.050462
      dx2y2   :     0.254544
      dxy     :     0.216399
      f0      :     0.018381  f :     0.332179
      f+1     :     0.029873
      f-1     :     0.020256
      f+2     :     0.027472
      f-2     :     0.043915
      f+3     :     0.085676
      f-3     :     0.106606

  4 C s       :     2.491900  s :     2.491900
      pz      :     0.625824  p :     2.317535
      px      :     0.868012
      py      :     0.823699
      dz2     :     0.073612  d :     0.752545
      dxz     :     0.104982
      dyz     :     0.091795
      dx2y2   :     0.199226
      dxy     :     0.282929
      f0      :     0.021794  f :     0.341335
      f+1     :     0.027214
      f-1     :     0.023543
      f+2     :     0.054413
      f-2     :     0.019588
      f+3     :     0.087783
      f-3     :     0.106999

  5 C s       :     2.486512  s :     2.486512
      pz      :     0.676769  p :     2.363337
      px      :     0.844275
      py      :     0.842293
      dz2     :     0.093531  d :     0.983579
      dxz     :     0.169120
      dyz     :     0.123513
      dx2y2   :     0.313092
      dxy     :     0.284324
      f0      :     0.031566  f :     0.500479
      f+1     :     0.036566
      f-1     :     0.033342
      f+2     :     0.047775
      f-2     :     0.070324
      f+3     :     0.125338
      f-3     :     0.155567

  6 C s       :     2.573906  s :     2.573906
      pz      :     0.708936  p :     2.404805
      px      :     0.858682
      py      :     0.837187
      dz2     :     0.125161  d :     1.455299
      dxz     :     0.199711
      dyz     :     0.245182
      dx2y2   :     0.383770
      dxy     :     0.501475
      f0      :     0.052593  f :     0.711147
      f+1     :     0.037264
      f-1     :     0.050651
      f+2     :     0.058820
      f-2     :     0.094421
      f+3     :     0.179781
      f-3     :     0.237615

  7 O s       :     3.233102  s :     3.233102
      pz      :     1.315450  p :     4.141887
      px      :     1.407835
      py      :     1.418602
      dz2     :     0.027586  d :     0.256021
      dxz     :     0.018430
      dyz     :     0.062412
      dx2y2   :     0.067643
      dxy     :     0.079950
      f0      :     0.009238  f :     0.080547
      f+1     :     0.003214
      f-1     :     0.008861
      f+2     :     0.007115
      f-2     :     0.011107
      f+3     :     0.019587
      f-3     :     0.021426

  8 Cls       :     5.449367  s :     5.449367
      pz      :     3.691482  p :    10.673439
      px      :     3.501438
      py      :     3.480518
      dz2     :     0.030945  d :     0.217043
      dxz     :     0.026611
      dyz     :     0.032191
      dx2y2   :     0.061617
      dxy     :     0.065679
      f0      :     0.005356  f :     0.057004
      f+1     :     0.004801
      f-1     :     0.006425
      f+2     :     0.001889
      f-2     :     0.010102
      f+3     :     0.013734
      f-3     :     0.014696

  9 H s       :     0.663109  s :     0.663109
      pz      :     0.092321  p :     0.359976
      px      :     0.151636
      py      :     0.116019
      dz2     :     0.030358  d :     0.251855
      dxz     :     0.036111
      dyz     :     0.032879
      dx2y2   :     0.097572
      dxy     :     0.054935

 10 H s       :     0.666354  s :     0.666354
      pz      :     0.086048  p :     0.304745
      px      :     0.083642
      py      :     0.135055
      dz2     :     0.022606  d :     0.215646
      dxz     :     0.011303
      dyz     :     0.054665
      dx2y2   :     0.056747
      dxy     :     0.070326

 11 H s       :     0.673926  s :     0.673926
      pz      :     0.097856  p :     0.312941
      px      :     0.136505
      py      :     0.078580
      dz2     :     0.022072  d :     0.212308
      dxz     :     0.060488
      dyz     :     0.005915
      dx2y2   :     0.050430
      dxy     :     0.073404

 12 H s       :     0.666295  s :     0.666295
      pz      :     0.085304  p :     0.303957
      px      :     0.105415
      py      :     0.113238
      dz2     :     0.022536  d :     0.215202
      dxz     :     0.031746
      dyz     :     0.034018
      dx2y2   :     0.081662
      dxy     :     0.045241

 13 H s       :     0.656939  s :     0.656939
      pz      :     0.089432  p :     0.322868
      px      :     0.099283
      py      :     0.134153
      dz2     :     0.025525  d :     0.224598
      dxz     :     0.012408
      dyz     :     0.053488
      dx2y2   :     0.062728
      dxy     :     0.070449


SPIN
  0 C s       :     0.004166  s :     0.004166
      pz      :     0.101301  p :     0.105822
      px      :     0.002350
      py      :     0.002171
      dz2     :    -0.000991  d :    -0.001337
      dxz     :    -0.003222
      dyz     :     0.005341
      dx2y2   :    -0.001370
      dxy     :    -0.001095
      f0      :     0.000012  f :    -0.004070
      f+1     :    -0.000082
      f-1     :    -0.000363
      f+2     :    -0.001969
      f-2     :    -0.000277
      f+3     :    -0.000597
      f-3     :    -0.000795

  1 C s       :    -0.002875  s :    -0.002875
      pz      :    -0.050886  p :    -0.057906
      px      :    -0.003524
      py      :    -0.003497
      dz2     :     0.000517  d :     0.059922
      dxz     :     0.027724
      dyz     :     0.028337
      dx2y2   :     0.001620
      dxy     :     0.001725
      f0      :     0.003112  f :     0.019434
      f+1     :    -0.000021
      f-1     :    -0.000077
      f+2     :     0.011935
      f-2     :     0.002944
      f+3     :     0.000784
      f-3     :     0.000757

  2 C s       :     0.006227  s :     0.006227
      pz      :     0.147757  p :     0.155714
      px      :     0.003510
      py      :     0.004447
      dz2     :    -0.001533  d :    -0.009571
      dxz     :     0.008989
      dyz     :    -0.014102
      dx2y2   :    -0.001592
      dxy     :    -0.001334
      f0      :    -0.000401  f :    -0.009214
      f+1     :    -0.000496
      f-1     :    -0.000085
      f+2     :    -0.002405
      f-2     :    -0.004422
      f+3     :    -0.000702
      f-3     :    -0.000704

  3 C s       :    -0.002769  s :    -0.002769
      pz      :    -0.048070  p :    -0.054930
      px      :    -0.004261
      py      :    -0.002600
      dz2     :     0.000485  d :     0.058607
      dxz     :     0.046938
      dyz     :     0.007932
      dx2y2   :     0.001587
      dxy     :     0.001665
      f0      :     0.003048  f :     0.018896
      f+1     :    -0.000153
      f-1     :     0.000049
      f+2     :     0.004013
      f-2     :     0.010428
      f+3     :     0.000789
      f-3     :     0.000721

  4 C s       :     0.003976  s :     0.003976
      pz      :     0.095729  p :     0.100118
      px      :     0.002358
      py      :     0.002032
      dz2     :    -0.000913  d :     0.001547
      dxz     :    -0.004135
      dyz     :     0.009015
      dx2y2   :    -0.001056
      dxy     :    -0.001365
      f0      :     0.000184  f :    -0.003517
      f+1     :    -0.000129
      f-1     :    -0.000313
      f+2     :    -0.004909
      f-2     :     0.003033
      f+3     :    -0.000621
      f-3     :    -0.000762

  5 C s       :    -0.000946  s :    -0.000946
      pz      :     0.018048  p :     0.009390
      px      :    -0.006166
      py      :    -0.002492
      dz2     :    -0.000012  d :     0.074502
      dxz     :     0.059880
      dyz     :     0.010859
      dx2y2   :     0.002356
      dxy     :     0.001419
      f0      :     0.004037  f :     0.032374
      f+1     :    -0.000243
      f-1     :    -0.000112
      f+2     :     0.020237
      f-2     :     0.006524
      f+3     :     0.001228
      f-3     :     0.000703

  6 C s       :     0.006738  s :     0.006738
      pz      :     0.148075  p :     0.149940
      px      :     0.000834
      py      :     0.001031
      dz2     :    -0.000584  d :     0.039636
      dxz     :     0.014731
      dyz     :     0.026849
      dx2y2   :    -0.000658
      dxy     :    -0.000702
      f0      :     0.004838  f :     0.013936
      f+1     :    -0.000264
      f-1     :    -0.000321
      f+2     :     0.008096
      f-2     :     0.001549
      f+3     :     0.000170
      f-3     :    -0.000132

  7 O s       :     0.003084  s :     0.003084
      pz      :     0.132273  p :     0.135100
      px      :     0.003585
      py      :    -0.000758
      dz2     :     0.000228  d :     0.040935
      dxz     :     0.008206
      dyz     :     0.031079
      dx2y2   :     0.000783
      dxy     :     0.000640
      f0      :     0.003872  f :     0.011256
      f+1     :    -0.000019
      f-1     :    -0.000057
      f+2     :     0.002440
      f-2     :     0.004689
      f+3     :     0.000199
      f-3     :     0.000132

  8 Cls       :     0.000261  s :     0.000261
      pz      :     0.013273  p :     0.003371
      px      :    -0.004206
      py      :    -0.005696
      dz2     :    -0.000076  d :     0.019384
      dxz     :     0.010888
      dyz     :     0.008253
      dx2y2   :    -0.000350
      dxy     :     0.000669
      f0      :     0.001492  f :     0.005945
      f+1     :    -0.000006
      f-1     :    -0.000008
      f+2     :    -0.000024
      f-2     :     0.004194
      f+3     :     0.000184
      f-3     :     0.000112

  9 H s       :    -0.003568  s :    -0.003568
      pz      :     0.015313  p :     0.016666
      px      :     0.000813
      py      :     0.000540
      dz2     :    -0.000022  d :     0.009317
      dxz     :     0.006345
      dyz     :     0.002368
      dx2y2   :     0.000156
      dxy     :     0.000470

 10 H s       :     0.001860  s :     0.001860
      pz      :    -0.007203  p :    -0.008302
      px      :    -0.000350
      py      :    -0.000749
      dz2     :     0.000006  d :    -0.002439
      dxz     :     0.003042
      dyz     :    -0.004790
      dx2y2   :    -0.000378
      dxy     :    -0.000320

 11 H s       :    -0.005696  s :    -0.005696
      pz      :     0.027081  p :     0.029269
      px      :     0.001958
      py      :     0.000230
      dz2     :     0.000007  d :     0.015255
      dxz     :     0.013922
      dyz     :     0.000197
      dx2y2   :     0.000671
      dxy     :     0.000457

 12 H s       :     0.001968  s :     0.001968
      pz      :    -0.007639  p :    -0.008764
      px      :    -0.000438
      py      :    -0.000687
      dz2     :     0.000006  d :    -0.002670
      dxz     :     0.000760
      dyz     :    -0.002719
      dx2y2   :    -0.000414
      dxy     :    -0.000304

 13 H s       :    -0.003803  s :    -0.003803
      pz      :     0.017298  p :     0.018509
      px      :     0.000095
      py      :     0.001116
      dz2     :    -0.000038  d :     0.009253
      dxz     :     0.002039
      dyz     :     0.006654
      dx2y2   :     0.000254
      dxy     :     0.000344



                      *****************************
                      * MAYER POPULATION ANALYSIS *
                      *****************************

  NA   - Mulliken gross atomic population
  ZA   - Total nuclear charge
  QA   - Mulliken gross atomic charge
  VA   - Mayer's total valence
  BVA  - Mayer's bonded valence
  FA   - Mayer's free valence

  ATOM       NA         ZA         QA         VA         BVA        FA
  0 C      6.9471     6.0000    -0.9471     2.5787     2.5257     0.0531
  1 C      6.4028     6.0000    -0.4028     2.7034     2.6842     0.0192
  2 C      6.4173     6.0000    -0.4173     2.6789     2.5859     0.0930
  3 C      6.6170     6.0000    -0.6170     2.8162     2.7983     0.0179
  4 C      6.9771     6.0000    -0.9771     2.7274     2.6811     0.0462
  5 C      4.3038     6.0000     1.6962     0.8979     0.8835     0.0144
  6 C      5.6078     6.0000     0.3922     3.0793     2.9880     0.0914
  7 O      8.8455     8.0000    -0.8455     1.3425     1.3077     0.0348
  8 Cl    17.4585    17.0000    -0.4585     0.8033     0.8019     0.0014
  9 H      0.8026     1.0000     0.1974     1.0157     1.0154     0.0003
 10 H      0.5731     1.0000     0.4269     0.7516     0.7516    -0.0000
 11 H      0.4978     1.0000     0.5022     0.5923     0.5919     0.0004
 12 H      0.6270     1.0000     0.3730     0.7677     0.7678    -0.0001
 13 H      0.9227     1.0000     0.0773     1.1099     1.1095     0.0004

  Mayer bond orders larger than 0.100000
B(  0-C ,  1-C ) :   1.2176 B(  0-C ,  4-C ) :  -0.1668 B(  0-C ,  5-C ) :   0.1380 
B(  0-C ,  6-C ) :   0.2475 B(  0-C , 12-H ) :  -0.1146 B(  0-C , 13-H ) :   1.0595 
B(  1-C ,  2-C ) :   0.9276 B(  1-C ,  4-C ) :  -0.1163 B(  1-C , 12-H ) :   0.8000 
B(  2-C ,  3-C ) :   0.9668 B(  2-C ,  5-C ) :  -0.1590 B(  2-C ,  6-C ) :   0.1407 
B(  2-C , 11-H ) :   0.6134 B(  3-C ,  4-C ) :   1.2168 B(  3-C , 10-H ) :   0.7201 
B(  4-C ,  6-C ) :   0.3720 B(  4-C ,  9-H ) :   1.2835 B(  4-C , 10-H ) :  -0.1164 
B(  4-C , 13-H ) :   0.1147 B(  5-C ,  6-C ) :   0.6533 B(  5-C ,  7-O ) :   0.2136 
B(  5-C , 13-H ) :  -0.1123 B(  6-C ,  7-O ) :   0.8186 B(  6-C ,  8-Cl) :   0.7140 
B(  7-O , 13-H ) :   0.1502 B(  8-Cl,  9-H ) :  -0.1277 

-------
TIMINGS
-------

Total SCF time: 0 days 0 hours 4 min 50 sec 

Total time                  ....     290.534 sec
Sum of individual times     ....     289.507 sec  ( 99.6%)

SCF preparation             ....       1.076 sec  (  0.4%)
Fock matrix formation       ....     271.162 sec  ( 93.3%)
  Startup                   ....       1.844 sec  (  0.7% of F)
  Split-RI-J                ....      12.076 sec  (  4.5% of F)
  Chain of spheres X        ....     141.757 sec  ( 52.3% of F)
  XC integration            ....     106.016 sec  ( 39.1% of F)
    XC Preparation          ....       0.000 sec  (  0.0% of XC)
    Basis function eval.    ....       5.480 sec  (  5.2% of XC)
    Density eval.           ....      35.270 sec  ( 33.3% of XC)
    XC-Functional eval.     ....       1.019 sec  (  1.0% of XC)
    XC-Potential eval.      ....      58.386 sec  ( 55.1% of XC)
  CPCM terms                ....       5.053 sec  (  1.9% of F)
Diagonalization             ....       0.000 sec  (  0.0%)
Density matrix formation    ....       3.917 sec  (  1.3%)
Total Energy calculation    ....       1.866 sec  (  0.6%)
Population analysis         ....       0.418 sec  (  0.1%)
Orbital Transformation      ....       0.847 sec  (  0.3%)
Orbital Orthonormalization  ....       0.000 sec  (  0.0%)
DIIS solution               ....       6.582 sec  (  2.3%)
SOSCF solution              ....       3.638 sec  (  1.3%)
Finished LeanSCF after 290.8 sec

Maximum memory used throughout the entire LEANSCF-calculation: 77.9 MB


-------------------------------------------------------------------------------
                          DFT DISPERSION CORRECTION                            
                                                                               
                              DFTD3 V3.1  Rev 1                                
                          USING Becke-Johnson damping                          
-------------------------------------------------------------------------------
The R2SCANh functional is recognized
Active option DFTDOPT                   ...         4   

molecular C6(AA) [au] = 3248.702457 


            DFT-D V3
 parameters
 s6 scaling factor         :     1.0000 
 a1 scaling factor         :     0.4709 
 s8 scaling factor         :     1.1236 
 a2 scaling factor         :     5.9157 
 ad hoc parameters k1-k3   :    16.0000     1.3333    -4.0000 

 Edisp/kcal,au: -3.107314307140  -0.004951820019 
 E6   /kcal   :  -2.187260290 
 E8   /kcal   :  -0.920054017 
 % E8         :  29.609300076 

-------------------------   ----------------
Dispersion correction           -0.004951820
-------------------------   ----------------


-------------------------   --------------------
FINAL SINGLE POINT ENERGY      -805.211102777165
-------------------------   --------------------



           ************************************************************
           *        Program running with 6 parallel MPI-processes     *
           *              working on a common directory               *
           ************************************************************

------------------------------------------------------------------------------
                              ORCA PROPERTY CALCULATIONS
------------------------------------------------------------------------------

GBWName                                 ... cs_rporg_169_red_solv_04.gbw
Number of atoms                         ...     14
Number of basis functions               ...    606
Max core memory                         ...   3000 MB

Electric properties:
Dipole moment                           ... YES
Quadrupole moment                       ...  NO
Static polarizability (Dipole/Dipole)   ...  NO
Static polarizability (Dipole/Quad.)    ...  NO
Static polarizability (Quad./Quad.)     ...  NO
Static polarizability (Velocity)        ...  NO

Atomic electric properties:
Dipole moment                           ...  NO
Quadrupole moment                       ...  NO
Static polarizability                   ...  NO

Choice of electric origin               ... Center of mass
Position of electric origin             ...     0.037352     0.023089     0.000360

General magnetic properties:
Magnetizability                         ...  NO

EPR properties:
g-Tensor (aka g-matrix)                 ...  NO
Zero-Field splitting spin-orbit         ...  NO
Zero-field splitting spin-spin          ...  NO
Hyperfine couplings                     ...  NO (   0 nuclei)
Quadrupole couplings                    ...  NO (   0 nuclei)
Contact density                         ...  NO (   0 nuclei)

NMR properties:
Chemical shifts                         ...  NO (   0 nuclei)
Spin-rotation constants                 ...  NO (   0 nuclei)
Spin-spin couplings                     ...  NO (   0 nuclei,    0 pairs)

Choice of magnetic origin               ... GIAO
Position of magnetic origin             ...     0.000000     0.000000     0.000000

Properties with geometric perturbations:
SCF Hessian                             ...  NO
IR spectrum                             ...  NO
VCD spectrum                            ...  NO
X-ray spectroscopy properties:
SCF XES/XAS/RIXS spectra                ...  NO


-------------
DIPOLE MOMENT
-------------

Method             : SCF
Type of density    : Electron Density
Multiplicity       :   2
Irrep              :   0
Energy             :  -805.2061509571458373 Eh
Relativity type    : 
Basis              : AO
                                X                 Y                 Z
Electronic contribution:     11.080023561       1.045265284       0.001889788
Nuclear contribution   :    -12.989017313      -0.288558488      -0.001883982
                        -----------------------------------------
Total Dipole Moment    :     -1.908993752       0.756706797       0.000005806
                        -----------------------------------------
Magnitude (a.u.)       :      2.053500018
Magnitude (Debye)      :      5.219582237



--------------------
Rotational spectrum 
--------------------
 
Rotational constants in cm-1:             0.100365             0.030413             0.023340 
Rotational constants in MHz :          3008.857541           911.756969           699.723685 

Dipole components along the rotational axes: 
x,y,z [a.u.] :    -1.897587    -0.784874    -0.000042 
x,y,z [Debye]:    -4.823282    -1.994991    -0.000106 

 

Dipole moment calculation done in   0.0 sec 

Maximum memory used throughout the entire PROP-calculation: 41.6 MB

--------------------------------
SUGGESTED CITATIONS FOR THIS RUN
--------------------------------

Below you find a list of papers that are relevant to this ORCA run
We neither can nor want to force you to cite these papers, but we appreciate if you do
You receive ORCA, which is the product of decades of hard work by many enthusiastic individuals, for free
The only thing we kindly ask in return is that you cite our papers,
We deeply appreciate it, if you show your appreciation for ORCA by not just citing the generic ORCA reference.

Please note that relegating all ORCA citations to the supporting information does *not* help us.
SI sections are not indexed - citations you put there will not count into any citation statistics
But we need these citations in order to attract the funding resources that allow us to do what we are doing

Therefore, if you are a happy ORCA user, please consider citing a few of the papers listed below in the main body of your paper

In addition to the list printed below, the program has created the file cs_rporg_169_red_solv_04.bibtex that contains the list in bibtex format
You can import this file easily into all common literature databanks and citation aid programs


List of essential papers. We consider these as the minimum necessary citations

  1. Neese,F.
     Software update: the ORCA program system, version 5.0
     WIRES Comput. Molec. Sci., 2022 12(1)e1606
     doi.org/10.1002/wcms.1606

List of papers to cite with high priority. The work reported in these papers was absolutely
necessary for this run to complete.
Our perspective: the developers of density functionals and basis sets usually get cited in chemistry papers
Good! But without the algorithms to do something with them, the functionals or basis sets would not do anything.
Hence, in our opinion, the algorithm design and method developments papers are equally worthy of getting cited

  1. Neese,F.
     An improvement of the resolution of the identity approximation for the formation of the Coulomb matrix
     J. Comp. Chem., 2003 24(14)1740-1747
     doi.org/10.1002/jcc.10318
  2. Neese,F.; Wennmohs,F.; Hansen,A.; Becker,U.
     Efficient, approximate and parallel Hartree-Fock and hybrid DFT calculations. A 'chain-of-spheres' algorithm for the Hartree-Fock exchange
     Chem. Phys., 2009 356(1-3)98-109
     doi.org/10.1016/j.chemphys.2008.10.036
  3. Garcia-Rates,M.; Neese,F.
     Effect of the Solute Cavity on the Solvation Energy and its Derivatives within the Framework of the Gaussian Charge Scheme
     J. Comput. Chem., 2020 41 922-939
     doi.org/10.1002/jcc.26139
  4. Helmich-Paris,B.; de Souza,B.; Neese,F.; Izsák,R.
     An improved chain of spheres for exchange algorithm
     J. Chem. Phys., 2021 155 104109
     doi.org/doi: 10.1063/5.0058766.
  5. Neese,F.
     The SHARK Integral Generation and Digestion System
     J. Comp. Chem., 2022  1-16
     doi.org/10.1002/jcc.26942
  6. Lehtola,S.; Steigemann,C.; Oliveira,M.; Marques,M.
     Recent developments in Libxc - A comprehensive library of functionals for density functional theory
     Software X, 2018 7 
     doi.org/10.1016/j.softx.2017.11.002
  7. Grimme,S.; Antony,J.; Ehrlich,S.; Krieg,H.
     A consistent and accurate ab initio parametrization of density functional dispersion correction (DFT-D) for the 94 elements H-Pu
     J. Chem. Phys., 2010 132 154104-XXXX
     doi.org/10.1063/1.3382344
  8. Grimme,S.; Ehrlich,S.; Goerigk,L.
     Effect of the damping function in dispersion corrected density functional theory
     J. Comput. Chem., 2011 32(7)1456-1465
     doi.org/10.1002/jcc.21759
  9. Bursch,M.; Neugebauer,H.; Ehlert,S.; Grimme,S.
     Dispersion corrected r2SCAN based global hybrid functionals: r2SCANh, r2SCAN0, and r2SCAN50
     J. Phys. Chem., 2022 156(13)134105
     doi.org/10.1063/5.0086040

List of suggested additional citations. These are papers that are important in the 'surrounding' of 
of this run, or papers that preceded the highly important papers. If you like your results we are grateful for a citation.

  1. Izsak,R.; Neese,F.
     An overlap fitted chain of spheres exchange method
     J. Chem. Phys., 2011 135 144105
     doi.org/10.1063/1.3646921
  2. Izsak,R.; Hansen,A.; Neese,F.
     The resolution of identity and chain of spheres approximations for the LPNO-CCSD singles Fock term
     Molec. Phys., 2012 110 2413-2417
     doi.org/10.1080/00268976.2012.687466
  3. Neese,F.
     The ORCA program system
     WIRES Comput. Molec. Sci., 2012 2(1)73-78
     doi.org/10.1002/wcms.81
  4. Izsak,R.; Neese,F.; Klopper,W.
     Robust fitting techniques in the chain of spheres approximation to the Fock exchange: The role of the complementary space
     J. Chem. Phys., 2013 139 
     doi.org/10.1063/1.4819264
  5. Neese,F.
     Software update: the ORCA program system, version 4.0
     WIRES Comput. Molec. Sci., 2018 8(1)1-6
     doi.org/10.1002/wcms.1327
  6. Neese,F.; Wennmohs,F.; Becker,U.; Riplinger,C.
     The ORCA quantum chemistry program package
     J. Chem. Phys., 2020 152 Art. No. L224108
     doi.org/10.1063/5.0004608
  7. Wittmann,L.; Neugebauer,H.; Grimme,S.; Bursch,M.
     Dispersion-corrected r2SCAN based double-hybrid functionals
     J. Chem. Phys., 2023 159(22)224103
     doi.org/10.1063/5.0174988

List of optional additional citations

  1. Neese,F.
     Approximate second-order SCF convergence for spin unrestricted wavefunctions
     Chem. Phys. Lett., 2000 325(1-3)93-98
     doi.org/10.1016/s0009-2614(00)00662-x

Timings for individual modules:

Sum of individual times          ...      307.007 sec (=   5.117 min)
Startup calculation              ...        9.298 sec (=   0.155 min)   3.0 %
SCF iterations                   ...      295.769 sec (=   4.929 min)  96.3 %
Property calculations            ...        1.940 sec (=   0.032 min)   0.6 %
                             ****ORCA TERMINATED NORMALLY****
TOTAL RUN TIME: 0 days 0 hours 5 minutes 10 seconds 124 msec
