
                                 *****************
                                 * O   R   C   A *
                                 *****************

                                            #,                                       
                                            ###                                      
                                            ####                                     
                                            #####                                    
                                            ######                                   
                                           ########,                                 
                                     ,,################,,,,,                         
                               ,,#################################,,                 
                          ,,##########################################,,             
                       ,#########################################, ''#####,          
                    ,#############################################,,   '####,        
                  ,##################################################,,,,####,       
                ,###########''''           ''''###############################       
              ,#####''   ,,,,##########,,,,          '''####'''          '####       
            ,##' ,,,,###########################,,,                        '##       
           ' ,,###''''                  '''############,,,                           
         ,,##''                                '''############,,,,        ,,,,,,###''
      ,#''                                            '''#######################'''  
     '                                                          ''''####''''         
             ,#######,   #######,   ,#######,      ##                                
            ,#'     '#,  ##    ##  ,#'     '#,    #''#        ,####,   ,####,        
            ##       ##  ##   ,#'  ##            #'  '#       #'       #'  '#        
            ##       ##  #######   ##           ,######,      #####,   #    #        
            '#,     ,#'  ##    ##  '#,     ,#' ,#      #,     #,   #   #,  ,#        
             '#######'   ##     ##  '#######'  #'      '#     '####' # '####'        



                #########################################################
                #                        -***-                          #
                #          Department of theory and spectroscopy        #
                #                                                       #
                #                      Frank Neese                      #
                #                                                       #
                #     Directorship, Architecture, Infrastructure        #
                #                    SHARK, DRIVERS                     #
                #        Core code/Algorithms in most modules           #
                #                                                       #
                #        Max Planck Institute fuer Kohlenforschung      #
                #                Kaiser Wilhelm Platz 1                 #
                #                 D-45470 Muelheim/Ruhr                 #
                #                      Germany                          #
                #                                                       #
                #                  All rights reserved                  #
                #                        -***-                          #
                #########################################################


                         Program Version 6.0.0  -   RELEASE  -


 With contributions from (in alphabetic order):
   Daniel Aravena         : Magnetic Suceptibility
   Michael Atanasov       : Ab Initio Ligand Field Theory (pilot matlab implementation)
   Alexander A. Auer      : GIAO ZORA, VPT2 properties, NMR spectrum
   Ute Becker             : All parallelization in ORCA, NUMFREQ, NUMCALC
   Giovanni Bistoni       : ED, misc. LED, open-shell LED, HFLD
   Martin Brehm           : Molecular dynamics
   Dmytro Bykov           : pre 5.0 version of the SCF Hessian
   Marcos Casanova-Páez   : Triplet and SCS-CIS(D). UHF-(DLPNO)-IP/EA/STEOM-CCSD. UHF-CVS-IP/STEOM-CCSD
   Vijay G. Chilkuri      : MRCI spin determinant printing, contributions to CSF-ICE
   Pauline Colinet        : FMM embedding
   Dipayan Datta          : RHF DLPNO-CCSD density
   Achintya Kumar Dutta   : EOM-CC, STEOM-CC
   Nicolas Foglia         : Exact transition moments, OPA infrastructure, MCD improvements
   Dmitry Ganyushin       : Spin-Orbit,Spin-Spin,Magnetic field MRCI
   Miquel Garcia          : C-PCM and meta-GGA Hessian, CCSD/C-PCM, Gaussian charge scheme
   Tiago L. C. Gouveia    : GS-ROHF, GS-ROCIS
   Yang Guo               : DLPNO-NEVPT2, F12-NEVPT2, CIM, IAO-localization
   Andreas Hansen         : Spin unrestricted coupled pair/coupled cluster methods
   Ingolf Harden          : AUTO-CI MPn and infrastructure 
   Benjamin Helmich-Paris : MC-RPA, TRAH-(SCF,CASSCF), AVAS, COSX integrals, SCF dyn. polar.
   Lee Huntington         : MR-EOM, pCC
   Robert Izsak           : Overlap fitted RIJCOSX, COSX-SCS-MP3, EOM
   Riya Kayal             : Wick's Theorem for AUTO-CI, AUTO-CI UHF-CCSDT
   Emily Kempfer          : AUTO-CI, RHF CISDT and CCSDT
   Christian Kollmar      : KDIIS, OOCD, Brueckner-CCSD(T), CCSD density, CASPT2, CASPT2-K, improved NEVPT2
   Axel Koslowski         : Symmetry handling
   Simone Kossmann        : Meta GGA functionals, TD-DFT gradient, OOMP2, (MP2 Hessian; deprecated post 5.0)
   Lucas Lang             : DCDCAS
   Marvin Lechner         : AUTO-CI (C++ implementation), FIC-MRCC
   Spencer Leger          : CASSCF response
   Dagmar Lenk            : GEPOL surface, SMD, ORCA-2-JSON
   Dimitrios Liakos       : Extrapolation schemes; Compound Job, initial MDCI parallelization
   Dimitrios Manganas     : Further ROCIS development; embedding schemes. LFT, Crystal Embedding
   Dimitrios Pantazis     : SARC Basis sets
   Anastasios Papadopoulos: AUTO-CI, single reference methods and gradients
   Taras Petrenko         : pre 6.0 DFT Hessian and TD-DFT gradient, (ASA, deprecated), ECA, 1-Electron XAS/XES, NRVS
   Peter Pinski           : DLPNO-MP2, DLPNO-MP2 Gradient
   Christoph Reimann      : Effective Core Potentials
   Marius Retegan         : Local ZFS, SOC
   Christoph Riplinger    : Optimizer, TS searches, QM/MM, DLPNO-CCSD(T), (RO)-DLPNO pert. Triples
   Michael Roemelt        : Original ROCIS implementation
   Masaaki Saitow         : Open-shell DLPNO-CCSD energy and density
   Barbara Sandhoefer     : DKH picture change effects
   Kantharuban Sivalingam : CASSCF convergence/infrastructure, NEVPT2 and variants, FIC-MRCI
   Bernardo de Souza      : ESD, SOC TD-DFT
   Georgi Stoychev        : AutoAux, RI-MP2 NMR, DLPNO-MP2 response, X2C
   Van Anh Tran           : RI-MP2 g-tensors
   Willem Van den Heuvel  : Paramagnetic NMR
   Zikuan Wang            : NOTCH, Electric field optimization 
   Frank Wennmohs         : Technical directorship and infrastructure
   Hang Xu                : AUTO-CI-Response properties 


 We gratefully acknowledge several colleagues who have allowed us to
 interface, adapt or use parts of their codes:
   Stefan Grimme, W. Hujo, H. Kruse, P. Pracht,  : VdW corrections, initial TS optimization,
                  C. Bannwarth, S. Ehlert,         DFT functionals, gCP, sTDA/sTD-DF
                  L. Wittmann, M. Mueller
   Ed Valeev, F. Pavosevic, A. Kumar             : LibInt (2-el integral package), F12 methods
   Garnet Chan, S. Sharma, J. Yang, R. Olivares  : DMRG
   Ulf Ekstrom                                   : XCFun DFT Library
   Mihaly Kallay                                 : mrcc  (arbitrary order and MRCC methods)
   Frank Weinhold                                : gennbo (NPA and NBO analysis)
   Simon Mueller                                 : openCOSMO-RS
   Christopher J. Cramer and Donald G. Truhlar   : smd solvation model
   Lars Goerigk                                  : TD-DFT with DH, B97 family of functionals
   V. Asgeirsson, H. Jonsson                     : NEB implementation
   FAccTs GmbH                                   : IRC, NEB, NEB-TS, DLPNO-Multilevel, CI-OPT
                                                   MM, QMMM, 2- and 3-layer-ONIOM, Crystal-QMMM,
                                                   LR-CPCM, SF, NACMEs, symmetry and pop. for TD-DFT,
                                                   nearIR, NL-DFT gradient (VV10), updates on ESD,
                                                   ML-optimized integration grids, MBIS, APM,
                                                   GOAT, DOCKER, SOLVATOR, interface openCOSMO-RS
   S Lehtola, MJT Oliveira, MAL Marques          : LibXC Library
   Liviu Ungur et al                             : ANISO software


 Your calculation uses the libint2 library for the computation of 2-el integrals
 For citations please refer to: http://libint.valeyev.net

 Your ORCA version has been built with support for libXC version: 6.2.2
 For citations please refer to: https://libxc.gitlab.io

 This ORCA versions uses:
   CBLAS   interface :  Fast vector & matrix operations
   LAPACKE interface :  Fast linear algebra routines
   SCALAPACK package :  Parallel linear algebra routines
   Shared memory     :  Shared parallel matrices
   BLAS/LAPACK       :  OpenBLAS 0.3.27  USE64BITINT DYNAMIC_ARCH NO_AFFINITY Haswell SINGLE_THREADED
        Core in use  :  Haswell
   Copyright (c) 2011-2014, The OpenBLAS Project


NOTE: MaxCore=3000 MB was set to SCF,MP2,MDCI,CIPSI,MRCI and CIS
      => If you want to overwrite this, your respective input block should be placed after the MaxCore statement
Your calculation utilizes the atom-pairwise dispersion correction
with the Becke-Johnson damping scheme (D3BJ)


Warning: RI is on but no J-basis has been assigned. Assigning Def2/J (nothing to worry about!)
================================================================================

----- Orbital basis set information -----
Your calculation utilizes the basis: def2-SV(P)
   F. Weigend and R. Ahlrichs, Phys. Chem. Chem. Phys. 7, 3297 (2005).

----- AuxJ basis set information -----
Your calculation utilizes the auxiliary basis: def2/J
   F. Weigend, Phys. Chem. Chem. Phys. 8, 1057 (2006).

================================================================================
                                        WARNINGS
                       Please study these warnings very carefully!
================================================================================


WARNING: your system is open-shell and RHF/RKS was chosen
  ===> : WILL SWITCH to UHF/UKS


WARNING: Geometry Optimization
  ===> : Switching off AutoStart
         For restart on a previous wavefunction, please use MOREAD

================================================================================
                                       INPUT FILE
================================================================================
NAME = cs_rporg_005_ox_opt_01.inp
|  1> !PBE0 def2-SV(p) Opt Freq d3 TightSCF SlowConv RIJCOSX defgrid2
|  2>  
|  3> %pal
|  4> nprocs 4
|  5> end
|  6>  
|  7> %scf
|  8> MaxIter 1500
|  9> end
| 10>  
| 11> %maxcore 3000
| 12>  
| 13> 
| 14>  
| 15> * xyz 1 2
| 16> C    -1.1895544   -1.1115753   -0.0006760 
| 17> C     0.0134310   -1.7944379   -0.0008591 
| 18> C     1.2014825   -1.0850702   -0.0005453 
| 19> C     1.1999101    0.3478071    0.0009809 
| 20> C     2.4916970    1.0539790    0.0003452 
| 21> H     2.3721019    2.1337516    0.0009937 
| 22> H     3.0870723    0.7484611    0.8667230 
| 23> H     3.0853726    0.7494093   -0.8675414 
| 24> C    -0.0147520    1.0151492    0.0028540 
| 25> C    -1.2205273    0.3184601    0.0024399 
| 26> C    -2.5092213    1.0296200    0.0019985 
| 27> H    -2.5921564    1.6558464   -0.8926638 
| 28> H    -2.5558327    1.7363179    0.8360998 
| 29> H    -3.3577350    0.3524670    0.0455333 
| 30> H    -0.0288929    2.0947739    0.0046740 
| 31> H     2.1484628   -1.6045520   -0.0024529 
| 32> H     0.0250094   -2.8731766   -0.0021144 
| 33> H    -2.1235930   -1.6536058   -0.0026302
| 34> *
| 35> 
| 36>                          ****END OF INPUT****
================================================================================

                       *****************************
                       * Geometry Optimization Run *
                       *****************************

Geometry optimization settings:
Update method            Update   .... BFGS
Choice of coordinates    CoordSys .... (2022) Redundant Internals
Initial Hessian          InHess   .... Almloef's Model
Max. no of cycles        MaxIter  .... 54

Convergence Tolerances:
Energy Change            TolE     ....  5.0000e-06 Eh
Max. Gradient            TolMAXG  ....  3.0000e-04 Eh/bohr
RMS Gradient             TolRMSG  ....  1.0000e-04 Eh/bohr
Max. Displacement        TolMAXD  ....  4.0000e-03 bohr
RMS Displacement         TolRMSD  ....  2.0000e-03 bohr
Strict Convergence                .... False

------------------------------------------------------------------------------
                        ORCA OPTIMIZATION COORDINATE SETUP
------------------------------------------------------------------------------

The optimization will be done in redundant internal coordinates (2022)
Making redundant internal coordinates   ...  (2022 redundants) done
Evaluating the initial hessian          ...  (Almloef) done
Evaluating the coordinates              ...  done
Calculating the B-matrix                .... done
Calculating the G-matrix                .... done
Diagonalizing the G-matrix              .... done
The first mode is                       ....   34
The number of degrees of freedom        ....   48

    -----------------------------------------------------------------
                    Redundant Internal Coordinates


    -----------------------------------------------------------------
         Definition                    Initial Value    Approx d2E/dq
    -----------------------------------------------------------------
      1. B(C   1,C   0)                  1.3833         0.640403   
      2. B(C   2,C   1)                  1.3837         0.639389   
      3. B(C   3,C   2)                  1.4329         0.533738   
      4. B(C   4,C   3)                  1.4722         0.461937   
      5. B(H   5,C   4)                  1.0864         0.364926   
      6. B(H   6,C   4)                  1.0947         0.353903   
      7. B(H   7,C   4)                  1.0947         0.353893   
      8. B(C   8,C   3)                  1.3859         0.634250   
      9. B(C   9,C   8)                  1.3926         0.618910   
     10. B(C   9,C   0)                  1.4304         0.538672   
     11. B(C  10,C   9)                  1.4719         0.462463   
     12. B(H  11,C  10)                  1.0952         0.353289   
     13. B(H  12,C  10)                  1.0942         0.354559   
     14. B(H  13,C  10)                  1.0865         0.364806   
     15. B(H  14,C   8)                  1.0797         0.373961   
     16. B(H  15,C   2)                  1.0801         0.373424   
     17. B(H  16,C   1)                  1.0788         0.375223   
     18. B(H  17,C   0)                  1.0799         0.373683   
     19. A(C   9,C   0,H  17)          118.8863         0.346793   
     20. A(C   1,C   0,H  17)          120.2920         0.357087   
     21. A(C   1,C   0,C   9)          120.8217         0.425715   
     22. A(C   2,C   1,H  16)          120.2258         0.357241   
     23. A(C   0,C   1,C   2)          119.5782         0.439035   
     24. A(C   0,C   1,H  16)          120.1959         0.357337   
     25. A(C   1,C   2,H  15)          120.4114         0.356949   
     26. A(C   1,C   2,C   3)          120.7779         0.424894   
     27. A(C   3,C   2,H  15)          118.8106         0.346217   
     28. A(C   2,C   3,C   4)          118.6009         0.401067   
     29. A(C   4,C   3,C   8)          122.5516         0.413495   
     30. A(C   2,C   3,C   8)          118.8476         0.424281   
     31. A(C   3,C   4,H   7)          110.0435         0.334933   
     32. A(H   5,C   4,H   6)          109.6811         0.290655   
     33. A(C   3,C   4,H   6)          110.0597         0.334935   
     34. A(H   6,C   4,H   7)          104.7640         0.289258   
     35. A(H   5,C   4,H   7)          109.6757         0.290653   
     36. A(C   3,C   4,H   5)          112.3435         0.336648   
     37. A(C   3,C   8,C   9)          121.1963         0.435707   
     38. A(C   9,C   8,H  14)          119.2686         0.355069   
     39. A(C   3,C   8,H  14)          119.5351         0.356547   
     40. A(C   0,C   9,C  10)          120.1326         0.401798   
     41. A(C   0,C   9,C   8)          118.7782         0.423124   
     42. A(C   8,C   9,C  10)          121.0891         0.411785   
     43. A(H  12,C  10,H  13)          109.7988         0.290724   
     44. A(H  11,C  10,H  13)          109.2669         0.290560   
     45. A(C   9,C  10,H  13)          112.4968         0.336693   
     46. A(H  11,C  10,H  12)          104.4885         0.289265   
     47. A(C   9,C  10,H  12)          110.4331         0.335101   
     48. A(C   9,C  10,H  11)          110.0483         0.334901   
     49. D(C   2,C   1,C   0,C   9)     -0.1216         0.028497   
     50. D(H  16,C   1,C   0,C   9)    179.9319         0.028497   
     51. D(C   2,C   1,C   0,H  17)    179.8947         0.028497   
     52. D(H  16,C   1,C   0,H  17)     -0.0518         0.028497   
     53. D(C   3,C   2,C   1,H  16)    179.9937         0.028400   
     54. D(H  15,C   2,C   1,C   0)   -179.8911         0.028400   
     55. D(C   3,C   2,C   1,C   0)      0.0472         0.028400   
     56. D(H  15,C   2,C   1,H  16)      0.0554         0.028400   
     57. D(C   8,C   3,C   2,H  15)    179.9729         0.019452   
     58. D(C   8,C   3,C   2,C   1)      0.0336         0.019452   
     59. D(C   4,C   3,C   2,H  15)     -0.0205         0.019452   
     60. D(C   4,C   3,C   2,C   1)   -179.9598         0.019452   
     61. D(H   6,C   4,C   3,C   2)    -57.5072         0.015732   
     62. D(H   5,C   4,C   3,C   8)     -0.0289         0.015732   
     63. D(H   5,C   4,C   3,C   2)    179.9641         0.015732   
     64. D(H   7,C   4,C   3,C   2)     57.4541         0.015732   
     65. D(H   6,C   4,C   3,C   8)    122.4997         0.015732   
     66. D(H  14,C   8,C   3,C   4)     -0.0470         0.027916   
     67. D(H  14,C   8,C   3,C   2)    179.9599         0.027916   
     68. D(C   9,C   8,C   3,C   4)    179.9533         0.027916   
     69. D(C   9,C   8,C   3,C   2)     -0.0398         0.027916   
     70. D(C  10,C   9,C   8,H  14)      0.1110         0.026500   
     71. D(C  10,C   9,C   8,C   3)   -179.8894         0.026500   
     72. D(C   0,C   9,C   8,H  14)    179.9681         0.026500   
     73. D(C   0,C   9,C   8,C   3)     -0.0322         0.026500   
     74. D(C  10,C   9,C   0,H  17)     -0.0428         0.019824   
     75. D(C  10,C   9,C   0,C   1)    179.9733         0.019824   
     76. D(C   8,C   9,C   0,H  17)   -179.9013         0.019824   
     77. D(C   8,C   9,C   0,C   1)      0.1148         0.019824   
     78. D(H  11,C  10,C   9,C   8)     60.4078         0.015767   
     79. D(H  11,C  10,C   9,C   0)   -119.4475         0.015767   
     80. D(H  13,C  10,C   9,C   0)      2.6471         0.015767   
     81. D(H  12,C  10,C   9,C   8)    -54.4370         0.015767   
     82. D(H  12,C  10,C   9,C   0)    125.7078         0.015767   
    -----------------------------------------------------------------

Number of atoms                         .... 18
Number of degrees of freedom            .... 82


         *************************************************************
         *                GEOMETRY OPTIMIZATION CYCLE   1            *
         *************************************************************
---------------------------------
CARTESIAN COORDINATES (ANGSTROEM)
---------------------------------
  C     -1.189554   -1.111575   -0.000676
  C      0.013431   -1.794438   -0.000859
  C      1.201482   -1.085070   -0.000545
  C      1.199910    0.347807    0.000981
  C      2.491697    1.053979    0.000345
  H      2.372102    2.133752    0.000994
  H      3.087072    0.748461    0.866723
  H      3.085373    0.749409   -0.867541
  C     -0.014752    1.015149    0.002854
  C     -1.220527    0.318460    0.002440
  C     -2.509221    1.029620    0.001998
  H     -2.592156    1.655846   -0.892664
  H     -2.555833    1.736318    0.836100
  H     -3.357735    0.352467    0.045533
  H     -0.028893    2.094774    0.004674
  H      2.148463   -1.604552   -0.002453
  H      0.025009   -2.873177   -0.002114
  H     -2.123593   -1.653606   -0.002630

----------------------------
CARTESIAN COORDINATES (A.U.)
----------------------------
  NO LB      ZA    FRAG     MASS         X           Y           Z
   0 C     6.0000    0    12.011   -2.247932   -2.100573   -0.001277
   1 C     6.0000    0    12.011    0.025381   -3.390996   -0.001623
   2 C     6.0000    0    12.011    2.270473   -2.050486   -0.001030
   3 C     6.0000    0    12.011    2.267501    0.657260    0.001854
   4 C     6.0000    0    12.011    4.708625    1.991732    0.000652
   5 H     1.0000    0     1.008    4.482623    4.032206    0.001878
   6 H     1.0000    0     1.008    5.833721    1.414387    1.637869
   7 H     1.0000    0     1.008    5.830509    1.416178   -1.639416
   8 C     6.0000    0    12.011   -0.027877    1.918354    0.005393
   9 C     6.0000    0    12.011   -2.306462    0.601802    0.004611
  10 C     6.0000    0    12.011   -4.741741    1.945700    0.003777
  11 H     1.0000    0     1.008   -4.898466    3.129096   -1.686890
  12 H     1.0000    0     1.008   -4.829824    3.281165    1.580000
  13 H     1.0000    0     1.008   -6.345200    0.666066    0.086045
  14 H     1.0000    0     1.008   -0.054600    3.958549    0.008833
  15 H     1.0000    0     1.008    4.060006   -3.032164   -0.004635
  16 H     1.0000    0     1.008    0.047261   -5.429517   -0.003996
  17 H     1.0000    0     1.008   -4.013009   -3.124862   -0.004970

--------------------------------
INTERNAL COORDINATES (ANGSTROEM)
--------------------------------
 C      0   0   0     0.000000000000     0.00000000     0.00000000
 C      1   0   0     1.383284221199     0.00000000     0.00000000
 C      2   1   0     1.383715649592   119.57822980     0.00000000
 C      3   2   1     1.432878975554   120.77791185     0.04719743
 C      4   3   2     1.472206694549   118.60086303   180.04022919
 H      5   4   3     1.086375752770   112.34347388   179.96414851
 H      5   4   3     1.094725274854   110.05972110   302.49278806
 H      5   4   3     1.094733104758   110.04354108    57.45408589
 C      4   3   2     1.385912336374   118.84756012     0.03356756
 C      9   4   3     1.392576729530   121.19626027   359.96021000
 C     10   9   4     1.471897015364   121.08905176   180.11063491
 H     11  10   9     1.095197866100   110.04831561    60.40779526
 H     11  10   9     1.094220966321   110.43308136   305.56303428
 H     11  10   9     1.086465353018   112.49679074   182.50238858
 H      9   4   3     1.079718838542   119.53512808   179.95988900
 H      3   2   1     1.080109562988   120.41142599   180.10886641
 H      2   1   3     1.078801565628   120.19591147   180.05347791
 H      1   2   3     1.079920824930   120.29199669   179.89473917

---------------------------
INTERNAL COORDINATES (A.U.)
---------------------------
 C      0   0   0     0.000000000000     0.00000000     0.00000000
 C      1   0   0     2.614028343440     0.00000000     0.00000000
 C      2   1   0     2.614843624950   119.57822980     0.00000000
 C      3   2   1     2.707748846850   120.77791185     0.04719743
 C      4   3   2     2.782067465224   118.60086303   180.04022919
 H      5   4   3     2.052952651268   112.34347388   179.96414851
 H      5   4   3     2.068730961355   110.05972110   302.49278806
 H      5   4   3     2.068745757730   110.04354108    57.45408589
 C      4   3   2     2.618994761369   118.84756012     0.03356756
 C      9   4   3     2.631588639283   121.19626027   359.96021000
 C     10   9   4     2.781482256374   121.08905176   180.11063491
 H     11  10   9     2.069624029384   110.04831561    60.40779526
 H     11  10   9     2.067777956341   110.43308136   305.56303428
 H     11  10   9     2.053121971197   112.49679074   182.50238858
 H      9   4   3     2.040372906480   119.53512808   179.95988900
 H      3   2   1     2.041111268676   120.41142599   180.10886641
 H      2   1   3     2.038639511883   120.19591147   180.05347791
 H      1   2   3     2.040754605436   120.29199669   179.89473917

---------------------
BASIS SET INFORMATION
---------------------
There are 2 groups of distinct atoms

 Group   1 Type C   : 7s4p1d contracted to 3s2p1d pattern {511/31/1}
 Group   2 Type H   : 4s contracted to 2s pattern {31}

Atom   0C    basis set group =>   1
Atom   1C    basis set group =>   1
Atom   2C    basis set group =>   1
Atom   3C    basis set group =>   1
Atom   4C    basis set group =>   1
Atom   5H    basis set group =>   2
Atom   6H    basis set group =>   2
Atom   7H    basis set group =>   2
Atom   8C    basis set group =>   1
Atom   9C    basis set group =>   1
Atom  10C    basis set group =>   1
Atom  11H    basis set group =>   2
Atom  12H    basis set group =>   2
Atom  13H    basis set group =>   2
Atom  14H    basis set group =>   2
Atom  15H    basis set group =>   2
Atom  16H    basis set group =>   2
Atom  17H    basis set group =>   2
---------------------------------
AUXILIARY/J BASIS SET INFORMATION
---------------------------------
There are 2 groups of distinct atoms

 Group   1 Type C   : 12s5p4d2f1g contracted to 6s4p3d1f1g pattern {711111/2111/211/2/1}
 Group   2 Type H   : 5s2p1d contracted to 3s1p1d pattern {311/2/1}

Atom   0C    basis set group =>   1
Atom   1C    basis set group =>   1
Atom   2C    basis set group =>   1
Atom   3C    basis set group =>   1
Atom   4C    basis set group =>   1
Atom   5H    basis set group =>   2
Atom   6H    basis set group =>   2
Atom   7H    basis set group =>   2
Atom   8C    basis set group =>   1
Atom   9C    basis set group =>   1
Atom  10C    basis set group =>   1
Atom  11H    basis set group =>   2
Atom  12H    basis set group =>   2
Atom  13H    basis set group =>   2
Atom  14H    basis set group =>   2
Atom  15H    basis set group =>   2
Atom  16H    basis set group =>   2
Atom  17H    basis set group =>   2


           ************************************************************
           *        Program running with 4 parallel MPI-processes     *
           *              working on a common directory               *
           ************************************************************
------------------------------------------------------------------------------
                             ORCA STARTUP CALCULATIONS
                           -- RI-GTO INTEGRALS CHOSEN --
------------------------------------------------------------------------------
------------------------------------------------------------------------------
                   ___                                                        
                  /   \      - P O W E R E D   B Y -                         
                 /     \                                                     
                 |  |  |   _    _      __       _____    __    __             
                 |  |  |  | |  | |    /  \     |  _  \  |  |  /  |          
                  \  \/   | |  | |   /    \    | | | |  |  | /  /          
                 / \  \   | |__| |  /  /\  \   | |_| |  |  |/  /          
                |  |  |   |  __  | /  /__\  \  |    /   |      \           
                |  |  |   | |  | | |   __   |  |    \   |  |\   \          
                \     /   | |  | | |  |  |  |  | |\  \  |  | \   \       
                 \___/    |_|  |_| |__|  |__|  |_| \__\ |__|  \__/        
                                                                              
                      - O R C A' S   B I G   F R I E N D -                    
                                      &                                       
                       - I N T E G R A L  F E E D E R -                       
                                                                              
 v1 FN, 2020, v2 2021, v3 2022-2024                                           
------------------------------------------------------------------------------


----------------------
SHARK INTEGRAL PACKAGE
----------------------

Number of atoms                             ...     18
Number of basis functions                   ...    132
Number of shells                            ...     68
Maximum angular momentum                    ...      2
Integral batch strategy                     ... SHARK/LIBINT Hybrid
RI-J (if used) integral strategy            ... SPLIT-RIJ (Revised 2003 algorithm where possible)
Printlevel                                  ...      1
Contraction scheme used                     ... SEGMENTED contraction
Prescreening option                         ... SCHWARTZ
   Thresh                                   ... 2.500e-11
   Tcut                                     ... 2.500e-12
   Tpresel                                  ... 2.500e-12 
Coulomb Range Separation                    ... NOT USED
Exchange Range Separation                   ... NOT USED
Multipole approximations                    ... NOT USED
Finite Nucleus Model                        ... NOT USED
CABS basis                                  ... NOT available
Auxiliary Coulomb fitting basis             ... AVAILABLE
   # of basis functions in Aux-J            ...    502
   # of shells in Aux-J                     ...    170
   Maximum angular momentum in Aux-J        ...      4
Auxiliary J/K fitting basis                 ... NOT available
Auxiliary Correlation fitting basis         ... NOT available
Auxiliary 'external' fitting basis          ... NOT available

Checking pre-screening integrals            ... done (  0.0 sec) Dimension = 68
Check shell pair data                       ... done (  0.0 sec)
Shell pair information
Shell pair cut-off parameter TPreSel        ...   2.5e-12
Total number of shell pairs                 ...      2346
Shell pairs after pre-screening             ...      2263
Total number of primitive shell pairs       ...      9450
Primitive shell pairs kept                  ...      6633
          la=0 lb=0:    934 shell pairs
          la=1 lb=0:    695 shell pairs
          la=1 lb=1:    136 shell pairs
          la=2 lb=0:    335 shell pairs
          la=2 lb=1:    128 shell pairs
          la=2 lb=2:     35 shell pairs

Calculating one electron integrals          ... done (  0.0 sec)
Calculating RI/J V-Matrix + Cholesky decomp.... done (  0.1 sec)
Calculating Nuclear repulsion               ... done (  0.0 sec) ENN=    342.316343785364 Eh

Diagonalization of the overlap matrix:
Smallest eigenvalue                        ... 2.889e-04
Time for diagonalization                   ...    0.002 sec
Threshold for overlap eigenvalues          ... 1.000e-07
Number of eigenvalues below threshold      ... 0
Time for construction of square roots      ...    0.024 sec
Total time needed                          ...    0.080 sec

-------------------
DFT GRID GENERATION
-------------------

General Integration Accuracy     IntAcc      ... 4.388
Radial Grid Type                 RadialGrid  ... OptM3 with GC (2021)
Angular Grid (max. ang.)         AngularGrid ... 4 (Lebedev-302)
Angular grid pruning method      GridPruning ... 4 (adaptive)
Weight generation scheme         WeightScheme... mBecke (2022)
Basis function cutoff            BFCut       ... 1.0000e-11
Integration weight cutoff        WCut        ... 1.0000e-14
Partially contracted basis set               ... off
Rotationally invariant grid construction     ... off
Angular grids for H and He will be reduced by one unit

Total number of grid points                  ...    80129
Total number of batches                      ...     1262
Average number of points per batch           ...       63
Average number of grid points per atom       ...     4452

--------------------
COSX GRID GENERATION
--------------------

GRIDX 1
-------
General Integration Accuracy     IntAcc      ... 3.816
Radial Grid Type                 RadialGrid  ... OptM3 with GC (2021)
Angular Grid (max. ang.)         AngularGrid ... 1 (Lebedev-50)
Angular grid pruning method      GridPruning ... 4 (adaptive)
Weight generation scheme         WeightScheme... mBecke (2022)
Basis function cutoff            BFCut       ... 1.0000e-11
Integration weight cutoff        WCut        ... 1.0000e-14
Partially contracted basis set               ... on
Rotationally invariant grid construction     ... off
Angular grids for H and He will be reduced by one unit

Total number of grid points                  ...    10280
Total number of batches                      ...       89
Average number of points per batch           ...      115
Average number of grid points per atom       ...      571
UseSFitting                                  ... on

GRIDX 2
-------
General Integration Accuracy     IntAcc      ... 4.020
Radial Grid Type                 RadialGrid  ... OptM3 with GC (2021)
Angular Grid (max. ang.)         AngularGrid ... 2 (Lebedev-110)
Angular grid pruning method      GridPruning ... 4 (adaptive)
Weight generation scheme         WeightScheme... mBecke (2022)
Basis function cutoff            BFCut       ... 1.0000e-11
Integration weight cutoff        WCut        ... 1.0000e-14
Partially contracted basis set               ... on
Rotationally invariant grid construction     ... off
Angular grids for H and He will be reduced by one unit

Total number of grid points                  ...    21904
Total number of batches                      ...      181
Average number of points per batch           ...      121
Average number of grid points per atom       ...     1217
UseSFitting                                  ... on

GRIDX 3
-------
General Integration Accuracy     IntAcc      ... 4.338
Radial Grid Type                 RadialGrid  ... OptM3 with GC (2021)
Angular Grid (max. ang.)         AngularGrid ... 3 (Lebedev-194)
Angular grid pruning method      GridPruning ... 4 (adaptive)
Weight generation scheme         WeightScheme... mBecke (2022)
Basis function cutoff            BFCut       ... 1.0000e-11
Integration weight cutoff        WCut        ... 1.0000e-14
Partially contracted basis set               ... on
Rotationally invariant grid construction     ... off
Angular grids for H and He will be reduced by one unit

Total number of grid points                  ...    48031
Total number of batches                      ...      385
Average number of points per batch           ...      124
Average number of grid points per atom       ...     2668
UseSFitting                                  ... on
Initializing property integral containers    ... done (  0.1 sec)

SHARK setup successfully completed in   2.5 seconds

Maximum memory used throughout the entire STARTUP-calculation: 21.5 MB


           ************************************************************
           *        Program running with 4 parallel MPI-processes     *
           *              working on a common directory               *
           ************************************************************
-------------------------------------------------------------------------------
                                 ORCA GUESS
                   Start orbitals & Density for SCF / CASSCF
-------------------------------------------------------------------------------

------------
SCF SETTINGS
------------
Hamiltonian:
 Density Functional     Method          .... DFT(GTOs)
 Exchange Functional    Exchange        .... PBE
   PBE kappa parameter   XKappa         ....  0.804000
   PBE mue parameter    XMuePBE         ....  0.219520
 Correlation Functional Correlation     .... PBE
   PBE beta parameter  CBetaPBE         ....  0.066725
 LDA part of GGA corr.  LDAOpt          .... PW91-LDA
 Gradients option       PostSCFGGA      .... off
 Hybrid DFT is turned on
   Fraction HF Exchange ScalHFX         ....  0.250000
   Scaling of DF-GGA-X  ScalDFX         ....  0.750000
   Scaling of DF-GGA-C  ScalDFC         ....  1.000000
   Scaling of DF-LDA-C  ScalLDAC        ....  1.000000
   Perturbative correction              ....  0.000000
   NL short-range parameter             ....  6.900000
 RI-approximation to the Coulomb term is turned on
   Number of AuxJ basis functions       .... 502
   RIJ-COSX (HFX calculated with COS-X)).... on


General Settings:
 Integral files         IntName         .... cs_rporg_005_ox_opt_01
 Hartree-Fock type      HFTyp           .... UHF
 Total Charge           Charge          ....    1
 Multiplicity           Mult            ....    2
 Number of Electrons    NEL             ....   57
 Basis Dimension        Dim             ....  132
 Nuclear Repulsion      ENuc            ....    342.3163437854 Eh

Convergence Acceleration:
 AO-DIIS                CNVDIIS         .... on
   Start iteration      DIISMaxIt       ....     0
   Startup error        DIISStart       ....  0.200000
   # of expansion vecs  DIISMaxEq       ....     5
   Bias factor          DIISBfac        ....   1.050
   Max. coefficient     DIISMaxC        ....  10.000
 MO-DIIS                CNVKDIIS        .... off
 Trust-Rad. Augm. Hess. CNVTRAH         .... auto
   Auto Start mean grad. ratio tolernc. ....  1.125000
   Auto Start start iteration           ....    50
   Auto Start num. interpolation iter.  ....    10
   Max. Number of Micro iterations      ....    24
   Max. Number of Macro iterations      .... Maxiter - #DIIS iter
   Number of Davidson start vectors     ....     2
   Converg. threshold    (grad. norm)   ....   1.000e-05
   Grad. Scal. Fac. for Micro threshold ....   0.100
   Minimum threshold for Micro iter.    ....   1.000e-02
   NR start threshold (gradient norm)   ....   1.000e-04
   Initial trust radius                 ....   0.400
   Minimum AH scaling param. (alpha)    ....   1.000
   Maximum AH scaling param. (alpha)    .... 1000.000
   Quad. conv. algorithm                .... NR
   White noise on init. David. guess    .... on
   Maximum white noise                  ....   0.010
   Pseudo random numbers                .... off
   Inactive MOs                         .... canonical
   Orbital update algorithm             .... Taylor
   Preconditioner                       .... Diag
   Full preconditioner red. dimension   ....   250
 SOSCF                  CNVSOSCF        .... on
   Start iteration      SOSCFMaxIt      ....   150
   Startup grad/error   SOSCFStart      ....  0.001000
   Hessian update       SOSCFHessUp     .... L-BFGS
 Level Shifting         CNVShift        .... on
   Level shift para.    LevelShift      ....    0.2500
   Turn off err/grad.   ShiftErr        ....    0.0000
 Zerner damping         CNVZerner       .... off
 Static damping         CNVDamp         .... on
   Fraction old density DampFac         ....    0.8500
   Max. Damping (<1)    DampMax         ....    0.9800
   Min. Damping (>=0)   DampMin         ....    0.0000
   Turn off err/grad.   DampErr         ....    0.0300

SCF Procedure:
 Maximum # iterations   MaxIter         ....  1500
 SCF integral mode      SCFMode         .... Direct
   Integral package                     .... SHARK and LIBINT hybrid scheme
 Reset frequency        DirectResetFreq ....    20
 Integral Threshold     Thresh          ....  2.500e-11 Eh
 Primitive CutOff       TCut            ....  2.500e-12 Eh

Convergence Tolerance:
 Convergence Check Mode ConvCheckMode   .... Total+1el-Energy
 Convergence forced     ConvForced      .... 0
 Energy Change          TolE            ....  1.000e-08 Eh
 1-El. energy change                    ....  1.000e-05 Eh
 Orbital Gradient       TolG            ....  1.000e-05
 Orbital Rotation angle TolX            ....  1.000e-05
 DIIS Error             TolErr          ....  5.000e-07

------------------------------
INITIAL GUESS: MODEL POTENTIAL
------------------------------
Loading Hartree-Fock densities                     ... done
Calculating cut-offs                               ... done
Initializing the effective Hamiltonian             ... done
Setting up the integral package (SHARK)            ... done
Starting the Coulomb interaction                   ... done (   0.1 sec)
Making the grid                                    ... done (   0.2 sec)
Mapping shells                                     ... done
Starting the XC term evaluation                    ... done (   0.1 sec)
  promolecular density results
     # of electrons  =     57.995373090
     EX              =    -43.866194688
     EC              =     -1.896952523
     EX+EC           =    -45.763147211
Transforming the Hamiltonian                       ... done (   0.0 sec)
Diagonalizing the Hamiltonian                      ... done (   0.0 sec)
Back transforming the eigenvectors                 ... done (   0.1 sec)
Now organizing SCF variables                       ... done
                      ------------------
                      INITIAL GUESS DONE (   0.7 sec)
                      ------------------
             **** ENERGY FILE WAS UPDATED (cs_rporg_005_ox_opt_01.en.tmp) ****
Finished Guess after   1.7 sec
Maximum memory used throughout the entire GUESS-calculation: 11.5 MB


           ************************************************************
           *        Program running with 4 parallel MPI-processes     *
           *              working on a common directory               *
           ************************************************************

-------------------------------------------------------------------------------------------
                                      ORCA LEAN-SCF
                              memory conserving SCF solver
-------------------------------------------------------------------------------------------

----------------------------------------D-I-I-S--------------------------------------------
Iteration    Energy (Eh)           Delta-E    RMSDP     MaxDP     DIISErr   Damp  Time(sec)
-------------------------------------------------------------------------------------------
               ***  Starting incremental Fock matrix formation  ***
    1    -309.8325768010447518     0.00e+00  8.89e-04  1.81e-02  7.18e-02  0.850   3.0
Warning: op=1 Small HOMO/LUMO gap (   0.065) - skipping pre-diagonalization
         Will do a full diagonalization
    2    -309.8599389051273647    -2.74e-02  8.40e-04  1.63e-02  5.56e-02  0.850   3.3
                               ***Turning on AO-DIIS***
    3    -309.8792301132591547    -1.93e-02  5.69e-04  8.32e-03  3.97e-02  0.850   5.6
    4    -309.8924710811147634    -1.32e-02  4.50e-04  5.78e-03  3.16e-02  0.850   3.6
    5    -309.9023031877034100    -9.83e-03  3.75e-04  4.61e-03  2.63e-02  0.850   2.5
    6    -309.9100802178860476    -7.78e-03  2.13e-03  2.63e-02  2.22e-02  0.000   2.5
    7    -309.9486064922855348    -3.85e-02  8.85e-05  2.62e-03  2.21e-03  0.000   2.3
    8    -309.9486985861299218    -9.21e-05  6.60e-05  2.23e-03  1.43e-03  0.000   2.4
                              *** Initializing SOSCF ***
---------------------------------------S-O-S-C-F--------------------------------------
Iteration    Energy (Eh)           Delta-E    RMSDP     MaxDP     MaxGrad    Time(sec)
--------------------------------------------------------------------------------------
    9    -309.9487446759210343    -4.61e-05  4.18e-05  1.65e-03  8.98e-04     2.7
               *** Restarting incremental Fock matrix formation ***
   10    -309.9488609843009499    -1.16e-04  3.39e-05  1.03e-03  4.67e-04     2.7
   11    -309.9488668668358287    -5.88e-06  4.05e-05  1.61e-03  3.08e-04     2.2
   12    -309.9488683576740868    -1.49e-06  1.70e-05  3.65e-04  2.90e-04     2.4
   13    -309.9488695720031046    -1.21e-06  6.07e-06  1.49e-04  6.85e-05     2.0
   14    -309.9488695303882650     4.16e-08  3.49e-06  8.96e-05  1.05e-04     2.2
   15    -309.9488696772409639    -1.47e-07  1.54e-06  4.04e-05  1.76e-05     2.1
   16    -309.9488696807587758    -3.52e-09  1.05e-06  4.03e-05  9.48e-06     2.0
                 **** Energy Check signals convergence ****

               *****************************************************
               *                     SUCCESS                       *
               *           SCF CONVERGED AFTER  16 CYCLES          *
               *****************************************************

Recomputing exchange energy using gridx3       ... done (    2.175 sec)
Old exchange energy                            :    -11.176453686 Eh
New exchange energy                            :    -11.176484667 Eh
Exchange energy change after final integration :     -0.000030981 Eh
Total energy after final integration           :   -309.948900662 Eh
             **** ENERGY FILE WAS UPDATED (cs_rporg_005_ox_opt_01.en.tmp) ****

----------------
TOTAL SCF ENERGY
----------------

Total Energy       :       -309.94890066181603 Eh           -8434.13837 eV

Components:
Nuclear Repulsion  :        342.31634378536364 Eh            9314.90127 eV
Electronic Energy  :       -652.26521346612253 Eh          -17749.03880 eV
One Electron Energy:      -1083.18471520152548 Eh          -29474.95458 eV
Two Electron Energy:        430.91950173540300 Eh           11725.91578 eV

Virial components:
Potential Energy   :       -617.15755830866237 Eh          -16793.71094 eV
Kinetic Energy     :        307.20865764684635 Eh            8359.57257 eV
Virial Ratio       :          2.00891981051563

DFT components:
N(Alpha)           :       29.000030492131 electrons
N(Beta)            :       28.000042561949 electrons
N(Total)           :       57.000073054081 electrons
E(X)               :      -33.386103913646 Eh       
E(C)               :       -1.872123005619 Eh       
E(XC)              :      -35.258226919265 Eh       

---------------
SCF CONVERGENCE
---------------

  Last Energy change         ...    3.5178e-09  Tolerance :   1.0000e-08
  Last MAX-Density change    ...    4.0328e-05  Tolerance :   1.0000e-07
  Last RMS-Density change    ...    1.0467e-06  Tolerance :   5.0000e-09
  Last DIIS Error            ...    8.9824e-04  Tolerance :   5.0000e-07
  Last Orbital Gradient      ...    9.4769e-06  Tolerance :   1.0000e-05
  Last Orbital Rotation      ...    5.9232e-05  Tolerance :   1.0000e-05


----------------------
UHF SPIN CONTAMINATION
----------------------

Warning: in a DFT calculation there is little theoretical justification to 
         calculate <S**2> as in Hartree-Fock theory. We will do it anyways
         but you should keep in mind that the values have only limited relevance

Expectation value of <S**2>     :     0.769615
Ideal value S*(S+1) for S=0.5   :     0.750000
Deviation                       :     0.019615

----------------
ORBITAL ENERGIES
----------------
                 SPIN UP ORBITALS
  NO   OCC          E(Eh)            E(eV) 
   0   1.0000     -10.476602      -285.0828 
   1   1.0000     -10.471923      -284.9555 
   2   1.0000     -10.464601      -284.7563 
   3   1.0000     -10.461928      -284.6835 
   4   1.0000     -10.431795      -283.8636 
   5   1.0000     -10.424820      -283.6738 
   6   1.0000     -10.395486      -282.8756 
   7   1.0000     -10.394471      -282.8479 
   8   1.0000      -1.100815       -29.9547 
   9   1.0000      -1.015290       -27.6275 
  10   1.0000      -0.987544       -26.8724 
  11   1.0000      -0.901586       -24.5334 
  12   1.0000      -0.898355       -24.4455 
  13   1.0000      -0.818322       -22.2677 
  14   1.0000      -0.787664       -21.4334 
  15   1.0000      -0.724264       -19.7082 
  16   1.0000      -0.699235       -19.0271 
  17   1.0000      -0.653562       -17.7843 
  18   1.0000      -0.638722       -17.3805 
  19   1.0000      -0.629575       -17.1316 
  20   1.0000      -0.623932       -16.9781 
  21   1.0000      -0.610420       -16.6104 
  22   1.0000      -0.591941       -16.1075 
  23   1.0000      -0.574404       -15.6303 
  24   1.0000      -0.561686       -15.2842 
  25   1.0000      -0.555749       -15.1227 
  26   1.0000      -0.548383       -14.9223 
  27   1.0000      -0.475932       -12.9508 
  28   1.0000      -0.467446       -12.7199 
  29   0.0000      -0.232376        -6.3233 
  30   0.0000      -0.201371        -5.4796 
  31   0.0000      -0.082931        -2.2567 
  32   0.0000      -0.067982        -1.8499 
  33   0.0000      -0.055010        -1.4969 
  34   0.0000      -0.054356        -1.4791 
  35   0.0000      -0.036521        -0.9938 
  36   0.0000      -0.027792        -0.7563 
  37   0.0000      -0.003517        -0.0957 
  38   0.0000       0.008859         0.2411 
  39   0.0000       0.013584         0.3696 

                 SPIN DOWN ORBITALS
  NO   OCC          E(Eh)            E(eV) 
   0   1.0000     -10.472773      -284.9786 
   1   1.0000     -10.468832      -284.8714 
   2   1.0000     -10.458188      -284.5818 
   3   1.0000     -10.456272      -284.5296 
   4   1.0000     -10.434286      -283.9313 
   5   1.0000     -10.426220      -283.7119 
   6   1.0000     -10.395493      -282.8757 
   7   1.0000     -10.394340      -282.8444 
   8   1.0000      -1.090118       -29.6636 
   9   1.0000      -1.001853       -27.2618 
  10   1.0000      -0.984906       -26.8007 
  11   1.0000      -0.899977       -24.4896 
  12   1.0000      -0.887161       -24.1409 
  13   1.0000      -0.813305       -22.1312 
  14   1.0000      -0.781157       -21.2564 
  15   1.0000      -0.720642       -19.6097 
  16   1.0000      -0.695431       -18.9236 
  17   1.0000      -0.651061       -17.7163 
  18   1.0000      -0.628356       -17.0984 
  19   1.0000      -0.619583       -16.8597 
  20   1.0000      -0.619179       -16.8487 
  21   1.0000      -0.597944       -16.2709 
  22   1.0000      -0.590958       -16.0808 
  23   1.0000      -0.572224       -15.5710 
  24   1.0000      -0.554235       -15.0815 
  25   1.0000      -0.545358       -14.8399 
  26   1.0000      -0.538919       -14.6647 
  27   1.0000      -0.462870       -12.5953 
  28   0.0000      -0.372919       -10.1477 
  29   0.0000      -0.191822        -5.2197 
  30   0.0000      -0.187040        -5.0896 
  31   0.0000      -0.081514        -2.2181 
  32   0.0000      -0.054203        -1.4750 
  33   0.0000      -0.053202        -1.4477 
  34   0.0000      -0.051165        -1.3923 
  35   0.0000      -0.035161        -0.9568 
  36   0.0000      -0.025927        -0.7055 
  37   0.0000      -0.000727        -0.0198 
  38   0.0000       0.012387         0.3371 
*Only the first 10 virtual orbitals were printed.

                    ********************************
                    * MULLIKEN POPULATION ANALYSIS *
                    ********************************

--------------------------------------------
MULLIKEN ATOMIC CHARGES AND SPIN POPULATIONS
--------------------------------------------
   0 C :   -0.023167    0.388029
   1 C :   -0.065719   -0.207073
   2 C :   -0.012294    0.438127
   3 C :    0.002639    0.206370
   4 C :   -0.288009   -0.005732
   5 H :    0.182825   -0.001416
   6 H :    0.200308    0.020613
   7 H :    0.200219    0.020601
   8 C :   -0.127390   -0.120502
   9 C :    0.007437    0.258451
  10 C :   -0.295855   -0.017042
  11 H :    0.208366    0.026771
  12 H :    0.205221    0.023480
  13 H :    0.180911   -0.000408
  14 H :    0.131866    0.002971
  15 H :    0.163383   -0.020760
  16 H :    0.165776    0.006299
  17 H :    0.163486   -0.018779
Sum of atomic charges         :    1.0000000
Sum of atomic spin populations:    1.0000000

-----------------------------------------------------
MULLIKEN REDUCED ORBITAL CHARGES AND SPIN POPULATIONS
-----------------------------------------------------
CHARGE
  0 C s       :     3.254950  s :     3.254950
      pz      :     0.812051  p :     2.730974
      px      :     0.937231
      py      :     0.981692
      dz2     :     0.003461  d :     0.037243
      dxz     :     0.003818
      dyz     :     0.004402
      dx2y2   :     0.012369
      dxy     :     0.013193

  1 C s       :     3.199522  s :     3.199522
      pz      :     0.949804  p :     2.829969
      px      :     0.953267
      py      :     0.926899
      dz2     :     0.003450  d :     0.036228
      dxz     :     0.004132
      dyz     :     0.002996
      dx2y2   :     0.014544
      dxy     :     0.011106

  2 C s       :     3.266982  s :     3.266982
      pz      :     0.797852  p :     2.707911
      px      :     0.940135
      py      :     0.969924
      dz2     :     0.003481  d :     0.037401
      dxz     :     0.003742
      dyz     :     0.004702
      dx2y2   :     0.012501
      dxy     :     0.012974

  3 C s       :     3.048144  s :     3.048144
      pz      :     0.807755  p :     2.901851
      px      :     1.072381
      py      :     1.021715
      dz2     :     0.002990  d :     0.047366
      dxz     :     0.008911
      dyz     :     0.005399
      dx2y2   :     0.016480
      dxy     :     0.013586

  4 C s       :     3.103122  s :     3.103122
      pz      :     1.099875  p :     3.154221
      px      :     0.979637
      py      :     1.074709
      dz2     :     0.005686  d :     0.030666
      dxz     :     0.007705
      dyz     :     0.003221
      dx2y2   :     0.008040
      dxy     :     0.006013

  5 H s       :     0.817175  s :     0.817175

  6 H s       :     0.799692  s :     0.799692

  7 H s       :     0.799781  s :     0.799781

  8 C s       :     3.294094  s :     3.294094
      pz      :     0.991188  p :     2.798945
      px      :     0.938296
      py      :     0.869461
      dz2     :     0.003514  d :     0.034351
      dxz     :     0.003398
      dyz     :     0.002727
      dx2y2   :     0.014009
      dxy     :     0.010704

  9 C s       :     3.057636  s :     3.057636
      pz      :     0.785581  p :     2.887589
      px      :     1.084545
      py      :     1.017464
      dz2     :     0.002990  d :     0.047338
      dxz     :     0.007917
      dyz     :     0.006373
      dx2y2   :     0.016077
      dxy     :     0.013981

 10 C s       :     3.104088  s :     3.104088
      pz      :     1.112736  p :     3.161511
      px      :     0.971168
      py      :     1.077607
      dz2     :     0.005724  d :     0.030257
      dxz     :     0.001945
      dyz     :     0.008443
      dx2y2   :     0.005128
      dxy     :     0.009018

 11 H s       :     0.791634  s :     0.791634

 12 H s       :     0.794779  s :     0.794779

 13 H s       :     0.819089  s :     0.819089

 14 H s       :     0.868134  s :     0.868134

 15 H s       :     0.836617  s :     0.836617

 16 H s       :     0.834224  s :     0.834224

 17 H s       :     0.836514  s :     0.836514


SPIN
  0 C s       :     0.050441  s :     0.050441
      pz      :     0.325147  p :     0.338059
      px      :     0.014433
      py      :    -0.001520
      dz2     :    -0.001154  d :    -0.000472
      dxz     :    -0.000531
      dyz     :     0.001218
      dx2y2   :     0.000052
      dxy     :    -0.000056

  1 C s       :    -0.041568  s :    -0.041568
      pz      :    -0.127293  p :    -0.169984
      px      :    -0.024219
      py      :    -0.018472
      dz2     :     0.000309  d :     0.004478
      dxz     :     0.004004
      dyz     :     0.000133
      dx2y2   :     0.000005
      dxy     :     0.000027

  2 C s       :     0.058128  s :     0.058128
      pz      :     0.361504  p :     0.380794
      px      :     0.016276
      py      :     0.003013
      dz2     :    -0.001292  d :    -0.000795
      dxz     :    -0.000464
      dyz     :     0.000943
      dx2y2   :     0.000051
      dxy     :    -0.000033

  3 C s       :     0.022418  s :     0.022418
      pz      :     0.183388  p :     0.182597
      px      :     0.011010
      py      :    -0.011801
      dz2     :    -0.000666  d :     0.001355
      dxz     :    -0.000275
      dyz     :     0.002228
      dx2y2   :     0.000085
      dxy     :    -0.000017

  4 C s       :    -0.005852  s :    -0.005852
      pz      :     0.011300  p :    -0.001602
      px      :    -0.009156
      py      :    -0.003746
      dz2     :     0.000073  d :     0.001722
      dxz     :     0.001742
      dyz     :    -0.000040
      dx2y2   :    -0.000018
      dxy     :    -0.000035

  5 H s       :    -0.001416  s :    -0.001416

  6 H s       :     0.020613  s :     0.020613

  7 H s       :     0.020601  s :     0.020601

  8 C s       :    -0.025766  s :    -0.025766
      pz      :    -0.072928  p :    -0.097022
      px      :    -0.012423
      py      :    -0.011671
      dz2     :     0.000158  d :     0.002287
      dxz     :     0.002119
      dyz     :     0.000074
      dx2y2   :    -0.000051
      dxy     :    -0.000014

  9 C s       :     0.029669  s :     0.029669
      pz      :     0.221948  p :     0.227432
      px      :     0.012935
      py      :    -0.007452
      dz2     :    -0.000792  d :     0.001351
      dxz     :    -0.000193
      dyz     :     0.002248
      dx2y2   :     0.000105
      dxy     :    -0.000017

 10 C s       :    -0.007978  s :    -0.007978
      pz      :     0.004354  p :    -0.011230
      px      :    -0.006796
      py      :    -0.008788
      dz2     :     0.000081  d :     0.002166
      dxz     :     0.000561
      dyz     :     0.001569
      dx2y2   :    -0.000025
      dxy     :    -0.000019

 11 H s       :     0.026771  s :     0.026771

 12 H s       :     0.023480  s :     0.023480

 13 H s       :    -0.000408  s :    -0.000408

 14 H s       :     0.002971  s :     0.002971

 15 H s       :    -0.020760  s :    -0.020760

 16 H s       :     0.006299  s :     0.006299

 17 H s       :    -0.018779  s :    -0.018779



                     *******************************
                     * LOEWDIN POPULATION ANALYSIS *
                     *******************************

-------------------------------------------
LOEWDIN ATOMIC CHARGES AND SPIN POPULATIONS
-------------------------------------------
   0 C :    0.009996    0.327869
   1 C :   -0.103860   -0.110118
   2 C :    0.021805    0.364464
   3 C :    0.056772    0.179524
   4 C :   -0.318782    0.013040
   5 H :    0.157520   -0.000706
   6 H :    0.177453    0.018133
   7 H :    0.177427    0.018129
   8 C :   -0.115526   -0.062175
   9 C :    0.071965    0.217958
  10 C :   -0.322435    0.007053
  11 H :    0.183533    0.022927
  12 H :    0.180625    0.020078
  13 H :    0.155569   -0.000222
  14 H :    0.160329    0.001150
  15 H :    0.169089   -0.010528
  16 H :    0.169476    0.002897
  17 H :    0.169042   -0.009474

----------------------------------------------------
LOEWDIN REDUCED ORBITAL CHARGES AND SPIN POPULATIONS
----------------------------------------------------
CHARGE
  0 C s       :     2.916499  s :     2.916499
      pz      :     0.807541  p :     2.983542
      px      :     1.107431
      py      :     1.068569
      dz2     :     0.007141  d :     0.089963
      dxz     :     0.006383
      dyz     :     0.008645
      dx2y2   :     0.033299
      dxy     :     0.034494

  1 C s       :     2.893546  s :     2.893546
      pz      :     0.946486  p :     3.118611
      px      :     1.076130
      py      :     1.095995
      dz2     :     0.007581  d :     0.091703
      dxz     :     0.009079
      dyz     :     0.004276
      dx2y2   :     0.038457
      dxy     :     0.032310

  2 C s       :     2.918141  s :     2.918141
      pz      :     0.791925  p :     2.970026
      px      :     1.106818
      py      :     1.071283
      dz2     :     0.007121  d :     0.090029
      dxz     :     0.006214
      dyz     :     0.009227
      dx2y2   :     0.033473
      dxy     :     0.033993

  3 C s       :     2.868732  s :     2.868732
      pz      :     0.781364  p :     2.960472
      px      :     1.100938
      py      :     1.078170
      dz2     :     0.007252  d :     0.114023
      dxz     :     0.015866
      dyz     :     0.010592
      dx2y2   :     0.043256
      dxy     :     0.037057

  4 C s       :     2.936466  s :     2.936466
      pz      :     1.128237  p :     3.310528
      px      :     1.057467
      py      :     1.124824
      dz2     :     0.013414  d :     0.071788
      dxz     :     0.017761
      dyz     :     0.005588
      dx2y2   :     0.019674
      dxy     :     0.015351

  5 H s       :     0.842480  s :     0.842480

  6 H s       :     0.822547  s :     0.822547

  7 H s       :     0.822573  s :     0.822573

  8 C s       :     2.891637  s :     2.891637
      pz      :     0.999407  p :     3.135118
      px      :     1.050001
      py      :     1.085710
      dz2     :     0.007584  d :     0.088771
      dxz     :     0.007149
      dyz     :     0.004013
      dx2y2   :     0.038655
      dxy     :     0.031369

  9 C s       :     2.871565  s :     2.871565
      pz      :     0.759450  p :     2.942901
      px      :     1.099714
      py      :     1.083737
      dz2     :     0.007206  d :     0.113570
      dxz     :     0.014601
      dyz     :     0.011875
      dx2y2   :     0.042106
      dxy     :     0.037781

 10 C s       :     2.936247  s :     2.936247
      pz      :     1.135560  p :     3.315122
      px      :     1.059881
      py      :     1.119681
      dz2     :     0.013393  d :     0.071066
      dxz     :     0.003890
      dyz     :     0.018451
      dx2y2   :     0.012390
      dxy     :     0.022942

 11 H s       :     0.816467  s :     0.816467

 12 H s       :     0.819375  s :     0.819375

 13 H s       :     0.844431  s :     0.844431

 14 H s       :     0.839671  s :     0.839671

 15 H s       :     0.830911  s :     0.830911

 16 H s       :     0.830524  s :     0.830524

 17 H s       :     0.830958  s :     0.830958


SPIN
  0 C s       :     0.010672  s :     0.010672
      pz      :     0.308581  p :     0.317852
      px      :     0.007249
      py      :     0.002021
      dz2     :    -0.001201  d :    -0.000655
      dxz     :    -0.001100
      dyz     :     0.002087
      dx2y2   :    -0.000085
      dxy     :    -0.000356

  1 C s       :    -0.006607  s :    -0.006607
      pz      :    -0.101457  p :    -0.114422
      px      :    -0.008480
      py      :    -0.004485
      dz2     :     0.000454  d :     0.010911
      dxz     :     0.008861
      dyz     :     0.000652
      dx2y2   :     0.000305
      dxy     :     0.000639

  2 C s       :     0.012267  s :     0.012267
      pz      :     0.342334  p :     0.353651
      px      :     0.007862
      py      :     0.003454
      dz2     :    -0.001348  d :    -0.001454
      dxz     :    -0.001105
      dyz     :     0.001521
      dx2y2   :    -0.000156
      dxy     :    -0.000366

  3 C s       :     0.004806  s :     0.004806
      pz      :     0.170332  p :     0.171599
      px      :     0.003575
      py      :    -0.002309
      dz2     :    -0.000659  d :     0.003118
      dxz     :    -0.000680
      dyz     :     0.004360
      dx2y2   :     0.000219
      dxy     :    -0.000122

  4 C s       :    -0.001198  s :    -0.001198
      pz      :     0.015797  p :     0.010134
      px      :    -0.004552
      py      :    -0.001111
      dz2     :     0.000169  d :     0.004104
      dxz     :     0.003763
      dyz     :     0.000061
      dx2y2   :    -0.000007
      dxy     :     0.000118

  5 H s       :    -0.000706  s :    -0.000706

  6 H s       :     0.018133  s :     0.018133

  7 H s       :     0.018129  s :     0.018129

  8 C s       :    -0.003841  s :    -0.003841
      pz      :    -0.056634  p :    -0.064128
      px      :    -0.005030
      py      :    -0.002464
      dz2     :     0.000241  d :     0.005794
      dxz     :     0.004825
      dyz     :     0.000389
      dx2y2   :     0.000019
      dxy     :     0.000321

  9 C s       :     0.006294  s :     0.006294
      pz      :     0.205468  p :     0.208836
      px      :     0.004437
      py      :    -0.001069
      dz2     :    -0.000797  d :     0.002829
      dxz     :    -0.000582
      dyz     :     0.004206
      dx2y2   :     0.000171
      dxy     :    -0.000169

 10 C s       :    -0.001718  s :    -0.001718
      pz      :     0.010777  p :     0.003623
      px      :    -0.003208
      py      :    -0.003946
      dz2     :     0.000212  d :     0.005149
      dxz     :     0.001451
      dyz     :     0.003308
      dx2y2   :     0.000053
      dxy     :     0.000124

 11 H s       :     0.022927  s :     0.022927

 12 H s       :     0.020078  s :     0.020078

 13 H s       :    -0.000222  s :    -0.000222

 14 H s       :     0.001150  s :     0.001150

 15 H s       :    -0.010528  s :    -0.010528

 16 H s       :     0.002897  s :     0.002897

 17 H s       :    -0.009474  s :    -0.009474



                      *****************************
                      * MAYER POPULATION ANALYSIS *
                      *****************************

  NA   - Mulliken gross atomic population
  ZA   - Total nuclear charge
  QA   - Mulliken gross atomic charge
  VA   - Mayer's total valence
  BVA  - Mayer's bonded valence
  FA   - Mayer's free valence

  ATOM       NA         ZA         QA         VA         BVA        FA
  0 C      6.0232     6.0000    -0.0232     3.7981     3.6892     0.1090
  1 C      6.0657     6.0000    -0.0657     3.8303     3.8121     0.0182
  2 C      6.0123     6.0000    -0.0123     3.7605     3.6261     0.1344
  3 C      5.9974     6.0000     0.0026     3.9476     3.9121     0.0355
  4 C      6.2880     6.0000    -0.2880     3.8605     3.8599     0.0005
  5 H      0.8172     1.0000     0.1828     0.9524     0.9524     0.0000
  6 H      0.7997     1.0000     0.2003     0.9354     0.9350     0.0004
  7 H      0.7998     1.0000     0.2002     0.9354     0.9350     0.0004
  8 C      6.1274     6.0000    -0.1274     3.8428     3.8367     0.0061
  9 C      5.9926     6.0000     0.0074     3.9279     3.8764     0.0515
 10 C      6.2959     6.0000    -0.2959     3.8573     3.8568     0.0005
 11 H      0.7916     1.0000     0.2084     0.9342     0.9335     0.0007
 12 H      0.7948     1.0000     0.2052     0.9358     0.9353     0.0006
 13 H      0.8191     1.0000     0.1809     0.9518     0.9518     0.0000
 14 H      0.8681     1.0000     0.1319     0.9687     0.9687     0.0000
 15 H      0.8366     1.0000     0.1634     0.9518     0.9514     0.0004
 16 H      0.8342     1.0000     0.1658     0.9435     0.9434     0.0000
 17 H      0.8365     1.0000     0.1635     0.9531     0.9528     0.0004

  Mayer bond orders larger than 0.100000
B(  0-C ,  1-C ) :   1.3986 B(  0-C ,  9-C ) :   1.1799 B(  0-C , 17-H ) :   0.9510 
B(  1-C ,  2-C ) :   1.3755 B(  1-C , 16-H ) :   0.9564 B(  2-C ,  3-C ) :   1.1393 
B(  2-C , 15-H ) :   0.9573 B(  3-C ,  4-C ) :   1.1182 B(  3-C ,  8-C ) :   1.4291 
B(  3-C ,  9-C ) :   0.1077 B(  4-C ,  5-H ) :   0.9358 B(  4-C ,  6-H ) :   0.8979 
B(  4-C ,  7-H ) :   0.8979 B(  8-C ,  9-C ) :   1.3457 B(  8-C , 14-H ) :   0.9639 
B(  9-C , 10-C ) :   1.1215 B( 10-C , 11-H ) :   0.8942 B( 10-C , 12-H ) :   0.8995 
B( 10-C , 13-H ) :   0.9350 

-------
TIMINGS
-------

Total SCF time: 0 days 0 hours 0 min 47 sec 

Total time                  ....      47.550 sec
Sum of individual times     ....      46.308 sec  ( 97.4%)

SCF preparation             ....       0.814 sec  (  1.7%)
Fock matrix formation       ....      34.208 sec  ( 71.9%)
  Startup                   ....       2.583 sec  (  7.6% of F)
  Split-RI-J                ....       4.378 sec  ( 12.8% of F)
  Chain of spheres X        ....      15.489 sec  ( 45.3% of F)
  XC integration            ....       7.276 sec  ( 21.3% of F)
    XC Preparation          ....       0.000 sec  (  0.0% of XC)
    Basis function eval.    ....       1.510 sec  ( 20.8% of XC)
    Density eval.           ....       1.065 sec  ( 14.6% of XC)
    XC-Functional eval.     ....       0.415 sec  (  5.7% of XC)
    XC-Potential eval.      ....       1.337 sec  ( 18.4% of XC)
Diagonalization             ....       0.000 sec  (  0.0%)
Density matrix formation    ....       3.836 sec  (  8.1%)
Total Energy calculation    ....       1.307 sec  (  2.7%)
Population analysis         ....       0.315 sec  (  0.7%)
Orbital Transformation      ....       0.573 sec  (  1.2%)
Orbital Orthonormalization  ....       0.000 sec  (  0.0%)
DIIS solution               ....       3.839 sec  (  8.1%)
SOSCF solution              ....       1.417 sec  (  3.0%)
Finished LeanSCF after  47.8 sec

Maximum memory used throughout the entire LEANSCF-calculation: 16.4 MB


           ************************************************************
           *        Program running with 4 parallel MPI-processes     *
           *              working on a common directory               *
           ************************************************************

------------------------------------------------------------------------------
                         ORCA PROPERTY INTEGRAL CALCULATIONS
------------------------------------------------------------------------------

GBWName                                   ... cs_rporg_005_ox_opt_01.gbw
Number of atoms                           ...     18
Number of basis functions                 ...    132
Max core memory                           ...   3000 MB

Dipole integrals                          ... YES
Quadrupole integrals                      ...  NO
Linear momentum integrals                 ...  NO
Angular momentum integrals                ...  NO
Higher moments length integrals           ...  NO
Higher moments velocity integrals         ...  NO
Kinetic energy integrals                  ...  NO
GIAO right hand sides                     ...  NO
GIAO dipole derivative integrals          ...  NO
SOC integrals                             ...  NO
EPR diamagnetic integrals (GIAO)          ...  NO
EPR gauge integrals                       ...  NO
Field gradient integrals                  ...  NO (   0 nuclei)
Spin-dipole/Fermi contact integrals       ...  NO (   0 nuclei)
Contact density integrals                 ...  NO (   0 nuclei)
Nucleus-orbit integrals                   ...  NO (   0 nuclei)
Geometric perturbations                   ...  NO (  18 nuclei)

Choice of electric origin   ... Center of mass
Position of electric origin ... ( -0.0048,  0.0116,  0.0012) 
Choice of magnetic origin   ... GIAO
Position of magnetic origin ... (  0.0000,  0.0000,  0.0000) 

Calculating integrals                     ... Electric Dipole (Length)     done (  0.0 sec)

Property integrals calculated in   0.0 sec

Maximum memory used throughout the entire PROPINT-calculation: 9.0 MB


-------------------------------------------------------------------------------
                          DFT DISPERSION CORRECTION                            
                                                                               
                              DFTD3 V3.1  Rev 1                                
                          USING Becke-Johnson damping                          
-------------------------------------------------------------------------------
The PBE0 functional is recognized
Active option DFTDOPT                   ...         4   

molecular C6(AA) [au] = 3160.028104 


            DFT-D V3
 parameters
 s6 scaling factor         :     1.0000 
 a1 scaling factor         :     0.4145 
 s8 scaling factor         :     1.2177 
 a2 scaling factor         :     4.8593 
 ad hoc parameters k1-k3   :    16.0000     1.3333    -4.0000 

 Edisp/kcal,au: -9.495500576111  -0.015132041755 
 E6   /kcal   :  -5.976950822 
 E8   /kcal   :  -3.518549754 
 % E8         :  37.054915912 

-------------------------   ----------------
Dispersion correction           -0.015132042
-------------------------   ----------------


-------------------------   --------------------
FINAL SINGLE POINT ENERGY      -309.964032703571
-------------------------   --------------------



           ************************************************************
           *        Program running with 4 parallel MPI-processes     *
           *              working on a common directory               *
           ************************************************************
------------------------------------------------------------------------------
                         ORCA SCF GRADIENT CALCULATION
------------------------------------------------------------------------------

Nuc. rep. gradient        (SHARK) ... done (  0.0 sec)
HCore & Overlap gradient  (SHARK) ... done (  0.1 sec)
Split-RIJ-J gradient      (SHARK) ... done (  0.4 sec)
COSX-gradient                     ... done (  9.6 sec)
XC gradient                       ... done (  2.7 sec)
Dispersion correction             ... done (  0.1 sec)

-------------------
DISPERSION GRADIENT
-------------------

   1   C   :   -0.000138916   -0.000210822    0.000000156
   2   C   :   -0.000000556   -0.000313831   -0.000000178
   3   C   :    0.000141830   -0.000200171   -0.000000123
   4   C   :    0.000225558    0.000060705    0.000000173
   5   C   :    0.000256522    0.000133859   -0.000000034
   6   H   :    0.000101511    0.000107846   -0.000000008
   7   H   :    0.000139887    0.000045437    0.000046653
   8   H   :    0.000139839    0.000045508   -0.000046788
   9   C   :   -0.000007593    0.000170855    0.000000781
  10   C   :   -0.000225027    0.000057241    0.000000317
  11   C   :   -0.000257064    0.000132061    0.000000162
  12   H   :   -0.000118051    0.000091955   -0.000049009
  13   H   :   -0.000115161    0.000094854    0.000045244
  14   H   :   -0.000142098    0.000023649    0.000002226
  15   H   :   -0.000002258    0.000174559    0.000000732
  16   H   :    0.000118468   -0.000121528   -0.000000216
  17   H   :    0.000001224   -0.000165437   -0.000000167
  18   H   :   -0.000118115   -0.000126740    0.000000079

Difference to translation invariance:
           :    0.0000000000    0.0000000000   -0.0000000000

Difference to rotation invariance:
           :   -0.0000000000    0.0000000000    0.0000000000

Norm of the Dispersion gradient    ...    0.0008851370
RMS gradient                       ...    0.0001204519
MAX gradient                       ...    0.0003138310

------------------
CARTESIAN GRADIENT
------------------

   1   C   :   -0.008485320    0.006832553    0.000042122
   2   C   :    0.001986446    0.000829522    0.000042533
   3   C   :    0.007373658    0.005177363    0.000015379
   4   C   :   -0.000393349   -0.011137101    0.000031292
   5   C   :    0.004985498    0.002217510   -0.000004310
   6   H   :   -0.000382947   -0.008978829   -0.000012957
   7   H   :   -0.004714753    0.001553206   -0.007747790
   8   H   :   -0.004700878    0.001544398    0.007749107
   9   C   :   -0.002201854    0.003090226    0.000000364
  10   C   :    0.000744402   -0.009584208   -0.000054262
  11   C   :   -0.003820805    0.001546497   -0.000119600
  12   H   :    0.001199043   -0.004017150    0.008000175
  13   H   :    0.000933672   -0.004664716   -0.007420109
  14   H   :    0.007922420    0.004380165   -0.000451802
  15   H   :   -0.000207621   -0.009991771   -0.000065033
  16   H   :   -0.009079609    0.005528435   -0.000013120
  17   H   :   -0.000048942    0.010360064    0.000017257
  18   H   :    0.008890940    0.005313837   -0.000009247

Difference to translation invariance:
           :   -0.0000000000   -0.0000000000    0.0000000000

Difference to rotation invariance:
           :    0.0000095681   -0.0000191698   -0.0001646587

Norm of the Cartesian gradient     ...    0.0374322453
RMS gradient                       ...    0.0050938834
MAX gradient                       ...    0.0111371006

-------
TIMINGS
-------

Total SCF gradient time     ....       12.893 sec

Densities                   ....       0.000 sec  (  0.0%)
One electron gradient       ....       0.059 sec  (  0.5%)
RI-J Coulomb gradient       ....       0.445 sec  (  3.4%)
COSX gradient               ....       9.605 sec  ( 74.5%)
XC gradient                 ....       2.706 sec  ( 21.0%)

Maximum memory used throughout the entire SCFGRAD-calculation: 28.8 MB
------------------------------------------------------------------------------
                         ORCA GEOMETRY RELAXATION STEP
------------------------------------------------------------------------------

Reading the OPT-File                    .... done
Getting information on internals        .... done
Copying old internal coords+grads       .... done
Making the new internal coordinates     .... (2022 redundants) done
Validating the new internal coordinates .... (2022 redundants) done
Calculating the B-matrix                .... done
Calculating the G,G- and P matrices     .... done
Transforming gradient to internals      .... done
Projecting the internal gradient        .... done
Number of atoms                         ....  18
Number of internal coordinates          ....  82
Current Energy                          ....  -309.964032704 Eh
Current gradient norm                   ....     0.037432245 Eh/bohr
Maximum allowed component of the step   ....  0.300
Current trust radius                    ....  0.300
Evaluating the initial hessian          ....  (Almloef) done
Projecting the Hessian                  .... done
Forming the augmented Hessian           .... done
Diagonalizing the augmented Hessian     .... done
Last element of RFO vector              ....  0.995089938
Lowest eigenvalues of augmented Hessian:
 -0.004061323  0.015731566  0.015768268  0.020426103  0.021261559
Length of the computed step             ....  0.099463188
The final length of the internal step   ....  0.099463188
Converting the step to Cartesian space:
 Initial RMS(Int)=    0.0109838717
Transforming coordinates:
 Iter   0:  RMS(Cart)=    0.0213233308 RMS(Int)=    1.2017219479
done
Storing new coordinates                 .... done

                                .--------------------.
          ----------------------|Geometry convergence|-------------------------
          Item                value                   Tolerance       Converged
          ---------------------------------------------------------------------
          RMS gradient        0.0046183096            0.0001000000      NO
          MAX gradient        0.0172663005            0.0003000000      NO
          RMS step            0.0109838717            0.0020000000      NO
          MAX step            0.0320993519            0.0040000000      NO
          ........................................................
          Max(Bonds)      0.0170      Max(Angles)    0.49
          Max(Dihed)        0.37      Max(Improp)    0.00
          ---------------------------------------------------------------------

The optimization has not yet converged - more geometry cycles are needed


    ---------------------------------------------------------------------------
                         Redundant Internal Coordinates
                            (Angstroem and degrees)

        Definition                    Value    dE/dq     Step     New-Value
    ----------------------------------------------------------------------------
[...]
     25      -0.000472  -0.003020   0.003469   0.000015   0.088171   0.003249
     26      -0.000005  -0.000212   0.000235   0.000008   0.005984   0.000220
     27      -0.001487   0.001626  -0.000049   0.000142  -0.003435  -0.000199
     28       0.000058  -0.000014  -0.001596   0.001665  -0.001643   0.001209
     29      -0.000027   0.000035  -0.000110   0.000116  -0.000176   0.000078
     30      -0.014358   0.020542   0.000501  -0.000610   0.000423  -0.000080
     31      -0.052259   0.072092   0.000862  -0.000950   0.001948  -0.000219
     32      -0.003879   0.005368   0.000065  -0.000076   0.000145  -0.000017
     33       0.062519  -0.089294  -0.002669   0.003456  -0.000857   0.000585
     34       0.022817  -0.033280  -0.000345   0.000304  -0.001300  -0.000124
     35       0.104850  -0.149241  -0.003383   0.004241  -0.002865   0.000472
     36       0.053400  -0.073295  -0.001421   0.001671   0.000172   0.000615
     37       0.552616  -0.758991  -0.006763   0.007609  -0.021481   0.001150
     38       0.041287  -0.056712  -0.000520   0.000587  -0.001560   0.000096
     39       0.069066  -0.098524  -0.002906   0.003706  -0.001031   0.000622
     40       0.038926  -0.056152  -0.000859   0.000930  -0.001745  -0.000050
     41      -0.100193   0.142367   0.003267  -0.004056   0.002664  -0.000471
     42       0.002878  -0.000515   0.000086   0.000253   0.001890   0.000065
     43       0.004746   0.030416  -0.045063  -0.000145  -0.991703  -0.033628
     44       0.000356   0.002072  -0.003059  -0.000008  -0.067295  -0.002283
     45      -0.010033  -0.005867   0.579330   0.613346  -0.018717  -0.213542
     46       0.004900   0.002677  -0.322114  -0.340193   0.010868   0.115120
     47       0.000147   0.000073  -0.011248  -0.011849   0.000395   0.003903
     48      -0.000011   0.000004  -0.000662  -0.003951   0.000090  -0.001748
     49      -0.000158  -0.000842   0.344283  -0.001386  -0.047182   0.932149
     50      -0.000009  -0.000058   0.023293  -0.000167  -0.003190   0.063073
     51      -0.007669   0.008713  -0.572800   0.616775   0.018263   0.212954
     52      -0.003826   0.004105  -0.320262   0.344010   0.010670   0.115446
     53      -0.000402   0.000436  -0.032191   0.034604   0.001059   0.011724


-----------
IR SPECTRUM
-----------

 Mode   freq       eps      Int      T**2         TX        TY        TZ
       cm**-1   L/(mol*cm) km/mol    a.u.
----------------------------------------------------------------------------
  6:     90.12   0.001169    5.91  0.004049  ( 0.001093  0.004436 -0.063471)
  7:     96.73   0.000022    0.11  0.000072  (-0.000649 -0.001401  0.008349)
  8:    170.14   0.000044    0.22  0.000081  ( 0.000286  0.000460 -0.008990)
  9:    173.14   0.000000    0.00  0.000000  (-0.000067 -0.000027 -0.000023)
 10:    280.60   0.000022    0.11  0.000024  ( 0.000048  0.004881  0.000395)
 11:    372.51   0.000005    0.03  0.000005  (-0.000036  0.000098 -0.002126)
 12:    403.17   0.000598    3.02  0.000463  (-0.021502 -0.000005 -0.000533)
 13:    415.47   0.004960   25.07  0.003726  (-0.061022 -0.000047 -0.001358)
 14:    507.38   0.000000    0.00  0.000000  ( 0.000035 -0.000024  0.000119)
 15:    532.89   0.000002    0.01  0.000001  (-0.000009  0.000972 -0.000187)
 16:    572.56   0.005247   26.52  0.002860  ( 0.000838  0.003630 -0.053347)
 17:    722.83   0.000000    0.00  0.000000  ( 0.000034  0.000192 -0.000034)
 18:    781.77   0.003026   15.29  0.001208  (-0.000971 -0.002361  0.034660)
 19:    887.97   0.000002    0.01  0.000001  ( 0.000316  0.000049 -0.000761)
 20:    896.97   0.007852   39.68  0.002732  ( 0.052255  0.000087  0.001028)
 21:    923.75   0.000000    0.00  0.000000  ( 0.000099 -0.000047  0.000038)
 22:    980.90   0.000026    0.13  0.000008  ( 0.000045  0.002859  0.000237)
 23:   1010.54   0.000078    0.40  0.000024  ( 0.000063 -0.004921  0.000047)
 24:   1018.03   0.002074   10.48  0.000636  ( 0.001000 -0.001677  0.025139)
 25:   1021.17   0.004044   20.44  0.001236  ( 0.035151  0.000059  0.000471)
 26:   1022.82   0.000021    0.11  0.000006  (-0.002522 -0.000188  0.000120)
 27:   1029.96   0.003077   15.55  0.000932  (-0.000309 -0.002091  0.030461)
 28:   1111.98   0.011052   55.85  0.003102  ( 0.055682  0.000150  0.001074)
 29:   1141.32   0.001249    6.31  0.000341  ( 0.000391 -0.018432 -0.001250)
 30:   1187.31   0.008347   42.18  0.002194  (-0.046828 -0.000090 -0.000961)
 31:   1300.56   0.011822   59.74  0.002837  (-0.053248  0.000015 -0.001097)
 32:   1310.20   0.000002    0.01  0.000001  ( 0.000036 -0.000728 -0.000055)
 33:   1363.86   0.034299  173.33  0.007848  (-0.088564 -0.000017 -0.002091)
 34:   1372.33   0.000056    0.28  0.000013  (-0.000410 -0.003551 -0.000135)
 35:   1410.86   0.000293    1.48  0.000065  (-0.008045 -0.000021  0.000384)
 36:   1426.19   0.000269    1.36  0.000059  ( 0.000324  0.001555 -0.007511)
 37:   1426.90   0.008219   41.53  0.001797  (-0.000801 -0.003146  0.042272)
 38:   1439.66   0.001426    7.21  0.000309  (-0.000016  0.017470  0.001962)
 39:   1449.28   0.003631   18.35  0.000782  ( 0.027957  0.000105  0.000436)
 40:   1465.73   0.018902   95.52  0.004024  ( 0.063421  0.000053  0.001491)
 41:   1530.82   0.005172   26.14  0.001054  ( 0.001789  0.032342  0.002253)
 42:   1541.30   0.078803  398.24  0.015955  (-0.126292  0.000434 -0.002274)
 43:   1609.96   0.001613    8.15  0.000313  (-0.000211 -0.017640 -0.001199)
 44:   3009.28   0.024639  124.52  0.002555  ( 0.050533  0.000040  0.001240)
 45:   3013.80   0.001316    6.65  0.000136  ( 0.000007  0.011650  0.000758)
 46:   3081.46   0.002345   11.85  0.000237  (-0.000472 -0.001056  0.015365)
 47:   3082.35   0.000004    0.02  0.000000  ( 0.000158 -0.000030  0.000654)
 48:   3180.52   0.004021   20.32  0.000395  ( 0.019849  0.000591  0.000419)
 49:   3181.19   0.000221    1.12  0.000022  (-0.003152  0.003431  0.000124)
 50:   3214.92   0.000199    1.00  0.000019  ( 0.000018 -0.004380 -0.000302)
 51:   3218.81   0.000239    1.21  0.000023  ( 0.004810  0.000029  0.000094)
 52:   3222.98   0.000282    1.42  0.000027  (-0.000001 -0.005208 -0.000393)
 53:   3240.84   0.001585    8.01  0.000153  (-0.000019  0.012322  0.000873)

* The epsilon (eps) is given for a Dirac delta lineshape.
** The dipole moment derivative (T) already includes vibrational overlap.

The first frequency considered to be a vibration is 6
The total number of vibrations considered is 48


--------------------------
THERMOCHEMISTRY AT 298.15K
--------------------------

Temperature         ...   298.15 K
Pressure            ...     1.00 atm
Total Mass          ...   106.17 AMU
Quasi RRHO          ...     True
Cut-Off Frequency   ...     1.00 cm^-1

Throughout the following assumptions are being made:
  (1) The electronic state is orbitally nondegenerate
      but the spin degeneracy is treated
  (2) There are no thermally accessible electronically excited states
  (3) Hindered rotations indicated by low frequency modes are not
      treated as such but are treated as vibrations and this may
      cause some error
  (4) All equations used are the standard statistical mechanics
      equations for an ideal gas
  (5) All vibrations are strictly harmonic

freq.      90.12  E(vib)   ...       0.47 
freq.      96.73  E(vib)   ...       0.46 
freq.     170.14  E(vib)   ...       0.38 
freq.     173.14  E(vib)   ...       0.38 
freq.     280.60  E(vib)   ...       0.28 
freq.     372.51  E(vib)   ...       0.21 
freq.     403.17  E(vib)   ...       0.19 
freq.     415.47  E(vib)   ...       0.18 
freq.     507.38  E(vib)   ...       0.14 
freq.     532.89  E(vib)   ...       0.13 
freq.     572.56  E(vib)   ...       0.11 
freq.     722.83  E(vib)   ...       0.07 
freq.     781.77  E(vib)   ...       0.05 
freq.     887.97  E(vib)   ...       0.04 
freq.     896.97  E(vib)   ...       0.03 
freq.     923.75  E(vib)   ...       0.03 
freq.     980.90  E(vib)   ...       0.02 
freq.    1010.54  E(vib)   ...       0.02 
freq.    1018.03  E(vib)   ...       0.02 
freq.    1021.17  E(vib)   ...       0.02 
freq.    1022.82  E(vib)   ...       0.02 
freq.    1029.96  E(vib)   ...       0.02 
freq.    1111.98  E(vib)   ...       0.01 
freq.    1141.32  E(vib)   ...       0.01 
freq.    1187.31  E(vib)   ...       0.01 
freq.    1300.56  E(vib)   ...       0.01 
freq.    1310.20  E(vib)   ...       0.01 
freq.    1363.86  E(vib)   ...       0.01 
freq.    1372.33  E(vib)   ...       0.01 
freq.    1410.86  E(vib)   ...       0.00 
freq.    1426.19  E(vib)   ...       0.00 
freq.    1426.90  E(vib)   ...       0.00 
freq.    1439.66  E(vib)   ...       0.00 
freq.    1449.28  E(vib)   ...       0.00 
freq.    1465.73  E(vib)   ...       0.00 
freq.    1530.82  E(vib)   ...       0.00 
freq.    1541.30  E(vib)   ...       0.00 
freq.    1609.96  E(vib)   ...       0.00 
freq.    3009.28  E(vib)   ...       0.00 
freq.    3013.80  E(vib)   ...       0.00 
freq.    3081.46  E(vib)   ...       0.00 
freq.    3082.35  E(vib)   ...       0.00 
freq.    3180.52  E(vib)   ...       0.00 
freq.    3181.19  E(vib)   ...       0.00 
freq.    3214.92  E(vib)   ...       0.00 
freq.    3218.81  E(vib)   ...       0.00 
freq.    3222.98  E(vib)   ...       0.00 
freq.    3240.84  E(vib)   ...       0.00 

------------
INNER ENERGY
------------

The inner energy is: U= E(el) + E(ZPE) + E(vib) + E(rot) + E(trans)
    E(el)   - is the total energy from the electronic structure calculation
              = E(kin-el) + E(nuc-el) + E(el-el) + E(nuc-nuc)
    E(ZPE)  - the the zero temperature vibrational energy from the frequency calculation
    E(vib)  - the the finite temperature correction to E(ZPE) due to population
              of excited vibrational states
    E(rot)  - is the rotational thermal energy
    E(trans)- is the translational thermal energy

Summary of contributions to the inner energy U:
Electronic energy                ...   -309.96746408 Eh
Zero point energy                ...      0.15365293 Eh      96.42 kcal/mol
Thermal vibrational correction   ...      0.00539570 Eh       3.39 kcal/mol
Thermal rotational correction    ...      0.00141627 Eh       0.89 kcal/mol
Thermal translational correction ...      0.00141627 Eh       0.89 kcal/mol
-----------------------------------------------------------------------
Total thermal energy                   -309.80558291 Eh


Summary of corrections to the electronic energy:
(perhaps to be used in another calculation)
Total thermal correction                  0.00822824 Eh       5.16 kcal/mol
Non-thermal (ZPE) correction              0.15365293 Eh      96.42 kcal/mol
-----------------------------------------------------------------------
Total correction                          0.16188117 Eh     101.58 kcal/mol


--------
ENTHALPY
--------

The enthalpy is H = U + kB*T
                kB is Boltzmann's constant
Total thermal energy              ...   -309.80558291 Eh 
Thermal Enthalpy correction       ...      0.00094421 Eh       0.59 kcal/mol
-----------------------------------------------------------------------
Total Enthalpy                    ...   -309.80463870 Eh


Note: Only C1 symmetry has been detected, increase convergence thresholds 
      if your molecule has a higher symmetry. Symmetry factor of 1.0 is   
      used for the rotational entropy correction. 
 

Note: Rotational entropy computed according to Herzberg 
Infrared and Raman Spectra, Chapter V,1, Van Nostrand Reinhold, 1945 
Point Group:  C1, Symmetry Number:   1  
Rotational constants in cm-1:     0.117442     0.059099     0.039898 

Vibrational entropy computed according to the QRRHO of S. Grimme
Chem.Eur.J. 2012 18 9955 using a reference frequency of 100.0 cm-1


-------
ENTROPY
-------

The entropy contributions are T*S = T*(S(el)+S(vib)+S(rot)+S(trans))
     S(el)   - electronic entropy
     S(vib)  - vibrational entropy
     S(rot)  - rotational entropy
     S(trans)- translational entropy
The entropies will be listed as multiplied by the temperature to get
units of energy

Electronic entropy                ...      0.00065446 Eh      0.41 kcal/mol
Vibrational entropy               ...      0.00914408 Eh      5.74 kcal/mol
Rotational entropy                ...      0.01337806 Eh      8.39 kcal/mol
Translational entropy             ...      0.01895601 Eh     11.90 kcal/mol
-----------------------------------------------------------------------
Final entropy term                ...      0.04213261 Eh     26.44 kcal/mol

In case the symmetry of your molecule has not been determined correctly
or in case you have a reason to use a different symmetry number we print 
out the resulting rotational entropy values for sn=1,12:

 non-linear molecules -----------------------------------
|  sn= 1 | S(rot)=       0.01337806 Eh      8.39 kcal/mol|
|  sn= 2 | S(rot)=       0.01272361 Eh      7.98 kcal/mol|
|  sn= 3 | S(rot)=       0.01234078 Eh      7.74 kcal/mol|
|  sn= 4 | S(rot)=       0.01206915 Eh      7.57 kcal/mol|
|  sn= 5 | S(rot)=       0.01185846 Eh      7.44 kcal/mol|
|  sn= 6 | S(rot)=       0.01168632 Eh      7.33 kcal/mol|
|  sn= 7 | S(rot)=       0.01154077 Eh      7.24 kcal/mol|
|  sn= 8 | S(rot)=       0.01141469 Eh      7.16 kcal/mol|
|  sn= 9 | S(rot)=       0.01130349 Eh      7.09 kcal/mol|
|  sn=10 | S(rot)=       0.01120401 Eh      7.03 kcal/mol|
|  sn=11 | S(rot)=       0.01111402 Eh      6.97 kcal/mol|
|  sn=12 | S(rot)=       0.01103186 Eh      6.92 kcal/mol|
 linear molecules ---------------------------------------
|  Dinfh | S(rot)=       0.00836741 Eh      5.25 kcal/mol|
|  Cinfv | S(rot)=       0.00902186 Eh      5.66 kcal/mol|
 --------------------------------------------------------


-------------------
GIBBS FREE ENERGY
-------------------

The Gibbs free energy is G = H - T*S

Total enthalpy                    ...   -309.80463870 Eh 
Total entropy correction          ...     -0.04213261 Eh    -26.44 kcal/mol
-----------------------------------------------------------------------
Final Gibbs free energy         ...   -309.84677131 Eh

For completeness - the Gibbs free energy minus the electronic energy
G-E(el)                           ...      0.12069277 Eh     75.74 kcal/mol


Maximum memory used throughout the entire PROP-calculation: 74.1 MB

--------------------------------
SUGGESTED CITATIONS FOR THIS RUN
--------------------------------

Below you find a list of papers that are relevant to this ORCA run
We neither can nor want to force you to cite these papers, but we appreciate if you do
You receive ORCA, which is the product of decades of hard work by many enthusiastic individuals, for free
The only thing we kindly ask in return is that you cite our papers,
We deeply appreciate it, if you show your appreciation for ORCA by not just citing the generic ORCA reference.

Please note that relegating all ORCA citations to the supporting information does *not* help us.
SI sections are not indexed - citations you put there will not count into any citation statistics
But we need these citations in order to attract the funding resources that allow us to do what we are doing

Therefore, if you are a happy ORCA user, please consider citing a few of the papers listed below in the main body of your paper

In addition to the list printed below, the program has created the file cs_rporg_005_ox_opt_01.bibtex that contains the list in bibtex format
You can import this file easily into all common literature databanks and citation aid programs


List of essential papers. We consider these as the minimum necessary citations

  1. Neese,F.
     Software update: the ORCA program system, version 5.0
     WIRES Comput. Molec. Sci., 2022 12(1)e1606
     doi.org/10.1002/wcms.1606

List of papers to cite with high priority. The work reported in these papers was absolutely
necessary for this run to complete.
Our perspective: the developers of density functionals and basis sets usually get cited in chemistry papers
Good! But without the algorithms to do something with them, the functionals or basis sets would not do anything.
Hence, in our opinion, the algorithm design and method developments papers are equally worthy of getting cited

  1. Neese,F.
     An improvement of the resolution of the identity approximation for the formation of the Coulomb matrix
     J. Comp. Chem., 2003 24(14)1740-1747
     doi.org/10.1002/jcc.10318
  2. Neese,F.; Wennmohs,F.; Hansen,A.; Becker,U.
     Efficient, approximate and parallel Hartree-Fock and hybrid DFT calculations. A 'chain-of-spheres' algorithm for the Hartree-Fock exchange
     Chem. Phys., 2009 356(1-3)98-109
     doi.org/10.1016/j.chemphys.2008.10.036
  3. Bykov,D.; Petrenko,T.; Izsak,R.; Kossmann,S.; Becker,U.; Valeev,E.; Neese,F.
     Efficient implementation of the analytic second derivatives of Hartree-Fock and hybrid DFT energies: a detailed analysis of different approximations
     Molec. Phys., 2015 113 1961-1977
     doi.org/10.1080/00268976.2015.1025114
  4. Helmich-Paris,B.; de Souza,B.; Neese,F.; Izsák,R.
     An improved chain of spheres for exchange algorithm
     J. Chem. Phys., 2021 155 104109
     doi.org/doi: 10.1063/5.0058766.
  5. Neese,F.
     The SHARK Integral Generation and Digestion System
     J. Comp. Chem., 2022  1-16
     doi.org/10.1002/jcc.26942
  6. Grimme,S.; Antony,J.; Ehrlich,S.; Krieg,H.
     A consistent and accurate ab initio parametrization of density functional dispersion correction (DFT-D) for the 94 elements H-Pu
     J. Chem. Phys., 2010 132 154104-XXXX
     doi.org/10.1063/1.3382344
  7. Grimme,S.; Ehrlich,S.; Goerigk,L.
     Effect of the damping function in dispersion corrected density functional theory
     J. Comput. Chem., 2011 32(7)1456-1465
     doi.org/10.1002/jcc.21759

List of suggested additional citations. These are papers that are important in the 'surrounding' of 
of this run, or papers that preceded the highly important papers. If you like your results we are grateful for a citation.

  1. Izsak,R.; Neese,F.
     An overlap fitted chain of spheres exchange method
     J. Chem. Phys., 2011 135 144105
     doi.org/10.1063/1.3646921
  2. Izsak,R.; Hansen,A.; Neese,F.
     The resolution of identity and chain of spheres approximations for the LPNO-CCSD singles Fock term
     Molec. Phys., 2012 110 2413-2417
     doi.org/10.1080/00268976.2012.687466
  3. Neese,F.
     The ORCA program system
     WIRES Comput. Molec. Sci., 2012 2(1)73-78
     doi.org/10.1002/wcms.81
  4. Izsak,R.; Neese,F.; Klopper,W.
     Robust fitting techniques in the chain of spheres approximation to the Fock exchange: The role of the complementary space
     J. Chem. Phys., 2013 139 
     doi.org/10.1063/1.4819264
  5. Neese,F.
     Software update: the ORCA program system, version 4.0
     WIRES Comput. Molec. Sci., 2018 8(1)1-6
     doi.org/10.1002/wcms.1327
  6. Neese,F.; Wennmohs,F.; Becker,U.; Riplinger,C.
     The ORCA quantum chemistry program package
     J. Chem. Phys., 2020 152 Art. No. L224108
     doi.org/10.1063/5.0004608

List of optional additional citations

  1. Neese,F.
     Approximate second-order SCF convergence for spin unrestricted wavefunctions
     Chem. Phys. Lett., 2000 325(1-3)93-98
     doi.org/10.1016/s0009-2614(00)00662-x

Timings for individual modules:

Sum of individual times          ...     1217.779 sec (=  20.296 min)
Startup calculation              ...       70.536 sec (=   1.176 min)   5.8 %
SCF iterations                   ...      569.677 sec (=   9.495 min)  46.8 %
Property integrals               ...       85.831 sec (=   1.431 min)   7.0 %
SCF Response                     ...      112.855 sec (=   1.881 min)   9.3 %
Property calculations            ...      118.119 sec (=   1.969 min)   9.7 %
SCF Gradient evaluation          ...      259.540 sec (=   4.326 min)  21.3 %
Geometry relaxation              ...        1.221 sec (=   0.020 min)   0.1 %
                             ****ORCA TERMINATED NORMALLY****
TOTAL RUN TIME: 0 days 0 hours 21 minutes 14 seconds 332 msec
