 vasp.6.4.2 20Jul23 (build Oct 03 2024 14:39:03) complex                        
  
 executed on             LinuxIFC date 2024.10.22  15:13:34
 running   60 mpi-ranks, on    1 nodes
 distrk:  each k-point on   60 cores,    1 groups
 distr:  one band on NCORE=  10 cores,    6 groups


--------------------------------------------------------------------------------------------------------


 INCAR:
   SYSTEM = 103_red
   ISTART = 1
   ICHARG = 2
   INIWAV = 1
   METAGGA = R2SCAN
   LASPH = .TRUE.
   NELM = 100
   ALGO = fast   	
   ISPIN = 2
   EDIFF = 1E-05
   ISMEAR = 0
   SIGMA = 0.05
   PREC = accurate
   ENCUT = 500
   LREAL = auto  	
   LWAVE = .TRUE.
   LCHARG = .FALSE.
   LAECHG = .FALSE.
   LVHAR = .FALSE.
   LVTOT = .FALSE.
   EDIFFG = -0.02
   IBRION = 2
   NSW = 500
   ISIF = 2
   POTIM = 0.5
   IVDW = 12
   VDW_A1 = 0.49484001
   VDW_S8 = 0.78981345
   VDW_A2 = 5.73083694
   LPLANE = .TRUE.
   NCORE = 10
   LSCALU = .FALSE.
   NSIM = 4
   LSOL = .TRUE.
   EB_K = 35.6880
   LAMBDA_D_K = 3.04
   NELECT = 35
   TAU = 0

 POTCAR:    PAW_PBE C 08Apr2002                   
 POTCAR:    PAW_PBE N 08Apr2002                   
 POTCAR:    PAW_PBE H 15Jun2001                   
 -----------------------------------------------------------------------------
|                                                                             |
|           W    W    AA    RRRRR   N    N  II  N    N   GGGG   !!!           |
|           W    W   A  A   R    R  NN   N  II  NN   N  G    G  !!!           |
|           W    W  A    A  R    R  N N  N  II  N N  N  G       !!!           |
|           W WW W  AAAAAA  RRRRR   N  N N  II  N  N N  G  GGG   !            |
|           WW  WW  A    A  R   R   N   NN  II  N   NN  G    G                |
|           W    W  A    A  R    R  N    N  II  N    N   GGGG   !!!           |
|                                                                             |
|     You use a magnetic or noncollinear calculation, but did not specify     |
|     the initial magnetic moment with the MAGMOM tag. Note that a            |
|     default of 1 will be used for all atoms. This ferromagnetic setup       |
|     may break the symmetry of the crystal, in particular it may rule        |
|     out finding an antiferromagnetic solution. Thence, we recommend         |
|     setting the initial magnetic moment manually or verifying carefully     |
|     that this magnetic setup is desired.                                    |
|                                                                             |
 -----------------------------------------------------------------------------

 POTCAR:    PAW_PBE C 08Apr2002                   
   VRHFIN =C: s2p2                                                                                  
   LEXCH  = PE                                                                                      
   EATOM  =   147.1560 eV,   10.8157 Ry                                                             
                                                                                                    
   TITEL  = PAW_PBE C 08Apr2002                                                                     
   LULTRA =        F    use ultrasoft PP ?                                                          
   IUNSCR =        1    unscreen: 0-lin 1-nonlin 2-no                                               
   RPACOR =    1.200    partial core radius                                                         
   POMASS =   12.011; ZVAL   =    4.000    mass and valenz                                          
   RCORE  =    1.500    outmost cutoff radius                                                       
   RWIGS  =    1.630; RWIGS  =    0.863    wigner-seitz radius (au A)                               
   ENMAX  =  400.000; ENMIN  =  300.000 eV                                                          
   ICORE  =        2    local potential                                                             
   LCOR   =        T    correct aug charges                                                         
   LPAW   =        T    paw PP                                                                      
   EAUG   =  644.873                                                                                
   DEXC   =    0.000                                                                                
   RMAX   =    1.529    core radius for proj-oper                                                   
   RAUG   =    1.300    factor for augmentation sphere                                              
   RDEP   =    1.501    radius for radial grids                                                     
   RDEPT  =    1.300    core radius for aug-charge                                                  
                                                                                                    
   Atomic configuration                                                                             
    4 entries                                                                                       
     n  l   j            E        occ.                                                              
     1  0  0.50      -273.3789   2.0000                                                             
     2  0  0.50       -13.7508   2.0000                                                             
     2  1  0.50        -5.2854   2.0000                                                             
     3  2  1.50        -5.4423   0.0000                                                             
   Description                                                                                      
     l       E           TYP  RCUT    TYP  RCUT                                                     
     0    -13.7508458     23  1.200                                                                 
     0     -8.2022199     23  1.200                                                                 
     1     -5.2854383     23  1.500                                                                 
     1     34.0145650     23  1.500                                                                 
     2     -5.4423304      7  1.500                                                                 
  local pseudopotential read in
  partial core-charges read in
  partial kinetic energy density read in
  atomic valenz-charges read in
  non local Contribution for L=           0  read in
    real space projection operators read in
  non local Contribution for L=           0  read in
    real space projection operators read in
  non local Contribution for L=           1  read in
    real space projection operators read in
  non local Contribution for L=           1  read in
    real space projection operators read in
    PAW grid and wavefunctions read in
 
   number of l-projection  operators is LMAX  =           4
   number of lm-projection operators is LMMAX =           8
 
 POTCAR:    PAW_PBE N 08Apr2002                   
   VRHFIN =N: s2p3                                                                                  
   LEXCH  = PE                                                                                      
   EATOM  =   264.5486 eV,   19.4438 Ry                                                             
                                                                                                    
   TITEL  = PAW_PBE N 08Apr2002                                                                     
   LULTRA =        F    use ultrasoft PP ?                                                          
   IUNSCR =        1    unscreen: 0-lin 1-nonlin 2-no                                               
   RPACOR =    1.200    partial core radius                                                         
   POMASS =   14.001; ZVAL   =    5.000    mass and valenz                                          
   RCORE  =    1.500    outmost cutoff radius                                                       
   RWIGS  =    1.400; RWIGS  =    0.741    wigner-seitz radius (au A)                               
   ENMAX  =  400.000; ENMIN  =  300.000 eV                                                          
   ICORE  =        2    local potential                                                             
   LCOR   =        T    correct aug charges                                                         
   LPAW   =        T    paw PP                                                                      
   EAUG   =  627.112                                                                                
   DEXC   =    0.000                                                                                
   RMAX   =    1.529    core radius for proj-oper                                                   
   RAUG   =    1.300    factor for augmentation sphere                                              
   RDEP   =    1.514    radius for radial grids                                                     
   RDEPT  =    1.338    core radius for aug-charge                                                  
                                                                                                    
   Atomic configuration                                                                             
    4 entries                                                                                       
     n  l   j            E        occ.                                                              
     1  0  0.50      -384.7179   2.0000                                                             
     2  0  0.50       -18.5828   2.0000                                                             
     2  1  0.50        -7.0898   3.0000                                                             
     3  2  1.50        -6.8029   0.0000                                                             
   Description                                                                                      
     l       E           TYP  RCUT    TYP  RCUT                                                     
     0    -18.5828119     23  1.200                                                                 
     0    -13.5018863     23  1.200                                                                 
     1     -7.0897853     23  1.500                                                                 
     1      9.5240782     23  1.500                                                                 
     2     -6.8029130      7  1.500                                                                 
  local pseudopotential read in
  partial core-charges read in
  partial kinetic energy density read in
  atomic valenz-charges read in
  non local Contribution for L=           0  read in
    real space projection operators read in
  non local Contribution for L=           0  read in
    real space projection operators read in
  non local Contribution for L=           1  read in
    real space projection operators read in
  non local Contribution for L=           1  read in
    real space projection operators read in
    PAW grid and wavefunctions read in
 
   number of l-projection  operators is LMAX  =           4
   number of lm-projection operators is LMMAX =           8
 
 POTCAR:    PAW_PBE H 15Jun2001                   
   VRHFIN =H: ultrasoft test                                                                        
   LEXCH  = PE                                                                                      
   EATOM  =    12.4884 eV,    0.9179 Ry                                                             
                                                                                                    
   TITEL  = PAW_PBE H 15Jun2001                                                                     
   LULTRA =        F    use ultrasoft PP ?                                                          
   IUNSCR =        0    unscreen: 0-lin 1-nonlin 2-no                                               
   RPACOR =    0.000    partial core radius                                                         
   POMASS =    1.000; ZVAL   =    1.000    mass and valenz                                          
   RCORE  =    1.100    outmost cutoff radius                                                       
   RWIGS  =    0.700; RWIGS  =    0.370    wigner-seitz radius (au A)                               
   ENMAX  =  250.000; ENMIN  =  200.000 eV                                                          
   RCLOC  =    0.701    cutoff for local pot                                                        
   LCOR   =        T    correct aug charges                                                         
   LPAW   =        T    paw PP                                                                      
   EAUG   =  400.000                                                                                
   RMAX   =    1.123    core radius for proj-oper                                                   
   RAUG   =    1.200    factor for augmentation sphere                                              
   RDEP   =    1.112    radius for radial grids                                                     
   RDEPT  =    0.926    core radius for aug-charge                                                  
                                                                                                    
   Atomic configuration                                                                             
    2 entries                                                                                       
     n  l   j            E        occ.                                                              
     1  0  0.50        -6.4927   1.0000                                                             
     2  1  0.50        -3.4015   0.0000                                                             
   Description                                                                                      
     l       E           TYP  RCUT    TYP  RCUT                                                     
     0     -6.4927494     23  1.100                                                                 
     0      6.8029130     23  1.100                                                                 
     1     -4.0817478     23  1.100                                                                 
  local pseudopotential read in
  atomic valenz-charges read in
  non local Contribution for L=           0  read in
    real space projection operators read in
  non local Contribution for L=           0  read in
    real space projection operators read in
  non local Contribution for L=           1  read in
    real space projection operators read in
    PAW grid and wavefunctions read in
 
   number of l-projection  operators is LMAX  =           3
   number of lm-projection operators is LMMAX =           5
 
 Optimization of the real space projectors (new method)

 maximal supplied QI-value         = 25.13
 optimisation between [QCUT,QGAM] = [ 11.31, 22.87] = [ 35.82,146.48] Ry 
 Optimized for a Real-space Cutoff    1.03 Angstroem

   l    n(q)    QCUT    max X(q) W(low)/X(q) W(high)/X(q)  e(spline) 
   0      7    11.310   115.676    0.20E-03    0.90E-03    0.20E-06
   0      7    11.310    87.132    0.20E-03    0.89E-03    0.19E-06
   1      6    11.310     4.429    0.16E-03    0.28E-03    0.12E-06
   1      6    11.310     2.733    0.12E-03    0.21E-03    0.99E-07
 Optimization of the real space projectors (new method)

 maximal supplied QI-value         = 25.13
 optimisation between [QCUT,QGAM] = [ 11.31, 22.87] = [ 35.82,146.48] Ry 
 Optimized for a Real-space Cutoff    1.43 Angstroem

   l    n(q)    QCUT    max X(q) W(low)/X(q) W(high)/X(q)  e(spline) 
   0     10    11.310    79.467    0.42E-04    0.81E-04    0.60E-06
   0     10    11.310    66.151    0.40E-04    0.81E-04    0.60E-06
   1      9    11.310    17.416    0.14E-03    0.88E-04    0.14E-05
   1      9    11.310    12.382    0.15E-03    0.93E-04    0.14E-05
 Optimization of the real space projectors (new method)

 maximal supplied QI-value         = 34.20
 optimisation between [QCUT,QGAM] = [ 11.29, 22.57] = [ 35.68,142.71] Ry 
 Optimized for a Real-space Cutoff    1.20 Angstroem

   l    n(q)    QCUT    max X(q) W(low)/X(q) W(high)/X(q)  e(spline) 
   0      8    11.287    19.460    0.22E-03    0.50E-03    0.19E-06
   0      8    11.287    12.209    0.21E-03    0.48E-03    0.18E-06
   1      8    11.287     4.655    0.21E-03    0.11E-04    0.26E-06
  PAW_PBE C 08Apr2002                   :
 energy of atom  1       EATOM= -147.1560
 kinetic energy error for atom=    0.0076 (will be added to EATOM!!)
  PAW_PBE N 08Apr2002                   :
 energy of atom  2       EATOM= -264.5486
 kinetic energy error for atom=    0.0138 (will be added to EATOM!!)
  PAW_PBE H 15Jun2001                   :
 energy of atom  3       EATOM=  -12.4884
 kinetic energy error for atom=    0.0020 (will be added to EATOM!!)
 
 
 POSCAR: C N H
  positions in direct lattice
  velocities in cartesian coordinates

 METAGGA = R2SCAN                                      LMAXTAU =  6    LMIXTAU =  F

 exchange correlation table for  LEXCH =        8
   RHO(1)=    0.500       N(1)  =     2000
   RHO(2)=  100.500       N(2)  =     4000
 


--------------------------------------------------------------------------------------------------------


 ion  position               nearest neighbor table
   1  0.466  0.500  0.503-  17 1.10  16 1.10   2 1.53   5 1.53
   2  0.485  0.468  0.493-  14 1.10  15 1.10   1 1.53   3 1.58
   3  0.521  0.469  0.507-  12 1.09  13 1.10   6 1.43   2 1.58
   4  0.521  0.531  0.507-  10 1.09  11 1.10   6 1.43   5 1.57
   5  0.485  0.532  0.493-   8 1.10   9 1.10   1 1.53   4 1.57
   6  0.536  0.500  0.497-   7 1.02   3 1.43   4 1.43
   7  0.553  0.500  0.477-   6 1.02
   8  0.473  0.554  0.503-   5 1.10
   9  0.486  0.534  0.465-   5 1.10
  10  0.536  0.552  0.498-   4 1.09
  11  0.520  0.531  0.535-   4 1.10
  12  0.536  0.448  0.498-   3 1.09
  13  0.520  0.469  0.535-   3 1.10
  14  0.473  0.446  0.503-   2 1.10
  15  0.486  0.466  0.465-   2 1.10
  16  0.441  0.500  0.491-   1 1.10
  17  0.462  0.500  0.530-   1 1.10
 
  LATTYP: Found a simple cubic cell.
 ALAT       =    40.0000000000
  
  Lattice vectors:
  
 A1 = (  40.0000000000,   0.0000000000,   0.0000000000)
 A2 = (   0.0000000000,  40.0000000000,   0.0000000000)
 A3 = (   0.0000000000,   0.0000000000,  40.0000000000)


Analysis of symmetry for initial positions (statically):
=====================================================================
 Subroutine PRICEL returns:
 Original cell was already a primitive cell.
 

 Routine SETGRP: Setting up the symmetry group for a 
 simple cubic supercell.


 Subroutine GETGRP returns: Found  1 space group operations
 (whereof  1 operations were pure point group operations)
 out of a pool of 48 trial point group operations.


The static configuration has the point symmetry C_1 .


Analysis of symmetry for dynamics (positions and initial velocities):
=====================================================================
 Subroutine PRICEL returns:
 Original cell was already a primitive cell.
 

 Routine SETGRP: Setting up the symmetry group for a 
 simple cubic supercell.


 Subroutine GETGRP returns: Found  1 space group operations
 (whereof  1 operations were pure point group operations)
 out of a pool of 48 trial point group operations.


The dynamic configuration has the point symmetry C_1 .


Analysis of constrained symmetry for selective dynamics:
=====================================================================
 Subroutine PRICEL returns:
 Original cell was already a primitive cell.
 

 Routine SETGRP: Setting up the symmetry group for a 
 simple cubic supercell.


 Subroutine GETGRP returns: Found  1 space group operations
 (whereof  1 operations were pure point group operations)
 out of a pool of 48 trial point group operations.


The constrained configuration has the point symmetry C_1 .


Analysis of structural, dynamic, and magnetic symmetry:
=====================================================================
 Subroutine PRICEL returns:
 Original cell was already a primitive cell.
 

 Routine SETGRP: Setting up the symmetry group for a 
 simple cubic supercell.


 Subroutine GETGRP returns: Found  1 space group operations
 (whereof  1 operations were pure point group operations)
 out of a pool of 48 trial point group operations.


The overall configuration has the point symmetry C_1 .


 Subroutine INISYM returns: Found  1 space group operations
 (whereof  1 operations are pure point group operations),
 and found     1 'primitive' translations


----------------------------------------------------------------------------------------

                                     Primitive cell                                     

  volume of cell :   64000.0000

  direct lattice vectors                    reciprocal lattice vectors
    40.000000000  0.000000000  0.000000000     0.025000000  0.000000000  0.000000000
     0.000000000 40.000000000  0.000000000     0.000000000  0.025000000  0.000000000
     0.000000000  0.000000000 40.000000000     0.000000000  0.000000000  0.025000000

  length of vectors
    40.000000000 40.000000000 40.000000000     0.025000000  0.025000000  0.025000000

  position of ions in fractional coordinates (direct lattice)
     0.466018271  0.499985488  0.503222302
     0.484714542  0.468433275  0.492797194
     0.521386434  0.469273474  0.507140669
     0.521348866  0.530752881  0.507125942
     0.484688098  0.531550346  0.492785780
     0.536299029  0.500010783  0.497004970
     0.552610894  0.500017890  0.477304085
     0.473035860  0.554429752  0.502514917
     0.486193631  0.533571827  0.465421503
     0.536091094  0.551858346  0.497893971
     0.519552809  0.531336627  0.534588576
     0.536130115  0.448181634  0.497911107
     0.519580505  0.468688444  0.534596633
     0.473081433  0.445542624  0.502527814
     0.486225536  0.466409572  0.465431929
     0.441159683  0.499971824  0.491280987
     0.461884199  0.499986214  0.530451622

  ion indices of the primitive-cell ions
   primitive index   ion index
                 1           1
                 2           2
                 3           3
                 4           4
                 5           5
                 6           6
                 7           7
                 8           8
                 9           9
                10          10
                11          11
                12          12
                13          13
                14          14
                15          15
                16          16
                17          17

----------------------------------------------------------------------------------------

 
 
 KPOINTS: K-Point Grid                            

Automatic generation of k-mesh.
 Grid dimensions read from file:
 generate k-points for:    1    1    1

 Generating k-lattice:

  Cartesian coordinates                     Fractional coordinates (reciprocal lattice)
     0.025000000  0.000000000  0.000000000     1.000000000  0.000000000  0.000000000
     0.000000000  0.025000000  0.000000000     0.000000000  1.000000000  0.000000000
     0.000000000  0.000000000  0.025000000     0.000000000  0.000000000  1.000000000

  Length of vectors
     0.025000000  0.025000000  0.025000000

  Shift w.r.t. Gamma in fractional coordinates (k-lattice)
     0.000000000  0.000000000  0.000000000

 
 Subroutine IBZKPT returns following result:
 ===========================================
 
 Found      1 irreducible k-points:
 
 Following reciprocal coordinates:
            Coordinates               Weight
  0.000000  0.000000  0.000000      1.000000
 
 Following cartesian coordinates:
            Coordinates               Weight
  0.000000  0.000000  0.000000      1.000000
 


--------------------------------------------------------------------------------------------------------




 Dimension of arrays:
   k-points           NKPTS =      1   k-points in BZ     NKDIM =      1   number of bands    NBANDS=     36
   number of dos      NEDOS =    301   number of ions     NIONS =     17
   non local maximal  LDIM  =      4   non local SUM 2l+1 LMDIM =      8
   total plane-waves  NPLWV = ******
   max r-space proj   IRMAX =   4928   max aug-charges    IRDMAX=   5085
   dimension x,y,z NGX =   294 NGY =  294 NGZ =  294
   dimension x,y,z NGXF=   588 NGYF=  588 NGZF=  588
   support grid    NGXF=   588 NGYF=  588 NGZF=  588
   ions per type =               5   1  11
   NGX,Y,Z   is equivalent  to a cutoff of  12.22, 12.22, 12.22 a.u.
   NGXF,Y,Z  is equivalent  to a cutoff of  24.44, 24.44, 24.44 a.u.

 SYSTEM =  103_red                                 
 POSCAR =  C N H                                   

 Startparameter for this run:
   NWRITE =      2    write-flag & timer
   PREC   = accura    normal or accurate (medium, high low for compatibility)
   ISTART =      1    job   : 0-new  1-cont  2-samecut
   ICHARG =      2    charge: 1-file 2-atom 10-const
   ISPIN  =      2    spin polarized calculation?
   LNONCOLLINEAR =      F non collinear calculations
   LSORBIT =      F    spin-orbit coupling
   INIWAV =      1    electr: 0-lowe 1-rand  2-diag
   LASPH  =      T    aspherical Exc in radial PAW
 Electronic Relaxation 1
   ENCUT  =  500.0 eV  36.75 Ry    6.06 a.u.  72.93 72.93 72.93*2*pi/ulx,y,z
   ENINI  =  500.0     initial cutoff
   ENAUG  =  644.9 eV  augmentation charge cutoff
   NELM   =    100;   NELMIN=  2; NELMDL=  0     # of ELM steps 
   EDIFF  = 0.1E-04   stopping-criterion for ELM
   LREAL  =      T    real-space projection
   NLSPLINE    = F    spline interpolate recip. space projectors
   LCOMPAT=      F    compatible to vasp.4.4
   GGA_COMPAT  = T    GGA compatible to vasp.4.4-vasp.4.6
   LMAXPAW     = -100 max onsite density
   LMAXMIX     =    2 max onsite mixed and CHGCAR
   VOSKOWN=      0    Vosko Wilk Nusair interpolation
   ROPT   =   -0.00025  -0.00025  -0.00025
 Ionic relaxation
   EDIFFG = -.2E-01   stopping-criterion for IOM
   NSW    =    500    number of steps for IOM
   NBLOCK =      1;   KBLOCK =    500    inner block; outer block 
   IBRION =      2    ionic relax: 0-MD 1-quasi-New 2-CG
   NFREE  =      1    steps in history (QN), initial steepest desc. (CG)
   ISIF   =      2    stress and relaxation
   IWAVPR =     11    prediction:  0-non 1-charg 2-wave 3-comb
   ISYM   =      2    0-nonsym 1-usesym 2-fastsym
   LCORR  =      T    Harris-Foulkes like correction to forces

   POTIM  = 0.5000    time-step for ionic-motion
   TEIN   =    0.0    initial temperature
   TEBEG  =    0.0;   TEEND  =   0.0 temperature during run
   SMASS  =  -3.00    Nose mass-parameter (am)
   estimated Nose-frequenzy (Omega)   =  0.10E-29 period in steps = 0.13E+47 mass=  -0.366E-25a.u.
   SCALEE = 1.0000    scale energy and forces
   NPACO  =    256;   APACO  = 10.0  distance and # of slots for P.C.
   PSTRESS=    0.0 pullay stress

  Mass of Ions in am
   POMASS =  12.01 14.00  1.00
  Ionic Valenz
   ZVAL   =   4.00  5.00  1.00
  Atomic Wigner-Seitz radii
   RWIGS  =  -1.00 -1.00 -1.00
  virtual crystal weights 
   VCA    =   1.00  1.00  1.00
   NELECT =      35.0000    total number of electrons
   NUPDOWN=      -1.0000    fix difference up-down

 DOS related values:
   EMIN   =  10.00;   EMAX   =-10.00  energy-range for DOS
   EFERMI =   0.00;   METHOD = LEGACY      
   ISMEAR =     0;   SIGMA  =   0.05  broadening in eV -4-tet -1-fermi 0-gaus

 Electronic relaxation 2 (details)
   IALGO  =     68    algorithm
   LDIAG  =      T    sub-space diagonalisation (order eigenvalues)
   LSUBROT=      F    optimize rotation matrix (better conditioning)
   TURBO    =      0    0=normal 1=particle mesh
   IRESTART =      0    0=no restart 2=restart with 2 vectors
   NREBOOT  =      0    no. of reboots
   NMIN     =      0    reboot dimension
   EREF     =   0.00    reference energy to select bands
   IMIX   =      4    mixing-type and parameters
     AMIX     =   0.40;   BMIX     =  1.00
     AMIX_MAG =   1.60;   BMIX_MAG =  1.00
     AMIN     =   0.10
     WC   =   100.;   INIMIX=   1;  MIXPRE=   1;  MAXMIX= -45

 Intra band minimization:
   WEIMIN = 0.0010     energy-eigenvalue tresh-hold
   EBREAK =  0.69E-07  absolut break condition
   DEPER  =   0.30     relativ break condition  

   TIME   =   0.40     timestep for ELM

  volume/ion in A,a.u.               =    3764.71     25405.49
  Fermi-wavevector in a.u.,A,eV,Ry     =   0.133876  0.252990  0.243856  0.017923
  Thomas-Fermi vector in A             =   0.780200
 
 Write flags
   LWAVE        =      T    write WAVECAR
   LDOWNSAMPLE  =      F    k-point downsampling of WAVECAR
   LCHARG       =      F    write CHGCAR
   LVTOT        =      F    write LOCPOT, total local potential
   LVHAR        =      F    write LOCPOT, Hartree potential only
   LELF         =      F    write electronic localiz. function (ELF)
   LORBIT       =      0    0 simple, 1 ext, 2 COOP (PROOUT), +10 PAW based schemes


 Dipole corrections
   LMONO  =      F    monopole corrections only (constant potential shift)
   LDIPOL =      F    correct potential (dipole corrections)
   IDIPOL =      0    1-x, 2-y, 3-z, 4-all directions 
   EPSILON=  1.0000000 bulk dielectric constant

 Exchange correlation treatment:
   GGA     =    --    GGA type
   LEXCH   =     8    internal setting for exchange type
   LIBXC   =     F    Libxc                    
   VOSKOWN =     0    Vosko Wilk Nusair interpolation
   LHFCALC =     F    Hartree Fock is set to
   LHFONE  =     F    Hartree Fock one center treatment
   AEXX    =    0.0000 exact exchange contribution

 Linear response parameters
   LEPSILON=     F    determine dielectric tensor
   LRPA    =     F    only Hartree local field effects (RPA)
   LNABLA  =     F    use nabla operator in PAW spheres
   LVEL    =     F    velocity operator in full k-point grid
   CSHIFT  =0.1000    complex shift for real part using Kramers Kronig
   OMEGAMAX=  -1.0    maximum frequency
   DEG_THRESHOLD= 0.2000000E-02 threshold for treating states as degnerate
   RTIME   =   -0.100 relaxation time in fs
  (WPLASMAI=    0.000 imaginary part of plasma frequency in eV, 0.658/RTIME)
   DFIELD  = 0.0000000 0.0000000 0.0000000 field for delta impulse in time
 
  Optional k-point grid parameters
   LKPOINTS_OPT  =     F    use optional k-point grid
   KPOINTS_OPT_MODE=     1    mode for optional k-point grid
 
 Orbital magnetization related:
   ORBITALMAG=     F  switch on orbital magnetization
   LCHIMAG   =     F  perturbation theory with respect to B field
   DQ        =  0.001000  dq finite difference perturbation B field
   LLRAUG    =     F  two centre corrections for induced B field
   LBONE     =     F  B-component reconstruction in AE one-centre
   LVGVCALC  =     T  calculate vGv susceptibility
   LVGVAPPL  =     F  apply vGv susceptibility instead of pGv for G=0

 Random number generation:
   RANDOM_GENERATOR = DEFAULT
   PCG_SEED         = not used
 Solvation model:
   LSOL    =     T         switch on solvation model
   EB_K    = 35.688000     relative permittivity of the bulk solvent
   SIGMA_K =  0.600000     width of the dielectric cavity
   NC_K    =  0.002500     cutoff charge density
   TAU     =  0.000000     cavity surface tension
   LAMBDA_D_K    =  3.040000     Debye length in Angstroms
   LRHOB     =     F     write boundcharge  density
   LRHOION     =     F     write ioniccharge density



--------------------------------------------------------------------------------------------------------


 conjugate gradient relaxation of ions
   using selective dynamics as specified on POSCAR
 charge density and potential will be updated during run
 spin polarized calculation
 RMM-DIIS sequential band-by-band and
  variant of blocked Davidson during initial phase
 perform sub-space diagonalisation
    before iterative eigenvector-optimisation
 modified Broyden-mixing scheme, WC =      100.0
 initial mixing is a Kerker type mixing with AMIX =  0.4000 and BMIX =      1.0000
 Hartree-type preconditioning will be used
 using additional bands           18
 real space projection scheme for non local part
 use partial core corrections
 calculate Harris-corrections to forces 
   (improved forces if not selfconsistent)
 use gradient corrections 
 use of overlap-Matrix (Vanderbilt PP)
 Gauss-broadening in eV      SIGMA  =   0.05


--------------------------------------------------------------------------------------------------------


  energy-cutoff  :      500.00
  volume of cell :    64000.00
      direct lattice vectors                 reciprocal lattice vectors
    40.000000000  0.000000000  0.000000000     0.025000000  0.000000000  0.000000000
     0.000000000 40.000000000  0.000000000     0.000000000  0.025000000  0.000000000
     0.000000000  0.000000000 40.000000000     0.000000000  0.000000000  0.025000000

  length of vectors
    40.000000000 40.000000000 40.000000000     0.025000000  0.025000000  0.025000000


 
 old parameters found on file WAVECAR:
  energy-cutoff  :      500.00
  volume of cell :    64000.00
      direct lattice vectors                 reciprocal lattice vectors
    40.000000000  0.000000000  0.000000000     0.025000000  0.000000000  0.000000000
     0.000000000 40.000000000  0.000000000     0.000000000  0.025000000  0.000000000
     0.000000000  0.000000000 40.000000000     0.000000000  0.000000000  0.025000000

  length of vectors

 
 k-points in units of 2pi/SCALE and weight: K-Point Grid                            
   0.00000000  0.00000000  0.00000000       1.000
 
 k-points in reciprocal lattice and weights: K-Point Grid                            
   0.00000000  0.00000000  0.00000000       1.000
 
 position of ions in fractional coordinates (direct lattice) 
   0.46601827  0.49998549  0.50322230
   0.48471454  0.46843328  0.49279719
   0.52138643  0.46927347  0.50714067
   0.52134887  0.53075288  0.50712594
   0.48468810  0.53155035  0.49278578
   0.53629903  0.50001078  0.49700497
   0.55261089  0.50001789  0.47730409
   0.47303586  0.55442975  0.50251492
   0.48619363  0.53357183  0.46542150
   0.53609109  0.55185835  0.49789397
   0.51955281  0.53133663  0.53458858
   0.53613012  0.44818163  0.49791111
   0.51958051  0.46868844  0.53459663
   0.47308143  0.44554262  0.50252781
   0.48622554  0.46640957  0.46543193
   0.44115968  0.49997182  0.49128099
   0.46188420  0.49998621  0.53045162
 
 position of ions in cartesian coordinates  (Angst):
  18.64073084 19.99941954 20.12889206
  19.38858169 18.73733102 19.71188774
  20.85545738 18.77093894 20.28562677
  20.85395464 21.23011524 20.28503768
  19.38752392 21.26201384 19.71143119
  21.45196115 20.00043132 19.88019880
  22.10443577 20.00071559 19.09216342
  18.92143442 22.17719006 20.10059670
  19.44774524 21.34287310 18.61686013
  21.44364375 22.07433382 19.91575886
  20.78211234 21.25346508 21.38354303
  21.44520461 17.92726535 19.91644428
  20.78322021 18.74753776 21.38386531
  18.92325732 17.82170495 20.10111255
  19.44902145 18.65638288 18.61727714
  17.64638732 19.99887298 19.65123949
  18.47536797 19.99944854 21.21806486
 


--------------------------------------------------------------------------------------------------------


 k-point   1 :   0.0000 0.0000 0.0000  plane waves: 1624525

 maximum and minimum number of plane-waves per node :    162473   162437

 maximum number of plane-waves:   1624525
 maximum index in each direction: 
   IXMAX=   72   IYMAX=   72   IZMAX=   72
   IXMIN=  -72   IYMIN=  -72   IZMIN=  -72


 real space projection operators:
  total allocation   :       2049.87 KBytes
  max/ min on nodes  :        208.68        200.80


 parallel 3D FFT for wavefunctions:
    minimum data exchange during FFTs selected (reduces bandwidth)
 parallel 3D FFT for charge:
    minimum data exchange during FFTs selected (reduces bandwidth)


 total amount of memory used by VASP MPI-rank0   989462. kBytes
=======================================================================

   base      :      30000. kBytes
   nonlr-proj:       1663. kBytes
   fftplans  :     192295. kBytes
   grid      :     734294. kBytes
   one-center:         12. kBytes
   wavefun   :      31198. kBytes
 
     INWAV:  cpu time      4.1533: real time      5.1705
 Broyden mixing: mesh for mixing (old mesh)
   NGX =145   NGY =145   NGZ =145
  (NGX  =588   NGY  =588   NGZ  =588)
  gives a total of ****** points

 initial charge density was supplied:
 charge density of overlapping atoms calculated
 number of electron      36.0000000 magnetization      17.0000000
 keeping initial charge density in first step


--------------------------------------------------------------------------------------------------------


 Maximum index for non-local projection operator          477
 Maximum index for augmentation-charges          196 (set IRDMAX)


--------------------------------------------------------------------------------------------------------


 First call to EWALD:  gamma=   0.044
 Maximum number of real-space cells 3x 3x 3
 Maximum number of reciprocal cells 3x 3x 3

    FEWALD:  cpu time      0.0009: real time      0.0009


--------------------------------------- Ionic step        1  -------------------------------------------




--------------------------------------- Iteration      1(   1)  ---------------------------------------


    POTLOK:  cpu time    135.3503: real time    136.2719
    SETDIJ:  cpu time      0.2986: real time      0.3003
     EDDAV:  cpu time     48.7908: real time     49.1353
       DOS:  cpu time      0.0004: real time      0.0004
    CHARGE:  cpu time      5.8773: real time      5.9197
    MIXING:  cpu time      0.1011: real time      0.1018
    --------------------------------------------
      LOOP:  cpu time    190.4185: real time    191.7294

 eigenvalue-minimisations  :   168
 total energy-change (2. order) :-0.8147254E+02  (-0.6130161E+01)
 number of electron      35.0000003 magnetization      16.3835555
 augmentation part        0.9698004 magnetization      15.5007265

 Broyden mixing:
  rms(total) = 0.24405E+01    rms(broyden)= 0.24402E+01
  rms(prec ) = 0.24606E+01
  weight for this iteration     100.00

 Free energy of the ion-electron system (eV)
  ---------------------------------------------------
  alpha Z        PSCENC =         0.08495462
  Ewald energy   TEWEN  =      3294.52470105
  -Hartree energ DENC   =     -4022.21478853
  -exchange      EXHF   =         0.00000000
  -V(xc)+E(xc)   XCENC  =       137.32536199
  PAW double counting   =       747.33139234     -760.47240077
  entropy T*S    EENTRO =        -0.00000000
  eigenvalues    EBANDS =      -609.23552102
  atomic energy  EATOM  =      1137.62768647
  Solvation  Ediel_sol  =        -6.44393018
  ---------------------------------------------------
  free energy    TOTEN  =       -81.47254403 eV

  energy without entropy =      -81.47254403  energy(sigma->0) =      -81.47254403


--------------------------------------------------------------------------------------------------------




--------------------------------------- Iteration      1(   2)  ---------------------------------------


    POTLOK:  cpu time    127.2073: real time    128.0972
    SETDIJ:  cpu time      0.3024: real time      0.3043
    EDDIAG:  cpu time     10.6249: real time     10.7020
  RMM-DIIS:  cpu time     63.4419: real time     63.8693
    ORTHCH:  cpu time      0.0830: real time      0.0837
       DOS:  cpu time      0.0005: real time      0.0005
    CHARGE:  cpu time      6.1236: real time      6.1631
    MIXING:  cpu time      0.1081: real time      0.1087
    --------------------------------------------
      LOOP:  cpu time    207.8916: real time    209.3288

 eigenvalue-minimisations  :   153
 total energy-change (2. order) : 0.5488646E+00  (-0.6836378E+01)
 number of electron      35.0000003 magnetization      15.7294860
 augmentation part        0.9574943 magnetization      14.8100909

 Broyden mixing:
  rms(total) = 0.12182E+01    rms(broyden)= 0.12181E+01
  rms(prec ) = 0.12357E+01
  weight for this iteration     100.00

 eigenvalues of (default mixing * dielectric matrix)
  average eigenvalue GAMMA=   0.9427
  0.9427

 Free energy of the ion-electron system (eV)
  ---------------------------------------------------
  alpha Z        PSCENC =         0.08495462
  Ewald energy   TEWEN  =      3294.52470105
  -Hartree energ DENC   =     -4070.78483356
  -exchange      EXHF   =         0.00000000
  -V(xc)+E(xc)   XCENC  =       144.57313468
  PAW double counting   =      1339.39802717    -1353.04874867
  entropy T*S    EENTRO =        -0.00000000
  eigenvalues    EBANDS =      -548.81061019
  atomic energy  EATOM  =      1137.62768647
  Solvation  Ediel_sol  =       -24.48799105
  ---------------------------------------------------
  free energy    TOTEN  =       -80.92367947 eV

  energy without entropy =      -80.92367947  energy(sigma->0) =      -80.92367947


--------------------------------------------------------------------------------------------------------




--------------------------------------- Iteration      1(   3)  ---------------------------------------


    POTLOK:  cpu time    128.6815: real time    129.5720
    SETDIJ:  cpu time      0.2997: real time      0.3013
    EDDIAG:  cpu time     10.6752: real time     10.7483
  RMM-DIIS:  cpu time     67.7590: real time     68.2183
    ORTHCH:  cpu time      0.0857: real time      0.0864
       DOS:  cpu time      0.0004: real time      0.0004
    CHARGE:  cpu time      6.1902: real time      6.2339
    MIXING:  cpu time      0.1097: real time      0.1105
    --------------------------------------------
      LOOP:  cpu time    213.8016: real time    215.2712

 eigenvalue-minimisations  :   170
 total energy-change (2. order) :-0.1590920E+02  (-0.2959086E+01)
 number of electron      35.0000003 magnetization      14.9303237
 augmentation part        0.9480662 magnetization      13.9949332

 Broyden mixing:
  rms(total) = 0.74154E+00    rms(broyden)= 0.74150E+00
  rms(prec ) = 0.74931E+00
  weight for this iteration     100.00

 eigenvalues of (default mixing * dielectric matrix)
  average eigenvalue GAMMA=   1.0874
  1.4024  0.7724

 Free energy of the ion-electron system (eV)
  ---------------------------------------------------
  alpha Z        PSCENC =         0.08495462
  Ewald energy   TEWEN  =      3294.52470105
  -Hartree energ DENC   =     -4099.15864724
  -exchange      EXHF   =         0.00000000
  -V(xc)+E(xc)   XCENC  =       134.92560445
  PAW double counting   =      1860.62628542    -1874.71407545
  entropy T*S    EENTRO =        -0.00000000
  eigenvalues    EBANDS =      -509.06838405
  atomic energy  EATOM  =      1137.62768647
  Solvation  Ediel_sol  =       -41.68100551
  ---------------------------------------------------
  free energy    TOTEN  =       -96.83288025 eV

  energy without entropy =      -96.83288025  energy(sigma->0) =      -96.83288025


--------------------------------------------------------------------------------------------------------




--------------------------------------- Iteration      1(   4)  ---------------------------------------


    POTLOK:  cpu time    128.2844: real time    129.1712
    SETDIJ:  cpu time      0.3414: real time      0.3435
    EDDIAG:  cpu time     10.7434: real time     10.8156
  RMM-DIIS:  cpu time     77.2517: real time     77.7502
    ORTHCH:  cpu time      0.0846: real time      0.0852
       DOS:  cpu time      0.0005: real time      0.0005
    CHARGE:  cpu time      6.1697: real time      6.2068
    MIXING:  cpu time      0.1133: real time      0.1140
    --------------------------------------------
      LOOP:  cpu time    222.9889: real time    224.4871

 eigenvalue-minimisations  :   203
 total energy-change (2. order) :-0.4167093E+01  (-0.1152575E+01)
 number of electron      35.0000003 magnetization      14.2372655
 augmentation part        0.9348765 magnetization      13.3017444

 Broyden mixing:
  rms(total) = 0.50077E+00    rms(broyden)= 0.50072E+00
  rms(prec ) = 0.50682E+00
  weight for this iteration     100.00

 eigenvalues of (default mixing * dielectric matrix)
  average eigenvalue GAMMA=   1.1759
  1.6484  1.1691  0.7100

 Free energy of the ion-electron system (eV)
  ---------------------------------------------------
  alpha Z        PSCENC =         0.08495462
  Ewald energy   TEWEN  =      3294.52470105
  -Hartree energ DENC   =     -4111.32940991
  -exchange      EXHF   =         0.00000000
  -V(xc)+E(xc)   XCENC  =       134.12485350
  PAW double counting   =      2334.68072461    -2348.84326202
  entropy T*S    EENTRO =        -0.00000000
  eigenvalues    EBANDS =      -481.05168418
  atomic energy  EATOM  =      1137.62768647
  Solvation  Ediel_sol  =       -60.81853751
  ---------------------------------------------------
  free energy    TOTEN  =      -100.99997336 eV

  energy without entropy =     -100.99997336  energy(sigma->0) =     -100.99997336


--------------------------------------------------------------------------------------------------------




--------------------------------------- Iteration      1(   5)  ---------------------------------------


    POTLOK:  cpu time    128.2167: real time    129.1019
    SETDIJ:  cpu time      0.2999: real time      0.3015
    EDDIAG:  cpu time     10.6563: real time     10.7293
  RMM-DIIS:  cpu time     79.6477: real time     80.1805
    ORTHCH:  cpu time      0.0850: real time      0.0858
       DOS:  cpu time      0.0003: real time      0.0003
    CHARGE:  cpu time      5.9384: real time      5.9789
    MIXING:  cpu time      0.1169: real time      0.1179
    --------------------------------------------
      LOOP:  cpu time    224.9612: real time    226.4960

 eigenvalue-minimisations  :   211
 total energy-change (2. order) :-0.9897689E+00  (-0.2086119E+00)
 number of electron      35.0000003 magnetization      13.1386334
 augmentation part        0.9317644 magnetization      12.2095989

 Broyden mixing:
  rms(total) = 0.33460E+00    rms(broyden)= 0.33459E+00
  rms(prec ) = 0.33924E+00
  weight for this iteration     100.00

 eigenvalues of (default mixing * dielectric matrix)
  average eigenvalue GAMMA=   1.2761
  2.1314  1.4141  0.8787  0.6801

 Free energy of the ion-electron system (eV)
  ---------------------------------------------------
  alpha Z        PSCENC =         0.08495462
  Ewald energy   TEWEN  =      3294.52470105
  -Hartree energ DENC   =     -4102.08436595
  -exchange      EXHF   =         0.00000000
  -V(xc)+E(xc)   XCENC  =       133.75865157
  PAW double counting   =      2529.33048185    -2543.44776359
  entropy T*S    EENTRO =        -0.00000000
  eigenvalues    EBANDS =      -478.61386538
  atomic energy  EATOM  =      1137.62768647
  Solvation  Ediel_sol  =       -73.17022293
  ---------------------------------------------------
  free energy    TOTEN  =      -101.98974230 eV

  energy without entropy =     -101.98974230  energy(sigma->0) =     -101.98974230


--------------------------------------------------------------------------------------------------------




--------------------------------------- Iteration      1(   6)  ---------------------------------------


    POTLOK:  cpu time    128.8703: real time    129.7462
    SETDIJ:  cpu time      0.3357: real time      0.3372
    EDDIAG:  cpu time     10.6681: real time     10.7368
  RMM-DIIS:  cpu time     80.4041: real time     80.9011
    ORTHCH:  cpu time      0.0836: real time      0.0843
       DOS:  cpu time      0.0007: real time      0.0007
    CHARGE:  cpu time      5.9424: real time      5.9832
    MIXING:  cpu time      0.1222: real time      0.1231
    --------------------------------------------
      LOOP:  cpu time    226.4271: real time    227.9126

 eigenvalue-minimisations  :   214
 total energy-change (2. order) :-0.1642357E+01  (-0.9862215E-01)
 number of electron      35.0000003 magnetization      12.5428585
 augmentation part        0.9283404 magnetization      11.6212690

 Broyden mixing:
  rms(total) = 0.18966E+00    rms(broyden)= 0.18964E+00
  rms(prec ) = 0.19364E+00
  weight for this iteration     100.00

 eigenvalues of (default mixing * dielectric matrix)
  average eigenvalue GAMMA=   1.3562
  2.7672  1.2791  1.2791  0.8080  0.6474

 Free energy of the ion-electron system (eV)
  ---------------------------------------------------
  alpha Z        PSCENC =         0.08495462
  Ewald energy   TEWEN  =      3294.52470105
  -Hartree energ DENC   =     -4088.75394552
  -exchange      EXHF   =         0.00000000
  -V(xc)+E(xc)   XCENC  =       132.76244478
  PAW double counting   =      2754.78413020    -2768.74119684
  entropy T*S    EENTRO =        -0.00000000
  eigenvalues    EBANDS =      -476.16349261
  atomic energy  EATOM  =      1137.62768647
  Solvation  Ediel_sol  =       -89.75738143
  ---------------------------------------------------
  free energy    TOTEN  =      -103.63209928 eV

  energy without entropy =     -103.63209928  energy(sigma->0) =     -103.63209928


--------------------------------------------------------------------------------------------------------




--------------------------------------- Iteration      1(   7)  ---------------------------------------


    POTLOK:  cpu time    123.2022: real time    124.0242
    SETDIJ:  cpu time      0.3005: real time      0.3022
    EDDIAG:  cpu time     10.5835: real time     10.6535
  RMM-DIIS:  cpu time     80.3008: real time     80.7944
    ORTHCH:  cpu time      0.0850: real time      0.0857
       DOS:  cpu time      0.0003: real time      0.0003
    CHARGE:  cpu time      6.1116: real time      6.1509
    MIXING:  cpu time      0.1278: real time      0.1286
    --------------------------------------------
      LOOP:  cpu time    220.7116: real time    222.1398

 eigenvalue-minimisations  :   214
 total energy-change (2. order) : 0.1248541E+00  (-0.5258387E-01)
 number of electron      35.0000003 magnetization      11.7702069
 augmentation part        0.9256048 magnetization      10.8531986

 Broyden mixing:
  rms(total) = 0.15598E+00    rms(broyden)= 0.15597E+00
  rms(prec ) = 0.15943E+00
  weight for this iteration     100.00

 eigenvalues of (default mixing * dielectric matrix)
  average eigenvalue GAMMA=   1.3127
  2.8819  1.6423  0.9820  0.9820  0.7497  0.6384

 Free energy of the ion-electron system (eV)
  ---------------------------------------------------
  alpha Z        PSCENC =         0.08495462
  Ewald energy   TEWEN  =      3294.52470105
  -Hartree energ DENC   =     -4083.43860915
  -exchange      EXHF   =         0.00000000
  -V(xc)+E(xc)   XCENC  =       133.07838154
  PAW double counting   =      2797.70664699    -2811.65445574
  entropy T*S    EENTRO =        -0.00000000
  eigenvalues    EBANDS =      -475.11690202
  atomic energy  EATOM  =      1137.62768647
  Solvation  Ediel_sol  =       -96.31964895
  ---------------------------------------------------
  free energy    TOTEN  =      -103.50724519 eV

  energy without entropy =     -103.50724519  energy(sigma->0) =     -103.50724519


--------------------------------------------------------------------------------------------------------




--------------------------------------- Iteration      1(   8)  ---------------------------------------


    POTLOK:  cpu time    121.2225: real time    122.0469
    SETDIJ:  cpu time      0.2989: real time      0.3006
    EDDIAG:  cpu time     10.6264: real time     10.6983
  RMM-DIIS:  cpu time     80.3005: real time     80.8189
    ORTHCH:  cpu time      0.0854: real time      0.0861
       DOS:  cpu time      0.0003: real time      0.0003
    CHARGE:  cpu time      6.2178: real time      6.2581
    MIXING:  cpu time      0.1683: real time      0.1694
    --------------------------------------------
      LOOP:  cpu time    218.9203: real time    220.3786

 eigenvalue-minimisations  :   214
 total energy-change (2. order) : 0.1371451E+01  (-0.4816750E-01)
 number of electron      35.0000003 magnetization      10.1793593
 augmentation part        0.9247696 magnetization       9.2661357

 Broyden mixing:
  rms(total) = 0.12093E+00    rms(broyden)= 0.12093E+00
  rms(prec ) = 0.12370E+00
  weight for this iteration     100.00

 eigenvalues of (default mixing * dielectric matrix)
  average eigenvalue GAMMA=   1.4903
  3.3954  2.3107  1.2341  1.2341  0.8958  0.7340  0.6281

 Free energy of the ion-electron system (eV)
  ---------------------------------------------------
  alpha Z        PSCENC =         0.08495462
  Ewald energy   TEWEN  =      3294.52470105
  -Hartree energ DENC   =     -4075.53800350
  -exchange      EXHF   =         0.00000000
  -V(xc)+E(xc)   XCENC  =       134.36553558
  PAW double counting   =      2775.12964350    -2789.07075475
  entropy T*S    EENTRO =        -0.00000000
  eigenvalues    EBANDS =      -476.75747361
  atomic energy  EATOM  =      1137.62768647
  Solvation  Ediel_sol  =      -102.50208327
  ---------------------------------------------------
  free energy    TOTEN  =      -102.13579390 eV

  energy without entropy =     -102.13579390  energy(sigma->0) =     -102.13579390


--------------------------------------------------------------------------------------------------------




--------------------------------------- Iteration      1(   9)  ---------------------------------------


    POTLOK:  cpu time    127.5166: real time    128.3490
    SETDIJ:  cpu time      0.2971: real time      0.2989
    EDDIAG:  cpu time     10.7102: real time     10.7741
  RMM-DIIS:  cpu time     80.0912: real time     80.6024
    ORTHCH:  cpu time      0.0843: real time      0.0849
       DOS:  cpu time      0.0005: real time      0.0005
    CHARGE:  cpu time      6.1964: real time      6.2351
    MIXING:  cpu time      0.1430: real time      0.1442
    --------------------------------------------
      LOOP:  cpu time    225.0394: real time    226.4890

 eigenvalue-minimisations  :   213
 total energy-change (2. order) : 0.1624537E+01  (-0.4341316E-01)
 number of electron      35.0000003 magnetization       9.0943610
 augmentation part        0.9247755 magnetization       8.1851626

 Broyden mixing:
  rms(total) = 0.74827E-01    rms(broyden)= 0.74822E-01
  rms(prec ) = 0.76501E-01
  weight for this iteration     100.00

 eigenvalues of (default mixing * dielectric matrix)
  average eigenvalue GAMMA=   1.6356
  4.7769  2.5010  1.5935  1.0303  1.0303  0.6274  0.7876  0.7373

 Free energy of the ion-electron system (eV)
  ---------------------------------------------------
  alpha Z        PSCENC =         0.08495462
  Ewald energy   TEWEN  =      3294.52470105
  -Hartree energ DENC   =     -4061.28445247
  -exchange      EXHF   =         0.00000000
  -V(xc)+E(xc)   XCENC  =       135.93188288
  PAW double counting   =      2755.17719878    -2769.10409937
  entropy T*S    EENTRO =        -0.00000000
  eigenvalues    EBANDS =      -478.79312915
  atomic energy  EATOM  =      1137.62768647
  Solvation  Ediel_sol  =      -114.67599968
  ---------------------------------------------------
  free energy    TOTEN  =      -100.51125687 eV

  energy without entropy =     -100.51125687  energy(sigma->0) =     -100.51125687


--------------------------------------------------------------------------------------------------------




--------------------------------------- Iteration      1(  10)  ---------------------------------------


    POTLOK:  cpu time    121.9455: real time    122.7657
    SETDIJ:  cpu time      0.2979: real time      0.2996
    EDDIAG:  cpu time     10.6169: real time     10.6874
  RMM-DIIS:  cpu time     80.3160: real time     80.8563
    ORTHCH:  cpu time      0.0842: real time      0.0849
       DOS:  cpu time      0.0004: real time      0.0004
    CHARGE:  cpu time      6.1276: real time      6.1685
    MIXING:  cpu time      0.1499: real time      0.1509
    --------------------------------------------
      LOOP:  cpu time    219.5385: real time    221.0137

 eigenvalue-minimisations  :   214
 total energy-change (2. order) : 0.1009649E+01  (-0.1774388E-01)
 number of electron      35.0000003 magnetization       8.2376432
 augmentation part        0.9236004 magnetization       7.3314710

 Broyden mixing:
  rms(total) = 0.52994E-01    rms(broyden)= 0.52989E-01
  rms(prec ) = 0.53882E-01
  weight for this iteration     100.00

 eigenvalues of (default mixing * dielectric matrix)
  average eigenvalue GAMMA=   1.7497
  6.2924  2.4816  1.7285  1.1594  1.1594  0.8577  0.6271  0.7204  0.7204

 Free energy of the ion-electron system (eV)
  ---------------------------------------------------
  alpha Z        PSCENC =         0.08495462
  Ewald energy   TEWEN  =      3294.52470105
  -Hartree energ DENC   =     -4053.75185592
  -exchange      EXHF   =         0.00000000
  -V(xc)+E(xc)   XCENC  =       136.94221437
  PAW double counting   =      2756.34017565    -2770.26867750
  entropy T*S    EENTRO =        -0.00000000
  eigenvalues    EBANDS =      -479.09612680
  atomic energy  EATOM  =      1137.62768647
  Solvation  Ediel_sol  =      -121.90467994
  ---------------------------------------------------
  free energy    TOTEN  =       -99.50160800 eV

  energy without entropy =      -99.50160800  energy(sigma->0) =      -99.50160800


--------------------------------------------------------------------------------------------------------




--------------------------------------- Iteration      1(  11)  ---------------------------------------


    POTLOK:  cpu time    119.0361: real time    119.8114
    SETDIJ:  cpu time      0.3337: real time      0.3353
    EDDIAG:  cpu time     10.5436: real time     10.6090
  RMM-DIIS:  cpu time     80.4140: real time     80.9119
    ORTHCH:  cpu time      0.0847: real time      0.0855
       DOS:  cpu time      0.0002: real time      0.0002
    CHARGE:  cpu time      5.9507: real time      5.9890
    MIXING:  cpu time      0.1594: real time      0.1605
    --------------------------------------------
      LOOP:  cpu time    216.5225: real time    217.9028

 eigenvalue-minimisations  :   214
 total energy-change (2. order) : 0.8682420E+00  (-0.1306578E-01)
 number of electron      35.0000003 magnetization       7.3814447
 augmentation part        0.9234280 magnetization       6.4776448

 Broyden mixing:
  rms(total) = 0.39617E-01    rms(broyden)= 0.39612E-01
  rms(prec ) = 0.39998E-01
  weight for this iteration     100.00

 eigenvalues of (default mixing * dielectric matrix)
  average eigenvalue GAMMA=   1.8471
  7.3560  2.6034  1.8603  1.5524  1.0779  1.0779  0.8089  0.8089  0.6268  0.6984

 Free energy of the ion-electron system (eV)
  ---------------------------------------------------
  alpha Z        PSCENC =         0.08495462
  Ewald energy   TEWEN  =      3294.52470105
  -Hartree energ DENC   =     -4048.42210315
  -exchange      EXHF   =         0.00000000
  -V(xc)+E(xc)   XCENC  =       137.76565688
  PAW double counting   =      2752.05702668    -2765.98245330
  entropy T*S    EENTRO =        -0.00000000
  eigenvalues    EBANDS =      -480.02532583
  atomic energy  EATOM  =      1137.62768647
  Solvation  Ediel_sol  =      -126.26350944
  ---------------------------------------------------
  free energy    TOTEN  =       -98.63336602 eV

  energy without entropy =      -98.63336602  energy(sigma->0) =      -98.63336602


--------------------------------------------------------------------------------------------------------




--------------------------------------- Iteration      1(  12)  ---------------------------------------


    POTLOK:  cpu time    115.0382: real time    115.8046
    SETDIJ:  cpu time      0.2989: real time      0.3004
    EDDIAG:  cpu time     10.6222: real time     10.6879
  RMM-DIIS:  cpu time     80.6055: real time     81.1012
    ORTHCH:  cpu time      0.0839: real time      0.0846
       DOS:  cpu time      0.0003: real time      0.0003
    CHARGE:  cpu time      6.1347: real time      6.1729
    MIXING:  cpu time      0.1678: real time      0.1693
    --------------------------------------------
      LOOP:  cpu time    212.9515: real time    214.3212

 eigenvalue-minimisations  :   214
 total energy-change (2. order) : 0.9289562E+00  (-0.5325808E-02)
 number of electron      35.0000003 magnetization       6.6198408
 augmentation part        0.9237584 magnetization       5.7180186

 Broyden mixing:
  rms(total) = 0.31063E-01    rms(broyden)= 0.31060E-01
  rms(prec ) = 0.31210E-01
  weight for this iteration     100.00

 eigenvalues of (default mixing * dielectric matrix)
  average eigenvalue GAMMA=   1.8895
  7.9893  2.9554  2.1852  1.6158  1.1591  1.1591  0.7982  0.7982  0.8211  0.6285
  0.6748

 Free energy of the ion-electron system (eV)
  ---------------------------------------------------
  alpha Z        PSCENC =         0.08495462
  Ewald energy   TEWEN  =      3294.52470105
  -Hartree energ DENC   =     -4044.69818004
  -exchange      EXHF   =         0.00000000
  -V(xc)+E(xc)   XCENC  =       138.65471462
  PAW double counting   =      2745.97903543    -2759.90804416
  entropy T*S    EENTRO =        -0.00000000
  eigenvalues    EBANDS =      -480.68850790
  atomic energy  EATOM  =      1137.62768647
  Solvation  Ediel_sol  =      -129.28076987
  ---------------------------------------------------
  free energy    TOTEN  =       -97.70440978 eV

  energy without entropy =      -97.70440978  energy(sigma->0) =      -97.70440978


--------------------------------------------------------------------------------------------------------




--------------------------------------- Iteration      1(  13)  ---------------------------------------


    POTLOK:  cpu time    113.1361: real time    113.8599
    SETDIJ:  cpu time      0.3310: real time      0.3328
    EDDIAG:  cpu time     10.6970: real time     10.7641
  RMM-DIIS:  cpu time     79.9408: real time     80.4554
    ORTHCH:  cpu time      0.0846: real time      0.0853
       DOS:  cpu time      0.0005: real time      0.0005
    CHARGE:  cpu time      6.1086: real time      6.1518
    MIXING:  cpu time      0.1779: real time      0.1793
    --------------------------------------------
      LOOP:  cpu time    210.4765: real time    211.8291

 eigenvalue-minimisations  :   214
 total energy-change (2. order) : 0.7058616E+00  ( 0.7264438E-02)
 number of electron      35.0000003 magnetization       5.7068685
 augmentation part        0.9237377 magnetization       4.8058460

 Broyden mixing:
  rms(total) = 0.24729E-01    rms(broyden)= 0.24728E-01
  rms(prec ) = 0.24763E-01
  weight for this iteration     100.00

 eigenvalues of (default mixing * dielectric matrix)
  average eigenvalue GAMMA=   1.9753
  8.6468  3.7240  2.4651  1.6214  1.1153  1.1153  1.1709  1.0261  0.7682  0.7682
  0.6305  0.6517

 Free energy of the ion-electron system (eV)
  ---------------------------------------------------
  alpha Z        PSCENC =         0.08495462
  Ewald energy   TEWEN  =      3294.52470105
  -Hartree energ DENC   =     -4042.88469650
  -exchange      EXHF   =         0.00000000
  -V(xc)+E(xc)   XCENC  =       139.35129547
  PAW double counting   =      2748.71568156    -2762.65056087
  entropy T*S    EENTRO =        -0.00000000
  eigenvalues    EBANDS =      -480.54546828
  atomic energy  EATOM  =      1137.62768647
  Solvation  Ediel_sol  =      -131.22214167
  ---------------------------------------------------
  free energy    TOTEN  =       -96.99854815 eV

  energy without entropy =      -96.99854815  energy(sigma->0) =      -96.99854815


--------------------------------------------------------------------------------------------------------




--------------------------------------- Iteration      1(  14)  ---------------------------------------


    POTLOK:  cpu time    112.7407: real time    113.5002
    SETDIJ:  cpu time      0.2970: real time      0.2987
    EDDIAG:  cpu time     10.6205: real time     10.6884
  RMM-DIIS:  cpu time     80.3891: real time     80.9218
    ORTHCH:  cpu time      0.0844: real time      0.0850
       DOS:  cpu time      0.0003: real time      0.0003
    CHARGE:  cpu time      6.1466: real time      6.1836
    MIXING:  cpu time      0.1881: real time      0.1896
    --------------------------------------------
      LOOP:  cpu time    210.4667: real time    211.8674

 eigenvalue-minimisations  :   214
 total energy-change (2. order) : 0.6332117E+00  ( 0.4367670E-02)
 number of electron      35.0000003 magnetization       5.1188623
 augmentation part        0.9235904 magnetization       4.2181014

 Broyden mixing:
  rms(total) = 0.21023E-01    rms(broyden)= 0.21022E-01
  rms(prec ) = 0.21061E-01
  weight for this iteration     100.00

 eigenvalues of (default mixing * dielectric matrix)
  average eigenvalue GAMMA=   2.0149
  9.2380  4.3533  2.6106  1.8961  1.4071  1.1475  1.1475  0.8284  0.8284  0.7427
  0.7427  0.6256  0.6256

 Free energy of the ion-electron system (eV)
  ---------------------------------------------------
  alpha Z        PSCENC =         0.08495462
  Ewald energy   TEWEN  =      3294.52470105
  -Hartree energ DENC   =     -4041.41350157
  -exchange      EXHF   =         0.00000000
  -V(xc)+E(xc)   XCENC  =       139.98008391
  PAW double counting   =      2754.10458930    -2768.04053833
  entropy T*S    EENTRO =        -0.00000000
  eigenvalues    EBANDS =      -480.29193968
  atomic energy  EATOM  =      1137.62768647
  Solvation  Ediel_sol  =      -132.94137220
  ---------------------------------------------------
  free energy    TOTEN  =       -96.36533643 eV

  energy without entropy =      -96.36533643  energy(sigma->0) =      -96.36533643


--------------------------------------------------------------------------------------------------------




--------------------------------------- Iteration      1(  15)  ---------------------------------------


    POTLOK:  cpu time    113.5639: real time    114.3251
    SETDIJ:  cpu time      0.2989: real time      0.3003
    EDDIAG:  cpu time     10.5708: real time     10.6355
  RMM-DIIS:  cpu time     80.1640: real time     80.6555
    ORTHCH:  cpu time      0.0842: real time      0.0848
       DOS:  cpu time      0.0006: real time      0.0006
    CHARGE:  cpu time      6.0866: real time      6.1267
    MIXING:  cpu time      0.1997: real time      0.2012
    --------------------------------------------
      LOOP:  cpu time    210.9687: real time    212.3296

 eigenvalue-minimisations  :   214
 total energy-change (2. order) : 0.3245713E+00  (-0.3001066E-02)
 number of electron      35.0000003 magnetization       4.4863711
 augmentation part        0.9231314 magnetization       3.5862009

 Broyden mixing:
  rms(total) = 0.18516E-01    rms(broyden)= 0.18514E-01
  rms(prec ) = 0.18569E-01
  weight for this iteration     100.00

 eigenvalues of (default mixing * dielectric matrix)
  average eigenvalue GAMMA=   2.0484
  9.7789  4.8529  2.7091  2.2318  1.3410  1.1852  1.1852  0.9580  0.9580  0.7459
  0.7459  0.7291  0.6284  0.6284

 Free energy of the ion-electron system (eV)
  ---------------------------------------------------
  alpha Z        PSCENC =         0.08495462
  Ewald energy   TEWEN  =      3294.52470105
  -Hartree energ DENC   =     -4040.72661193
  -exchange      EXHF   =         0.00000000
  -V(xc)+E(xc)   XCENC  =       140.30092083
  PAW double counting   =      2758.03756514    -2771.96965324
  entropy T*S    EENTRO =        -0.00000000
  eigenvalues    EBANDS =      -480.36448442
  atomic energy  EATOM  =      1137.62768647
  Solvation  Ediel_sol  =      -133.55584369
  ---------------------------------------------------
  free energy    TOTEN  =       -96.04076517 eV

  energy without entropy =      -96.04076517  energy(sigma->0) =      -96.04076517


--------------------------------------------------------------------------------------------------------




--------------------------------------- Iteration      1(  16)  ---------------------------------------


    POTLOK:  cpu time    113.0397: real time    113.7859
    SETDIJ:  cpu time      0.3001: real time      0.3023
    EDDIAG:  cpu time     10.5429: real time     10.6137
  RMM-DIIS:  cpu time     80.3505: real time     80.8833
    ORTHCH:  cpu time      0.0839: real time      0.0846
       DOS:  cpu time      0.0006: real time      0.0006
    CHARGE:  cpu time      6.1199: real time      6.1620
    MIXING:  cpu time      0.2123: real time      0.2141
    --------------------------------------------
      LOOP:  cpu time    210.6500: real time    212.0465

 eigenvalue-minimisations  :   214
 total energy-change (2. order) : 0.3630926E+00  (-0.9582625E-03)
 number of electron      35.0000003 magnetization       3.7363075
 augmentation part        0.9230292 magnetization       2.8370346

 Broyden mixing:
  rms(total) = 0.15040E-01    rms(broyden)= 0.15038E-01
  rms(prec ) = 0.15071E-01
  weight for this iteration     100.00

 eigenvalues of (default mixing * dielectric matrix)
  average eigenvalue GAMMA=   2.0792
 10.2675  5.4311  2.8869  2.3725  1.3354  1.3354  1.0167  1.0167  1.0364  1.0364
  0.7577  0.7577  0.6748  0.6316  0.6316

 Free energy of the ion-electron system (eV)
  ---------------------------------------------------
  alpha Z        PSCENC =         0.08495462
  Ewald energy   TEWEN  =      3294.52470105
  -Hartree energ DENC   =     -4040.05443929
  -exchange      EXHF   =         0.00000000
  -V(xc)+E(xc)   XCENC  =       140.64310332
  PAW double counting   =      2759.91187499    -2773.83679386
  entropy T*S    EENTRO =        -0.00000000
  eigenvalues    EBANDS =      -480.82187502
  atomic energy  EATOM  =      1137.62768647
  Solvation  Ediel_sol  =      -133.75688483
  ---------------------------------------------------
  free energy    TOTEN  =       -95.67767254 eV

  energy without entropy =      -95.67767254  energy(sigma->0) =      -95.67767254


--------------------------------------------------------------------------------------------------------




--------------------------------------- Iteration      1(  17)  ---------------------------------------


    POTLOK:  cpu time    108.0425: real time    108.7527
    SETDIJ:  cpu time      0.2975: real time      0.2990
    EDDIAG:  cpu time     10.6953: real time     10.7643
  RMM-DIIS:  cpu time     80.4550: real time     80.9798
    ORTHCH:  cpu time      0.0836: real time      0.0843
       DOS:  cpu time      0.0005: real time      0.0005
    CHARGE:  cpu time      6.2020: real time      6.2464
    MIXING:  cpu time      0.2272: real time      0.2288
    --------------------------------------------
      LOOP:  cpu time    206.0035: real time    207.3558

 eigenvalue-minimisations  :   214
 total energy-change (2. order) : 0.4085664E+00  (-0.1178200E-02)
 number of electron      35.0000003 magnetization       2.9338118
 augmentation part        0.9228209 magnetization       2.0352029

 Broyden mixing:
  rms(total) = 0.13062E-01    rms(broyden)= 0.13061E-01
  rms(prec ) = 0.13124E-01
  weight for this iteration     100.00

 eigenvalues of (default mixing * dielectric matrix)
  average eigenvalue GAMMA=   2.1696
 11.0238  6.2730  3.2428  2.6088  1.7334  1.4133  1.1770  1.1770  0.9494  0.9494
  0.7726  0.7447  0.7447  0.6549  0.6240  0.6251

 Free energy of the ion-electron system (eV)
  ---------------------------------------------------
  alpha Z        PSCENC =         0.08495462
  Ewald energy   TEWEN  =      3294.52470105
  -Hartree energ DENC   =     -4039.66012837
  -exchange      EXHF   =         0.00000000
  -V(xc)+E(xc)   XCENC  =       141.03882621
  PAW double counting   =      2759.93506016    -2773.85595042
  entropy T*S    EENTRO =        -0.00000000
  eigenvalues    EBANDS =      -481.23625828
  atomic energy  EATOM  =      1137.62768647
  Solvation  Ediel_sol  =      -133.72799754
  ---------------------------------------------------
  free energy    TOTEN  =       -95.26910610 eV

  energy without entropy =      -95.26910610  energy(sigma->0) =      -95.26910610


--------------------------------------------------------------------------------------------------------




--------------------------------------- Iteration      1(  18)  ---------------------------------------


    POTLOK:  cpu time    109.7633: real time    110.5095
    SETDIJ:  cpu time      0.2984: real time      0.3003
    EDDIAG:  cpu time     10.5854: real time     10.6600
  RMM-DIIS:  cpu time     80.8487: real time     81.3821
    ORTHCH:  cpu time      0.0868: real time      0.0874
       DOS:  cpu time      0.0003: real time      0.0004
    CHARGE:  cpu time      6.1138: real time      6.1538
    MIXING:  cpu time      0.2403: real time      0.2420
    --------------------------------------------
      LOOP:  cpu time    207.9370: real time    209.3355

 eigenvalue-minimisations  :   214
 total energy-change (2. order) : 0.4090175E+00  (-0.2047015E-02)
 number of electron      35.0000003 magnetization       2.2101297
 augmentation part        0.9228229 magnetization       1.3122479

 Broyden mixing:
  rms(total) = 0.10513E-01    rms(broyden)= 0.10512E-01
  rms(prec ) = 0.10604E-01
  weight for this iteration     100.00

 eigenvalues of (default mixing * dielectric matrix)
  average eigenvalue GAMMA=   2.2118
 11.6730  6.7836  3.3828  2.8038  2.1907  1.3069  1.3069  0.9350  0.9350  1.0550
  1.0550  0.7548  0.7548  0.7617  0.6658  0.6179  0.6179

 Free energy of the ion-electron system (eV)
  ---------------------------------------------------
  alpha Z        PSCENC =         0.08495462
  Ewald energy   TEWEN  =      3294.52470105
  -Hartree energ DENC   =     -4039.62328518
  -exchange      EXHF   =         0.00000000
  -V(xc)+E(xc)   XCENC  =       141.44782489
  PAW double counting   =      2758.45259071    -2772.37365453
  entropy T*S    EENTRO =        -0.00000000
  eigenvalues    EBANDS =      -481.50036258
  atomic energy  EATOM  =      1137.62768647
  Solvation  Ediel_sol  =      -133.50054408
  ---------------------------------------------------
  free energy    TOTEN  =       -94.86008863 eV

  energy without entropy =      -94.86008863  energy(sigma->0) =      -94.86008863


--------------------------------------------------------------------------------------------------------




--------------------------------------- Iteration      1(  19)  ---------------------------------------


    POTLOK:  cpu time    112.5571: real time    113.3158
    SETDIJ:  cpu time      0.2979: real time      0.2993
    EDDIAG:  cpu time     10.6302: real time     10.6991
  RMM-DIIS:  cpu time     80.1087: real time     80.6249
    ORTHCH:  cpu time      0.0831: real time      0.0837
       DOS:  cpu time      0.0005: real time      0.0005
    CHARGE:  cpu time      6.1389: real time      6.1805
    MIXING:  cpu time      0.2546: real time      0.2565
    --------------------------------------------
      LOOP:  cpu time    210.0711: real time    211.4605

 eigenvalue-minimisations  :   214
 total energy-change (2. order) : 0.3365827E+00  ( 0.1248447E-02)
 number of electron      35.0000003 magnetization       1.4447088
 augmentation part        0.9226426 magnetization       0.5468966

 Broyden mixing:
  rms(total) = 0.73867E-02    rms(broyden)= 0.73863E-02
  rms(prec ) = 0.74324E-02
  weight for this iteration     100.00

 eigenvalues of (default mixing * dielectric matrix)
  average eigenvalue GAMMA=   2.5354
 15.1403  8.5293  4.6938  2.5974  2.5974  1.4476  1.4476  1.1643  1.1643  0.9509
  0.9509  0.9126  0.7347  0.7347  0.6873  0.6425  0.6205  0.6205

 Free energy of the ion-electron system (eV)
  ---------------------------------------------------
  alpha Z        PSCENC =         0.08495462
  Ewald energy   TEWEN  =      3294.52470105
  -Hartree energ DENC   =     -4040.03740134
  -exchange      EXHF   =         0.00000000
  -V(xc)+E(xc)   XCENC  =       141.79405422
  PAW double counting   =      2758.23355702    -2772.15832121
  entropy T*S    EENTRO =        -0.00000000
  eigenvalues    EBANDS =      -481.37002953
  atomic energy  EATOM  =      1137.62768647
  Solvation  Ediel_sol  =      -133.22270722
  ---------------------------------------------------
  free energy    TOTEN  =       -94.52350593 eV

  energy without entropy =      -94.52350593  energy(sigma->0) =      -94.52350593


--------------------------------------------------------------------------------------------------------




--------------------------------------- Iteration      1(  20)  ---------------------------------------


    POTLOK:  cpu time    108.4825: real time    109.2260
    SETDIJ:  cpu time      0.3002: real time      0.3018
    EDDIAG:  cpu time     10.6354: real time     10.7073
  RMM-DIIS:  cpu time     80.4301: real time     80.9434
    ORTHCH:  cpu time      0.0858: real time      0.0864
       DOS:  cpu time      0.0004: real time      0.0004
    CHARGE:  cpu time      6.1473: real time      6.1836
    MIXING:  cpu time      0.2706: real time      0.2725
    --------------------------------------------
      LOOP:  cpu time    206.3524: real time    207.7214

 eigenvalue-minimisations  :   214
 total energy-change (2. order) : 0.2618094E+00  ( 0.1640951E-02)
 number of electron      35.0000003 magnetization       1.2635337
 augmentation part        0.9226842 magnetization       0.3656037

 Broyden mixing:
  rms(total) = 0.42645E-02    rms(broyden)= 0.42643E-02
  rms(prec ) = 0.43025E-02
  weight for this iteration     100.00

 eigenvalues of (default mixing * dielectric matrix)
  average eigenvalue GAMMA=   2.6333
 17.7691  9.0296  4.9527  2.6518  2.6518  1.4282  1.4282  1.2167  1.2167  0.9066
  0.9066  1.0195  0.8479  0.7457  0.7457  0.6777  0.6170  0.6170  0.6034

 Free energy of the ion-electron system (eV)
  ---------------------------------------------------
  alpha Z        PSCENC =         0.08495462
  Ewald energy   TEWEN  =      3294.52470105
  -Hartree energ DENC   =     -4040.50601203
  -exchange      EXHF   =         0.00000000
  -V(xc)+E(xc)   XCENC  =       142.06583883
  PAW double counting   =      2758.72787656    -2772.65458210
  entropy T*S    EENTRO =        -0.00000000
  eigenvalues    EBANDS =      -481.22900131
  atomic energy  EATOM  =      1137.62768647
  Solvation  Ediel_sol  =      -132.90315865
  ---------------------------------------------------
  free energy    TOTEN  =       -94.26169656 eV

  energy without entropy =      -94.26169656  energy(sigma->0) =      -94.26169656


--------------------------------------------------------------------------------------------------------




--------------------------------------- Iteration      1(  21)  ---------------------------------------


    POTLOK:  cpu time    105.9957: real time    106.6921
    SETDIJ:  cpu time      0.2992: real time      0.3009
    EDDIAG:  cpu time     10.6261: real time     10.6937
  RMM-DIIS:  cpu time     80.2232: real time     80.7147
    ORTHCH:  cpu time      0.0844: real time      0.0851
       DOS:  cpu time      0.0005: real time      0.0005
    CHARGE:  cpu time      6.0887: real time      6.1247
    MIXING:  cpu time      0.2847: real time      0.2869
    --------------------------------------------
      LOOP:  cpu time    203.6023: real time    204.8986

 eigenvalue-minimisations  :   214
 total energy-change (2. order) : 0.7375726E-01  (-0.1629620E-02)
 number of electron      35.0000003 magnetization       1.1108537
 augmentation part        0.9227241 magnetization       0.2133358

 Broyden mixing:
  rms(total) = 0.45352E-02    rms(broyden)= 0.45342E-02
  rms(prec ) = 0.45637E-02
  weight for this iteration     100.00

 eigenvalues of (default mixing * dielectric matrix)
[...]
  eigenvalues    EBANDS =      -482.32880971
  atomic energy  EATOM  =      1137.62768647
  Solvation  Ediel_sol  =      -133.01003614
  ---------------------------------------------------
  free energy    TOTEN  =       -94.07412996 eV

  energy without entropy =      -94.07412996  energy(sigma->0) =      -94.07412996


--------------------------------------------------------------------------------------------------------




--------------------------------------- Iteration     18(   3)  ---------------------------------------


    POTLOK:  cpu time    101.7160: real time    102.5612
    SETDIJ:  cpu time      0.2969: real time      0.2992
    EDDIAG:  cpu time     10.5862: real time     10.6759
  RMM-DIIS:  cpu time     53.2144: real time     53.6386
    ORTHCH:  cpu time      0.0845: real time      0.0856
       DOS:  cpu time      0.0003: real time      0.0003
    CHARGE:  cpu time      6.0994: real time      6.1511
    MIXING:  cpu time      0.1114: real time      0.1125
    --------------------------------------------
      LOOP:  cpu time    172.1091: real time    173.5244

 eigenvalue-minimisations  :   119
 total energy-change (2. order) :-0.1221718E-04  (-0.2304710E-05)
 number of electron      35.0000000 magnetization       0.9999349
 augmentation part        0.9314318 magnetization       0.1094283

 Broyden mixing:
  rms(total) = 0.69548E-03    rms(broyden)= 0.69540E-03
  rms(prec ) = 0.70165E-03
  weight for this iteration     100.00

 eigenvalues of (default mixing * dielectric matrix)
  average eigenvalue GAMMA=   1.4401
  0.6753  2.2049

 Free energy of the ion-electron system (eV)
  ---------------------------------------------------
  alpha Z        PSCENC =         0.08495462
  Ewald energy   TEWEN  =      3311.53047314
  -Hartree energ DENC   =     -4056.71493872
  -exchange      EXHF   =         0.00000000
  -V(xc)+E(xc)   XCENC  =       142.67721950
  PAW double counting   =      2810.38330115    -2824.32745909
  entropy T*S    EENTRO =        -0.00000000
  eigenvalues    EBANDS =      -482.32358827
  atomic energy  EATOM  =      1137.62768647
  Solvation  Ediel_sol  =      -133.01179098
  ---------------------------------------------------
  free energy    TOTEN  =       -94.07414218 eV

  energy without entropy =      -94.07414218  energy(sigma->0) =      -94.07414218


--------------------------------------------------------------------------------------------------------




--------------------------------------- Iteration     18(   4)  ---------------------------------------


    POTLOK:  cpu time    103.1054: real time    103.9766
    SETDIJ:  cpu time      0.2966: real time      0.2988
    EDDIAG:  cpu time     10.6311: real time     10.7216
  RMM-DIIS:  cpu time     51.2203: real time     51.6390
    ORTHCH:  cpu time      0.0854: real time      0.0861
       DOS:  cpu time      0.0004: real time      0.0005
    --------------------------------------------
      LOOP:  cpu time    165.3393: real time    166.7225

 eigenvalue-minimisations  :   110
 total energy-change (2. order) :-0.7002267E-05  (-0.1142579E-05)
 number of electron      35.0000000 magnetization       0.9999349
 augmentation part        0.9314318 magnetization       0.1094283

 Free energy of the ion-electron system (eV)
  ---------------------------------------------------
  alpha Z        PSCENC =         0.08495462
  Ewald energy   TEWEN  =      3311.53047314
  -Hartree energ DENC   =     -4056.71951045
  -exchange      EXHF   =         0.00000000
  -V(xc)+E(xc)   XCENC  =       142.67739217
  PAW double counting   =      2810.42496030    -2824.36914670
  entropy T*S    EENTRO =        -0.00000000
  eigenvalues    EBANDS =      -482.31692414
  atomic energy  EATOM  =      1137.62768647
  Solvation  Ediel_sol  =      -133.01403461
  ---------------------------------------------------
  free energy    TOTEN  =       -94.07414918 eV

  energy without entropy =      -94.07414918  energy(sigma->0) =      -94.07414918


--------------------------------------------------------------------------------------------------------




 average (electrostatic) potential at core
  the test charge radii are     0.6991  0.7089  0.5201
  (the norm of the test charge is              1.0000)
       1 -60.8564       2 -61.1785       3 -62.2227       4 -62.2228       5 -61.1789
       6 -79.0812       7 -47.3892       8 -44.3900       9 -44.2946      10 -44.8762
      11 -44.9612      12 -44.8772      13 -44.9613      14 -44.3898      15 -44.2949
      16 -44.2183      17 -44.1085
 
 
 
 E-fermi :  -7.0931     XC(G=0):  -0.0237     alpha+bet : -0.0139

 Fermi energy:        -7.0931327339

 spin component 1

 k-point     1 :       0.0000    0.0000    0.0000
  band No.  band energies     occupation 
      1     -26.5496      1.00000
      2     -21.3138      1.00000
      3     -20.7308      1.00000
      4     -17.5777      1.00000
      5     -17.1704      1.00000
      6     -15.6139      1.00000
      7     -14.3029      1.00000
      8     -12.8182      1.00000
      9     -12.4661      1.00000
     10     -12.0574      1.00000
     11     -11.3610      1.00000
     12     -11.0222      1.00000
     13     -10.3772      1.00000
     14      -9.4887      1.00000
     15      -9.4644      1.00000
     16      -8.7034      1.00000
     17      -8.5686      1.00000
     18      -7.3621      1.00000
     19      -0.0142      0.00000
     20       0.0536      0.00000
     21       0.0859      0.00000
     22       0.0866      0.00000
     23       0.0869      0.00000
     24       0.0896      0.00000
     25       0.0900      0.00000
     26       0.1490      0.00000
     27       0.1727      0.00000
     28       0.1758      0.00000
     29       0.1761      0.00000
     30       0.1817      0.00000
     31       0.1819      0.00000
     32       0.1821      0.00000
     33       0.1835      0.00000
     34       0.1838      0.00000
     35       0.1839      0.00000
     36       0.1840      0.00000
 Fermi energy:        -7.0931327339

 spin component 2

 k-point     1 :       0.0000    0.0000    0.0000
  band No.  band energies     occupation 
      1     -25.6373      1.00000
      2     -21.0915      1.00000
      3     -20.6282      1.00000
      4     -17.3047      1.00000
      5     -17.0526      1.00000
      6     -15.4318      1.00000
      7     -14.0611      1.00000
      8     -12.6698      1.00000
      9     -12.0623      1.00000
     10     -11.7744      1.00000
     11     -11.2697      1.00000
     12     -10.7381      1.00000
     13     -10.1833      1.00000
     14      -9.3789      1.00000
     15      -8.9050      1.00000
     16      -8.6566      1.00000
     17      -8.5233      1.00000
     18      -4.9729      0.00000
     19      -0.0132      0.00000
     20       0.0614      0.00000
     21       0.0836      0.00000
     22       0.0839      0.00000
     23       0.0847      0.00000
     24       0.0876      0.00000
     25       0.0878      0.00000
     26       0.1533      0.00000
     27       0.1715      0.00000
     28       0.1735      0.00000
     29       0.1752      0.00000
     30       0.1789      0.00000
     31       0.1790      0.00000
     32       0.1797      0.00000
     33       0.1810      0.00000
     34       0.1817      0.00000
     35       0.1818      0.00000
     36       0.1821      0.00000


--------------------------------------------------------------------------------------------------------


 soft charge-density along one line, spin component           1
         0         1         2         3         4         5         6         7         8         9
 total charge-density along one line
 
 soft charge-density along one line, spin component           2
         0         1         2         3         4         5         6         7         8         9
 total charge-density along one line
 
 pseudopotential strength for first ion, spin component:           1
 10.438  13.879  -0.000  -0.002   0.003   0.000   0.003  -0.006
 13.879  18.453  -0.000  -0.003   0.004   0.000   0.004  -0.007
 -0.000  -0.000  -4.338   0.000  -0.000   8.428  -0.000   0.000
 -0.002  -0.003   0.000  -4.352  -0.004  -0.000   8.450   0.006
  0.003   0.004  -0.000  -0.004  -4.349   0.000   0.006   8.444
  0.000   0.000   8.428  -0.000   0.000 -18.646   0.000  -0.000
  0.003   0.004  -0.000   8.450   0.006   0.000 -18.677  -0.009
 -0.006  -0.007   0.000   0.006   8.444  -0.000  -0.009 -18.668
 pseudopotential strength for first ion, spin component:           2
 10.440  13.882  -0.000  -0.002   0.003   0.000   0.004  -0.007
 13.882  18.457  -0.000  -0.003   0.005   0.000   0.005  -0.008
 -0.000  -0.000  -4.340   0.000  -0.000   8.430  -0.000   0.000
 -0.002  -0.003   0.000  -4.353  -0.004  -0.000   8.451   0.006
  0.003   0.005  -0.000  -0.004  -4.349   0.000   0.006   8.444
  0.000   0.000   8.430  -0.000   0.000 -18.647   0.000  -0.000
  0.004   0.005  -0.000   8.451   0.006   0.000 -18.679  -0.009
 -0.007  -0.008   0.000   0.006   8.444  -0.000  -0.009 -18.670
 total augmentation occupancy for first ion, spin component:           1
  8.677  -3.931   0.000   0.016  -0.024   0.000  -0.004   0.008
 -3.931   1.812  -0.000   0.001  -0.005  -0.000   0.004  -0.008
  0.000  -0.000   1.587  -0.000   0.000   0.147  -0.000   0.000
  0.016   0.001  -0.000   1.661   0.022  -0.000   0.145  -0.000
 -0.024  -0.005   0.000   0.022   1.635   0.000  -0.000   0.146
  0.000  -0.000   0.147  -0.000   0.000   0.015  -0.000   0.000
 -0.004   0.004  -0.000   0.145  -0.000  -0.000   0.013  -0.000
  0.008  -0.008   0.000  -0.000   0.146   0.000  -0.000   0.014
 total augmentation occupancy for first ion, spin component:           2
  0.001  -0.003  -0.000  -0.000  -0.003  -0.000  -0.000  -0.000
 -0.003   0.002   0.000   0.001   0.000   0.000   0.000   0.000
 -0.000   0.000  -0.006   0.000   0.000  -0.000   0.000   0.000
 -0.000   0.001   0.000  -0.002   0.002  -0.000   0.000   0.000
 -0.003   0.000   0.000   0.002   0.004   0.000   0.000   0.000
 -0.000   0.000  -0.000  -0.000   0.000   0.000  -0.000  -0.000
 -0.000   0.000   0.000   0.000   0.000  -0.000   0.000   0.000
 -0.000   0.000   0.000   0.000   0.000  -0.000   0.000   0.000


------------------------ aborting loop because EDIFF is reached ----------------------------------------


    CHARGE:  cpu time      1.2959: real time      1.3047
    FORLOC:  cpu time      0.2166: real time      0.2184
    FORNL :  cpu time      3.8990: real time      3.9314
    STRESS:  cpu time    105.5952: real time    106.5047
    FORCOR:  cpu time      7.6498: real time      7.7126
    FORHAR:  cpu time      0.7850: real time      0.7919
    MIXING:  cpu time      0.1113: real time      0.1125
    OFIELD:  cpu time      0.0000: real time      0.0000

 ---------------------------------------------------------------------------------------------

         DFTD3 V3.0 Rev 1        
 Edisp (eV)   -0.11313

 E6    (eV) :    -0.0908
 E8    (eV) :    -0.0224
 % E8        : 19.76
    FORVDW:  cpu time      0.0043: real time      0.0044

  FORCE on cell =-STRESS in cart. coord.  units (eV):
  Direction    XX          YY          ZZ          XY          YZ          ZX
  --------------------------------------------------------------------------------------
  Alpha Z     0.08495     0.08495     0.08495
  Ewald    1328.19415  1459.07076   524.26622    -0.07635    -0.16275   -12.19231
  Hartree  1545.01929  1606.22919   905.46872    -0.04150    -0.10213    32.01329
  E(xc)    -130.51201  -130.32924  -130.64175    -0.00002    -0.00010    -0.12255
  Local   -3205.73659 -3389.14555 -1752.17865     0.11366     0.26038   -30.84574
  n-local   -59.29179   -59.46358   -63.02836     0.00074    -0.00011     1.29927
  augment     0.26361     0.19852     0.12615     0.00004     0.00002     0.07426
  Kinetic   522.12754   512.83212   516.67698     0.00714     0.00510     8.62931
  Fock        0.00000     0.00000     0.00000     0.00000     0.00000     0.00000
  vdW        -0.02506    -0.02924    -0.00684     0.00000     0.00000    -0.00099
  -------------------------------------------------------------------------------------
  Total       0.12409    -0.55206     0.76743     0.00371     0.00042    -1.14547
  in kB       0.00311    -0.01382     0.01921     0.00009     0.00001    -0.02868
  external pressure =        0.00 kB  Pullay stress =        0.00 kB


 VOLUME and BASIS-vectors are now :
 -----------------------------------------------------------------------------
  energy-cutoff  :      500.00
  volume of cell :    64000.00
      direct lattice vectors                 reciprocal lattice vectors
    40.000000000  0.000000000  0.000000000     0.025000000  0.000000000  0.000000000
     0.000000000 40.000000000  0.000000000     0.000000000  0.025000000  0.000000000
     0.000000000  0.000000000 40.000000000     0.000000000  0.000000000  0.025000000

  length of vectors
    40.000000000 40.000000000 40.000000000     0.025000000  0.025000000  0.025000000


 FORCES acting on ions
    electron-ion (+dipol)            ewald-force                    non-local-force                 convergence-correction
 -----------------------------------------------------------------------------------------------
   0.180E+03 0.713E-01 -.379E+02   -.182E+03 -.734E-01 0.384E+02   0.868E+00 0.147E-02 -.492E+00   0.139E-02 -.118E-03 0.601E-03
   0.845E+02 0.156E+03 0.563E+02   -.886E+02 -.157E+03 -.572E+02   0.243E+01 0.236E+00 0.844E+00   -.512E-03 0.118E-02 0.692E-03
   -.785E+02 0.178E+03 -.644E+02   0.747E+02 -.186E+03 0.672E+02   0.245E+01 0.654E+01 -.209E+01   0.627E-03 0.869E-03 0.130E-02
   -.784E+02 -.178E+03 -.643E+02   0.746E+02 0.186E+03 0.671E+02   0.245E+01 -.654E+01 -.208E+01   0.966E-03 -.107E-02 0.127E-02
   0.846E+02 -.156E+03 0.563E+02   -.887E+02 0.156E+03 -.572E+02   0.244E+01 -.234E+00 0.843E+00   -.614E-03 -.123E-02 0.584E-03
   -.238E+03 -.749E-01 0.499E+02   0.240E+03 0.726E-01 -.454E+02   -.361E+01 0.403E-02 -.231E+01   0.368E-03 0.162E-03 0.320E-02
   -.800E+02 -.241E-01 0.704E+02   0.846E+02 0.250E-01 -.757E+02   -.533E+01 -.184E-02 0.609E+01   0.177E-03 0.248E-04 0.893E-04
   0.405E+02 -.751E+02 -.171E+02   -.434E+02 0.802E+02 0.190E+02   0.259E+01 -.493E+01 -.204E+01   -.108E-03 -.705E-04 0.926E-04
   0.107E+02 -.304E+02 0.800E+02   -.109E+02 0.311E+02 -.859E+02   -.238E+00 -.493E+00 0.588E+01   -.121E-03 -.659E-04 0.224E-04
   -.483E+02 -.734E+02 0.159E+02   0.514E+02 0.786E+02 -.177E+02   -.333E+01 -.485E+01 0.202E+01   0.309E-03 -.168E-03 0.105E-03
   -.114E+02 -.284E+02 -.825E+02   0.110E+02 0.288E+02 0.886E+02   0.307E+00 -.211E+00 -.601E+01   0.130E-03 -.216E-03 0.497E-04
   -.484E+02 0.734E+02 0.159E+02   0.515E+02 -.786E+02 -.177E+02   -.334E+01 0.484E+01 0.202E+01   0.281E-03 0.119E-03 0.111E-03
   -.115E+02 0.284E+02 -.826E+02   0.110E+02 -.288E+02 0.886E+02   0.306E+00 0.209E+00 -.601E+01   0.985E-04 0.180E-03 0.515E-04
   0.405E+02 0.752E+02 -.171E+02   -.434E+02 -.802E+02 0.190E+02   0.259E+01 0.493E+01 -.204E+01   -.406E-04 0.134E-03 0.791E-04
   0.106E+02 0.304E+02 0.800E+02   -.109E+02 -.312E+02 -.859E+02   -.238E+00 0.495E+00 0.588E+01   -.112E-03 0.665E-04 0.819E-04
   0.833E+02 0.421E-01 0.249E+02   -.889E+02 -.452E-01 -.273E+02   0.525E+01 0.308E-02 0.246E+01   0.284E-03 -.605E-05 0.824E-04
   0.398E+02 0.888E-02 -.762E+02   -.412E+02 -.895E-02 0.819E+02   0.928E+00 0.955E-04 -.573E+01   0.300E-03 -.899E-05 -.158E-03
 -----------------------------------------------------------------------------------------------
   -.653E+01 -.728E-02 0.279E+01   -.284E-13 0.710E-13 -.284E-13   0.653E+01 0.122E-01 -.277E+01   0.342E-02 -.213E-03 0.826E-02
 
 
 POSITION                                       TOTAL-FORCE (eV/Angst)
 -----------------------------------------------------------------------------------
     18.64320     19.99955     20.12699         0.001396     -0.000468      0.005076
     19.39347     18.74131     19.71356         0.006505      0.007508      0.000230
     20.84522     18.77027     20.28471        -0.000003     -0.000050     -0.003147
     20.84440     21.23036     20.28425        -0.002819      0.004406     -0.003334
     19.39229     21.25822     19.71324         0.011698     -0.006767     -0.001377
     21.44212     20.00046     19.87256        -0.009723      0.002156     -0.002459
     22.10636     20.00067     19.10243         0.015756     -0.000973     -0.003915
     18.92125     22.16421     20.09827         0.000316      0.001628     -0.004666
     19.44961     21.33723     18.62488        -0.003366      0.001790     -0.004137
     21.43553     22.06510     19.91857        -0.001254      0.000879      0.009115
     20.78622     21.24165     21.37604        -0.000999     -0.004089     -0.001003
     21.43716     17.93608     19.91937        -0.000569     -0.005239      0.008178
     20.78724     18.75938     21.37650        -0.001882      0.003259     -0.000452
     18.92308     17.83506     20.09879        -0.000524     -0.001999     -0.004892
     19.45085     18.66198     18.62525        -0.003166     -0.001810     -0.004945
     17.65621     19.99899     19.65414        -0.007975     -0.000139      0.010057
     18.48585     19.99955     21.21044        -0.003390     -0.000093      0.001670
 -----------------------------------------------------------------------------------
    total drift:                                0.003214      0.004700      0.021724


--------------------------------------------------------------------------------------------------------



  FREE ENERGIE OF THE ION-ELECTRON SYSTEM (eV)
  ---------------------------------------------------
  free  energy   TOTEN  =       -94.18727880 eV

  energy  without entropy=      -94.18727880  energy(sigma->0) =      -94.18727880
 
 d Force = 0.5363550E-04[ 0.275E-04, 0.797E-04]  d Energy = 0.5985084E-04-0.622E-05
 d Force =-0.5924858E-01[-0.592E-01,-0.593E-01]  d Ewald  =-0.5924858E-01-0.123E-08


--------------------------------------------------------------------------------------------------------


    POTLOK:  cpu time     96.4362: real time     97.2458


--------------------------------------------------------------------------------------------------------


 Conjugate gradient step on ions:
 trial-energy change:   -0.000060  1 .order   -0.000054   -0.000080   -0.000028
  (g-gl).g = 0.205E-03      g.g   = 0.205E-03  gl.gl    = 0.190E-03
 g(Force)  = 0.205E-03   g(Stress)= 0.000E+00 ortho     =-0.415E-05
 gamma     =   1.08012
 trial     =   0.39802
 opt step  =   0.60801  (harmonic =   0.60801) maximal distance =0.00146116
 next E    =   -94.187280   (d E  =  -0.00006)


--------------------------------------------------------------------------------------------------------


  
 reached required accuracy - stopping structural energy minimisation
 writing wavefunctions
     LOOP+:  cpu time    901.5632: real time    910.1531
    4ORBIT:  cpu time      0.0000: real time      0.0000

 total amount of memory used by VASP MPI-rank0   989462. kBytes
=======================================================================

   base      :      30000. kBytes
   nonlr-proj:       1663. kBytes
   fftplans  :     192295. kBytes
   grid      :     734294. kBytes
   one-center:         12. kBytes
   wavefun   :      31198. kBytes
 
  
  
 General timing and accounting informations for this job:
 ========================================================
  
                  Total CPU time used (sec):    32879.438
                            User time (sec):    30814.114
                          System time (sec):     2065.323
                         Elapsed time (sec):    33114.466
  
                   Maximum memory used (kb):     2527092.
                   Average memory used (kb):          N/A
  
                          Minor page faults:     13598773
                          Major page faults:           29
                 Voluntary context switches:        14571
