 vasp.6.4.2 20Jul23 (build Sep 06 2024 14:39:43) complex                        
  
 executed on             LinuxIFC date 2024.11.12  12:44:49
 running   54 mpi-ranks, on    3 nodes
 distrk:  each k-point on   54 cores,    1 groups
 distr:  one band on NCORE=   9 cores,    6 groups


--------------------------------------------------------------------------------------------------------


 INCAR:
   SYSTEM = 061_red
   ISTART = 0
   ICHARG = 2
   INIWAV = 1
   METAGGA = R2SCAN
   LASPH = .TRUE.
   NELM = 100
   ALGO = fast   	
   ISPIN = 2
   EDIFF = 1E-05
   ISMEAR = 0
   SIGMA = 0.05
   PREC = accurate
   ENCUT = 500
   LREAL = auto  	
   LWAVE = .TRUE.
   LCHARG = .FALSE.
   LAECHG = .FALSE.
   LVHAR = .FALSE.
   LVTOT = .FALSE.
   EDIFFG = -0.02
   IBRION = 2
   NSW = 500
   ISIF = 2
   POTIM = 0.5
   IVDW = 12
   VDW_A1 = 0.49484001
   VDW_S8 = 0.78981345
   VDW_A2 = 5.73083694
   LPLANE = .TRUE.
   NCORE = 9
   LSCALU = .FALSE.
   NSIM = 4
   LSOL = .TRUE.
   EB_K = 35.6880
   LAMBDA_D_K = 3.04
   TAU = 0

 POTCAR:    PAW_PBE C 08Apr2002                   
 POTCAR:    PAW_PBE O 08Apr2002                   
 POTCAR:    PAW_PBE H 15Jun2001                   
 -----------------------------------------------------------------------------
|                                                                             |
|           W    W    AA    RRRRR   N    N  II  N    N   GGGG   !!!           |
|           W    W   A  A   R    R  NN   N  II  NN   N  G    G  !!!           |
|           W    W  A    A  R    R  N N  N  II  N N  N  G       !!!           |
|           W WW W  AAAAAA  RRRRR   N  N N  II  N  N N  G  GGG   !            |
|           WW  WW  A    A  R   R   N   NN  II  N   NN  G    G                |
|           W    W  A    A  R    R  N    N  II  N    N   GGGG   !!!           |
|                                                                             |
|     You use a magnetic or noncollinear calculation, but did not specify     |
|     the initial magnetic moment with the MAGMOM tag. Note that a            |
|     default of 1 will be used for all atoms. This ferromagnetic setup       |
|     may break the symmetry of the crystal, in particular it may rule        |
|     out finding an antiferromagnetic solution. Thence, we recommend         |
|     setting the initial magnetic moment manually or verifying carefully     |
|     that this magnetic setup is desired.                                    |
|                                                                             |
 -----------------------------------------------------------------------------

 POTCAR:    PAW_PBE C 08Apr2002                   
   VRHFIN =C: s2p2                                                                                  
   LEXCH  = PE                                                                                      
   EATOM  =   147.1560 eV,   10.8157 Ry                                                             
                                                                                                    
   TITEL  = PAW_PBE C 08Apr2002                                                                     
   LULTRA =        F    use ultrasoft PP ?                                                          
   IUNSCR =        1    unscreen: 0-lin 1-nonlin 2-no                                               
   RPACOR =    1.200    partial core radius                                                         
   POMASS =   12.011; ZVAL   =    4.000    mass and valenz                                          
   RCORE  =    1.500    outmost cutoff radius                                                       
   RWIGS  =    1.630; RWIGS  =    0.863    wigner-seitz radius (au A)                               
   ENMAX  =  400.000; ENMIN  =  300.000 eV                                                          
   ICORE  =        2    local potential                                                             
   LCOR   =        T    correct aug charges                                                         
   LPAW   =        T    paw PP                                                                      
   EAUG   =  644.873                                                                                
   DEXC   =    0.000                                                                                
   RMAX   =    1.529    core radius for proj-oper                                                   
   RAUG   =    1.300    factor for augmentation sphere                                              
   RDEP   =    1.501    radius for radial grids                                                     
   RDEPT  =    1.300    core radius for aug-charge                                                  
                                                                                                    
   Atomic configuration                                                                             
    4 entries                                                                                       
     n  l   j            E        occ.                                                              
     1  0  0.50      -273.3789   2.0000                                                             
     2  0  0.50       -13.7508   2.0000                                                             
     2  1  0.50        -5.2854   2.0000                                                             
     3  2  1.50        -5.4423   0.0000                                                             
   Description                                                                                      
     l       E           TYP  RCUT    TYP  RCUT                                                     
     0    -13.7508458     23  1.200                                                                 
     0     -8.2022199     23  1.200                                                                 
     1     -5.2854383     23  1.500                                                                 
     1     34.0145650     23  1.500                                                                 
     2     -5.4423304      7  1.500                                                                 
  local pseudopotential read in
  partial core-charges read in
  partial kinetic energy density read in
  atomic valenz-charges read in
  non local Contribution for L=           0  read in
    real space projection operators read in
  non local Contribution for L=           0  read in
    real space projection operators read in
  non local Contribution for L=           1  read in
    real space projection operators read in
  non local Contribution for L=           1  read in
    real space projection operators read in
    PAW grid and wavefunctions read in
 
   number of l-projection  operators is LMAX  =           4
   number of lm-projection operators is LMMAX =           8
 
 POTCAR:    PAW_PBE O 08Apr2002                   
   VRHFIN =O: s2p4                                                                                  
   LEXCH  = PE                                                                                      
   EATOM  =   432.3788 eV,   31.7789 Ry                                                             
                                                                                                    
   TITEL  = PAW_PBE O 08Apr2002                                                                     
   LULTRA =        F    use ultrasoft PP ?                                                          
   IUNSCR =        1    unscreen: 0-lin 1-nonlin 2-no                                               
   RPACOR =    1.200    partial core radius                                                         
   POMASS =   16.000; ZVAL   =    6.000    mass and valenz                                          
   RCORE  =    1.520    outmost cutoff radius                                                       
   RWIGS  =    1.550; RWIGS  =    0.820    wigner-seitz radius (au A)                               
   ENMAX  =  400.000; ENMIN  =  300.000 eV                                                          
   ICORE  =        2    local potential                                                             
   LCOR   =        T    correct aug charges                                                         
   LPAW   =        T    paw PP                                                                      
   EAUG   =  605.392                                                                                
   DEXC   =    0.000                                                                                
   RMAX   =    1.553    core radius for proj-oper                                                   
   RAUG   =    1.300    factor for augmentation sphere                                              
   RDEP   =    1.550    radius for radial grids                                                     
   RDEPT  =    1.329    core radius for aug-charge                                                  
                                                                                                    
   Atomic configuration                                                                             
    4 entries                                                                                       
     n  l   j            E        occ.                                                              
     1  0  0.50      -514.6923   2.0000                                                             
     2  0  0.50       -23.9615   2.0000                                                             
     2  1  0.50        -9.0305   4.0000                                                             
     3  2  1.50        -9.5241   0.0000                                                             
   Description                                                                                      
     l       E           TYP  RCUT    TYP  RCUT                                                     
     0    -23.9615318     23  1.200                                                                 
     0     -9.5240782     23  1.200                                                                 
     1     -9.0304911     23  1.520                                                                 
     1      8.1634956     23  1.520                                                                 
     2     -9.5240782      7  1.500                                                                 
  local pseudopotential read in
  partial core-charges read in
  partial kinetic energy density read in
  kinetic energy density of atom read in
  atomic valenz-charges read in
  non local Contribution for L=           0  read in
    real space projection operators read in
  non local Contribution for L=           0  read in
    real space projection operators read in
  non local Contribution for L=           1  read in
    real space projection operators read in
  non local Contribution for L=           1  read in
    real space projection operators read in
    PAW grid and wavefunctions read in
 
   number of l-projection  operators is LMAX  =           4
   number of lm-projection operators is LMMAX =           8
 
 POTCAR:    PAW_PBE H 15Jun2001                   
   VRHFIN =H: ultrasoft test                                                                        
   LEXCH  = PE                                                                                      
   EATOM  =    12.4884 eV,    0.9179 Ry                                                             
                                                                                                    
   TITEL  = PAW_PBE H 15Jun2001                                                                     
   LULTRA =        F    use ultrasoft PP ?                                                          
   IUNSCR =        0    unscreen: 0-lin 1-nonlin 2-no                                               
   RPACOR =    0.000    partial core radius                                                         
   POMASS =    1.000; ZVAL   =    1.000    mass and valenz                                          
   RCORE  =    1.100    outmost cutoff radius                                                       
   RWIGS  =    0.700; RWIGS  =    0.370    wigner-seitz radius (au A)                               
   ENMAX  =  250.000; ENMIN  =  200.000 eV                                                          
   RCLOC  =    0.701    cutoff for local pot                                                        
   LCOR   =        T    correct aug charges                                                         
   LPAW   =        T    paw PP                                                                      
   EAUG   =  400.000                                                                                
   RMAX   =    1.123    core radius for proj-oper                                                   
   RAUG   =    1.200    factor for augmentation sphere                                              
   RDEP   =    1.112    radius for radial grids                                                     
   RDEPT  =    0.926    core radius for aug-charge                                                  
                                                                                                    
   Atomic configuration                                                                             
    2 entries                                                                                       
     n  l   j            E        occ.                                                              
     1  0  0.50        -6.4927   1.0000                                                             
     2  1  0.50        -3.4015   0.0000                                                             
   Description                                                                                      
     l       E           TYP  RCUT    TYP  RCUT                                                     
     0     -6.4927494     23  1.100                                                                 
     0      6.8029130     23  1.100                                                                 
     1     -4.0817478     23  1.100                                                                 
  local pseudopotential read in
  atomic valenz-charges read in
  non local Contribution for L=           0  read in
    real space projection operators read in
  non local Contribution for L=           0  read in
    real space projection operators read in
  non local Contribution for L=           1  read in
    real space projection operators read in
    PAW grid and wavefunctions read in
 
   number of l-projection  operators is LMAX  =           3
   number of lm-projection operators is LMMAX =           5
 
 Optimization of the real space projectors (new method)

 maximal supplied QI-value         = 25.13
 optimisation between [QCUT,QGAM] = [ 11.31, 22.87] = [ 35.82,146.48] Ry 
 Optimized for a Real-space Cutoff    1.03 Angstroem

   l    n(q)    QCUT    max X(q) W(low)/X(q) W(high)/X(q)  e(spline) 
   0      7    11.310   115.676    0.20E-03    0.90E-03    0.20E-06
   0      7    11.310    87.132    0.20E-03    0.89E-03    0.19E-06
   1      6    11.310     4.429    0.16E-03    0.28E-03    0.12E-06
   1      6    11.310     2.733    0.12E-03    0.21E-03    0.99E-07
 Optimization of the real space projectors (new method)

 maximal supplied QI-value         = 24.76
 optimisation between [QCUT,QGAM] = [ 11.39, 22.77] = [ 36.31,145.25] Ry 
 Optimized for a Real-space Cutoff    1.10 Angstroem

   l    n(q)    QCUT    max X(q) W(low)/X(q) W(high)/X(q)  e(spline) 
   0      7    11.387    20.381    0.22E-03    0.48E-03    0.18E-06
   0      7    11.387    15.268    0.22E-03    0.52E-03    0.19E-06
   1      7    11.387     5.964    0.22E-03    0.73E-03    0.24E-06
   1      7    11.387     5.382    0.19E-03    0.60E-03    0.21E-06
 Optimization of the real space projectors (new method)

 maximal supplied QI-value         = 34.20
 optimisation between [QCUT,QGAM] = [ 11.29, 22.57] = [ 35.68,142.71] Ry 
 Optimized for a Real-space Cutoff    1.20 Angstroem

   l    n(q)    QCUT    max X(q) W(low)/X(q) W(high)/X(q)  e(spline) 
   0      8    11.287    19.460    0.22E-03    0.50E-03    0.19E-06
   0      8    11.287    12.209    0.21E-03    0.48E-03    0.18E-06
   1      8    11.287     4.655    0.21E-03    0.11E-04    0.26E-06
  PAW_PBE C 08Apr2002                   :
 energy of atom  1       EATOM= -147.1560
 kinetic energy error for atom=    0.0076 (will be added to EATOM!!)
  PAW_PBE O 08Apr2002                   :
 energy of atom  2       EATOM= -432.3788
 kinetic energy error for atom=    0.0224 (will be added to EATOM!!)
  PAW_PBE H 15Jun2001                   :
 energy of atom  3       EATOM=  -12.4884
 kinetic energy error for atom=    0.0020 (will be added to EATOM!!)
 
 
 POSCAR: C O H
  positions in direct lattice
  velocities in cartesian coordinates

 METAGGA = R2SCAN                                      LMAXTAU =  6    LMIXTAU =  F

 exchange correlation table for  LEXCH =        8
   RHO(1)=    0.500       N(1)  =     2000
   RHO(2)=  100.500       N(2)  =     4000
 


--------------------------------------------------------------------------------------------------------


 ion  position               nearest neighbor table
   1  0.534  0.487  0.520-  23 1.08   2 1.39   6 1.39
   2  0.565  0.472  0.521-  22 1.08   1 1.39   3 1.39
   3  0.593  0.486  0.504-  21 1.08   4 1.39   2 1.39
   4  0.588  0.515  0.485-  20 1.08   5 1.39   3 1.39
   5  0.557  0.530  0.484-  19 1.08   6 1.39   4 1.39
   6  0.530  0.516  0.501-  13 1.39   5 1.39   1 1.39
   7  0.470  0.516  0.499-  13 1.39   8 1.39  12 1.39
   8  0.443  0.530  0.516-  18 1.08   7 1.39   9 1.39
   9  0.412  0.515  0.515-  17 1.08   8 1.39  10 1.39
  10  0.407  0.486  0.496-  16 1.08   9 1.39  11 1.39
  11  0.435  0.472  0.479-  15 1.08  12 1.39  10 1.39
  12  0.466  0.487  0.480-  14 1.08  11 1.39   7 1.39
  13  0.500  0.533  0.500-   6 1.39   7 1.39
  14  0.487  0.476  0.467-  12 1.08
  15  0.431  0.449  0.464-  11 1.08
  16  0.383  0.474  0.495-  10 1.08
  17  0.391  0.526  0.528-   9 1.08
  18  0.447  0.553  0.530-   8 1.08
  19  0.553  0.553  0.470-   5 1.08
  20  0.609  0.526  0.472-   4 1.08
  21  0.617  0.474  0.505-   3 1.08
  22  0.569  0.449  0.536-   2 1.08
  23  0.513  0.476  0.533-   1 1.08
 
  LATTYP: Found a simple cubic cell.
 ALAT       =    40.0000000000
  
  Lattice vectors:
  
 A1 = (  40.0000000000,   0.0000000000,   0.0000000000)
 A2 = (   0.0000000000,  40.0000000000,   0.0000000000)
 A3 = (   0.0000000000,   0.0000000000,  40.0000000000)


Analysis of symmetry for initial positions (statically):
=====================================================================
 Subroutine PRICEL returns:
 Original cell was already a primitive cell.
 

 Routine SETGRP: Setting up the symmetry group for a 
 simple cubic supercell.


 Subroutine GETGRP returns: Found  2 space group operations
 (whereof  2 operations were pure point group operations)
 out of a pool of 48 trial point group operations.


The static configuration has the point symmetry C_2 .


Analysis of symmetry for dynamics (positions and initial velocities):
=====================================================================
 Subroutine PRICEL returns:
 Original cell was already a primitive cell.
 

 Routine SETGRP: Setting up the symmetry group for a 
 simple cubic supercell.


 Subroutine GETGRP returns: Found  2 space group operations
 (whereof  2 operations were pure point group operations)
 out of a pool of 48 trial point group operations.


The dynamic configuration has the point symmetry C_2 .


Analysis of constrained symmetry for selective dynamics:
=====================================================================
 Subroutine PRICEL returns:
 Original cell was already a primitive cell.
 

 Routine SETGRP: Setting up the symmetry group for a 
 simple cubic supercell.


 Subroutine GETGRP returns: Found  2 space group operations
 (whereof  2 operations were pure point group operations)
 out of a pool of 48 trial point group operations.


The constrained configuration has the point symmetry C_2 .


Analysis of structural, dynamic, and magnetic symmetry:
=====================================================================
 Subroutine PRICEL returns:
 Original cell was already a primitive cell.
 

 Routine SETGRP: Setting up the symmetry group for a 
 simple cubic supercell.


 Subroutine GETGRP returns: Found  2 space group operations
 (whereof  2 operations were pure point group operations)
 out of a pool of 48 trial point group operations.


The overall configuration has the point symmetry C_2 .


 Subroutine INISYM returns: Found  2 space group operations
 (whereof  2 operations are pure point group operations),
 and found     1 'primitive' translations


----------------------------------------------------------------------------------------

                                     Primitive cell                                     

  volume of cell :   64000.0000

  direct lattice vectors                    reciprocal lattice vectors
    40.000000000  0.000000000  0.000000000     0.025000000  0.000000000  0.000000000
     0.000000000 40.000000000  0.000000000     0.000000000  0.025000000  0.000000000
     0.000000000  0.000000000 40.000000000     0.000000000  0.000000000  0.025000000

  length of vectors
    40.000000000 40.000000000 40.000000000     0.025000000  0.025000000  0.025000000

  position of ions in fractional coordinates (direct lattice)
     0.534126384  0.486875239  0.519671883
     0.565495021  0.471864614  0.520904541
     0.592506928  0.485682258  0.503811289
     0.588010594  0.514879118  0.485392666
     0.556759975  0.530103777  0.483751958
     0.530007305  0.515891674  0.500862477
     0.469992430  0.515889148  0.499139393
     0.443237396  0.530101703  0.516246785
     0.411987448  0.514877758  0.514603453
     0.407492380  0.485678891  0.496186448
     0.434507826  0.471860741  0.479096501
     0.465874705  0.486871713  0.480332462
     0.499999445  0.533177771  0.500001673
     0.486804455  0.476271612  0.466788825
     0.431200221  0.449267504  0.464474744
     0.383151525  0.473820040  0.495141625
     0.391129519  0.525915995  0.527955109
     0.447071857  0.552841390  0.530488396
     0.552923504  0.552840575  0.469507298
     0.608866376  0.525915855  0.472038240
     0.616849051  0.473823906  0.504855079
     0.568804144  0.449273302  0.535528629
     0.513199511  0.476276416  0.533219527

  ion indices of the primitive-cell ions
   primitive index   ion index
                 1           1
                 2           2
                 3           3
                 4           4
                 5           5
                 6           6
                 7           7
                 8           8
                 9           9
                10          10
                11          11
                12          12
                13          13
                14          14
                15          15
                16          16
                17          17
                18          18
                19          19
                20          20
                21          21
                22          22
                23          23

----------------------------------------------------------------------------------------

 
 
 KPOINTS: K-Point Grid                            

Automatic generation of k-mesh.
 Grid dimensions read from file:
 generate k-points for:    1    1    1

 Generating k-lattice:

  Cartesian coordinates                     Fractional coordinates (reciprocal lattice)
     0.025000000  0.000000000  0.000000000     1.000000000  0.000000000  0.000000000
     0.000000000  0.025000000  0.000000000     0.000000000  1.000000000  0.000000000
     0.000000000  0.000000000  0.025000000     0.000000000  0.000000000  1.000000000

  Length of vectors
     0.025000000  0.025000000  0.025000000

  Shift w.r.t. Gamma in fractional coordinates (k-lattice)
     0.000000000  0.000000000  0.000000000

 
 Subroutine IBZKPT returns following result:
 ===========================================
 
 Found      1 irreducible k-points:
 
 Following reciprocal coordinates:
            Coordinates               Weight
  0.000000  0.000000  0.000000      1.000000
 
 Following cartesian coordinates:
            Coordinates               Weight
  0.000000  0.000000  0.000000      1.000000
 


--------------------------------------------------------------------------------------------------------




 Dimension of arrays:
   k-points           NKPTS =      1   k-points in BZ     NKDIM =      1   number of bands    NBANDS=     60
   number of dos      NEDOS =    301   number of ions     NIONS =     23
   non local maximal  LDIM  =      4   non local SUM 2l+1 LMDIM =      8
   total plane-waves  NPLWV = ******
   max r-space proj   IRMAX =   2915   max aug-charges    IRDMAX=   5350
   dimension x,y,z NGX =   294 NGY =  294 NGZ =  294
   dimension x,y,z NGXF=   588 NGYF=  588 NGZF=  588
   support grid    NGXF=   588 NGYF=  588 NGZF=  588
   ions per type =              12   1  10
   NGX,Y,Z   is equivalent  to a cutoff of  12.22, 12.22, 12.22 a.u.
   NGXF,Y,Z  is equivalent  to a cutoff of  24.44, 24.44, 24.44 a.u.

 SYSTEM =  061_red                                 
 POSCAR =  C O H                                   

 Startparameter for this run:
   NWRITE =      2    write-flag & timer
   PREC   = accura    normal or accurate (medium, high low for compatibility)
   ISTART =      0    job   : 0-new  1-cont  2-samecut
   ICHARG =      2    charge: 1-file 2-atom 10-const
   ISPIN  =      2    spin polarized calculation?
   LNONCOLLINEAR =      F non collinear calculations
   LSORBIT =      F    spin-orbit coupling
   INIWAV =      1    electr: 0-lowe 1-rand  2-diag
   LASPH  =      T    aspherical Exc in radial PAW
 Electronic Relaxation 1
   ENCUT  =  500.0 eV  36.75 Ry    6.06 a.u.  72.93 72.93 72.93*2*pi/ulx,y,z
   ENINI  =  500.0     initial cutoff
   ENAUG  =  644.9 eV  augmentation charge cutoff
   NELM   =    100;   NELMIN=  2; NELMDL= -5     # of ELM steps 
   EDIFF  = 0.1E-04   stopping-criterion for ELM
   LREAL  =      T    real-space projection
   NLSPLINE    = F    spline interpolate recip. space projectors
   LCOMPAT=      F    compatible to vasp.4.4
   GGA_COMPAT  = T    GGA compatible to vasp.4.4-vasp.4.6
   LMAXPAW     = -100 max onsite density
   LMAXMIX     =    2 max onsite mixed and CHGCAR
   VOSKOWN=      0    Vosko Wilk Nusair interpolation
   ROPT   =   -0.00025  -0.00025  -0.00025
 Ionic relaxation
   EDIFFG = -.2E-01   stopping-criterion for IOM
   NSW    =    500    number of steps for IOM
   NBLOCK =      1;   KBLOCK =    500    inner block; outer block 
   IBRION =      2    ionic relax: 0-MD 1-quasi-New 2-CG
   NFREE  =      1    steps in history (QN), initial steepest desc. (CG)
   ISIF   =      2    stress and relaxation
   IWAVPR =     11    prediction:  0-non 1-charg 2-wave 3-comb
   ISYM   =      2    0-nonsym 1-usesym 2-fastsym
   LCORR  =      T    Harris-Foulkes like correction to forces

   POTIM  = 0.5000    time-step for ionic-motion
   TEIN   =    0.0    initial temperature
   TEBEG  =    0.0;   TEEND  =   0.0 temperature during run
   SMASS  =  -3.00    Nose mass-parameter (am)
   estimated Nose-frequenzy (Omega)   =  0.10E-29 period in steps = 0.13E+47 mass=  -0.366E-25a.u.
   SCALEE = 1.0000    scale energy and forces
   NPACO  =    256;   APACO  = 10.0  distance and # of slots for P.C.
   PSTRESS=    0.0 pullay stress

  Mass of Ions in am
   POMASS =  12.01 16.00  1.00
  Ionic Valenz
   ZVAL   =   4.00  6.00  1.00
  Atomic Wigner-Seitz radii
   RWIGS  =  -1.00 -1.00 -1.00
  virtual crystal weights 
   VCA    =   1.00  1.00  1.00
   NELECT =      64.0000    total number of electrons
   NUPDOWN=      -1.0000    fix difference up-down

 DOS related values:
   EMIN   =  10.00;   EMAX   =-10.00  energy-range for DOS
   EFERMI =   0.00;   METHOD = LEGACY      
   ISMEAR =     0;   SIGMA  =   0.05  broadening in eV -4-tet -1-fermi 0-gaus

 Electronic relaxation 2 (details)
   IALGO  =     68    algorithm
   LDIAG  =      T    sub-space diagonalisation (order eigenvalues)
   LSUBROT=      F    optimize rotation matrix (better conditioning)
   TURBO    =      0    0=normal 1=particle mesh
   IRESTART =      0    0=no restart 2=restart with 2 vectors
   NREBOOT  =      0    no. of reboots
   NMIN     =      0    reboot dimension
   EREF     =   0.00    reference energy to select bands
   IMIX   =      4    mixing-type and parameters
     AMIX     =   0.40;   BMIX     =  1.00
     AMIX_MAG =   1.60;   BMIX_MAG =  1.00
     AMIN     =   0.10
     WC   =   100.;   INIMIX=   1;  MIXPRE=   1;  MAXMIX= -45

 Intra band minimization:
   WEIMIN = 0.0010     energy-eigenvalue tresh-hold
   EBREAK =  0.42E-07  absolut break condition
   DEPER  =   0.30     relativ break condition  

   TIME   =   0.40     timestep for ELM

  volume/ion in A,a.u.               =    2782.61     18777.97
  Fermi-wavevector in a.u.,A,eV,Ry     =   0.163710  0.309367  0.364649  0.026801
  Thomas-Fermi vector in A             =   0.862763
 
 Write flags
   LWAVE        =      T    write WAVECAR
   LDOWNSAMPLE  =      F    k-point downsampling of WAVECAR
   LCHARG       =      F    write CHGCAR
   LVTOT        =      F    write LOCPOT, total local potential
   LVHAR        =      F    write LOCPOT, Hartree potential only
   LELF         =      F    write electronic localiz. function (ELF)
   LORBIT       =      0    0 simple, 1 ext, 2 COOP (PROOUT), +10 PAW based schemes


 Dipole corrections
   LMONO  =      F    monopole corrections only (constant potential shift)
   LDIPOL =      F    correct potential (dipole corrections)
   IDIPOL =      0    1-x, 2-y, 3-z, 4-all directions 
   EPSILON=  1.0000000 bulk dielectric constant

 Exchange correlation treatment:
   GGA     =    --    GGA type
   LEXCH   =     8    internal setting for exchange type
   LIBXC   =     F    Libxc                    
   VOSKOWN =     0    Vosko Wilk Nusair interpolation
   LHFCALC =     F    Hartree Fock is set to
   LHFONE  =     F    Hartree Fock one center treatment
   AEXX    =    0.0000 exact exchange contribution

 Linear response parameters
   LEPSILON=     F    determine dielectric tensor
   LRPA    =     F    only Hartree local field effects (RPA)
   LNABLA  =     F    use nabla operator in PAW spheres
   LVEL    =     F    velocity operator in full k-point grid
   CSHIFT  =0.1000    complex shift for real part using Kramers Kronig
   OMEGAMAX=  -1.0    maximum frequency
   DEG_THRESHOLD= 0.2000000E-02 threshold for treating states as degnerate
   RTIME   =   -0.100 relaxation time in fs
  (WPLASMAI=    0.000 imaginary part of plasma frequency in eV, 0.658/RTIME)
   DFIELD  = 0.0000000 0.0000000 0.0000000 field for delta impulse in time
 
  Optional k-point grid parameters
   LKPOINTS_OPT  =     F    use optional k-point grid
   KPOINTS_OPT_MODE=     1    mode for optional k-point grid
 
 Orbital magnetization related:
   ORBITALMAG=     F  switch on orbital magnetization
   LCHIMAG   =     F  perturbation theory with respect to B field
   DQ        =  0.001000  dq finite difference perturbation B field
   LLRAUG    =     F  two centre corrections for induced B field
   LBONE     =     F  B-component reconstruction in AE one-centre
   LVGVCALC  =     T  calculate vGv susceptibility
   LVGVAPPL  =     F  apply vGv susceptibility instead of pGv for G=0

 Random number generation:
   RANDOM_GENERATOR = DEFAULT
   PCG_SEED         = not used
 Solvation model:
   LSOL    =     T         switch on solvation model
   EB_K    = 35.688000     relative permittivity of the bulk solvent
   SIGMA_K =  0.600000     width of the dielectric cavity
   NC_K    =  0.002500     cutoff charge density
   TAU     =  0.000000     cavity surface tension
   LAMBDA_D_K    =  3.040000     Debye length in Angstroms
   LRHOB     =     F     write boundcharge  density
   LRHOION     =     F     write ioniccharge density



--------------------------------------------------------------------------------------------------------


 conjugate gradient relaxation of ions
   using selective dynamics as specified on POSCAR
 charge density and potential will be updated during run
 spin polarized calculation
 RMM-DIIS sequential band-by-band and
  variant of blocked Davidson during initial phase
 perform sub-space diagonalisation
    before iterative eigenvector-optimisation
 modified Broyden-mixing scheme, WC =      100.0
 initial mixing is a Kerker type mixing with AMIX =  0.4000 and BMIX =      1.0000
 Hartree-type preconditioning will be used
 using additional bands           28
 real space projection scheme for non local part
 use partial core corrections
 calculate Harris-corrections to forces 
   (improved forces if not selfconsistent)
 use gradient corrections 
 use of overlap-Matrix (Vanderbilt PP)
 Gauss-broadening in eV      SIGMA  =   0.05


--------------------------------------------------------------------------------------------------------


  energy-cutoff  :      500.00
  volume of cell :    64000.00
      direct lattice vectors                 reciprocal lattice vectors
    40.000000000  0.000000000  0.000000000     0.025000000  0.000000000  0.000000000
     0.000000000 40.000000000  0.000000000     0.000000000  0.025000000  0.000000000
     0.000000000  0.000000000 40.000000000     0.000000000  0.000000000  0.025000000

  length of vectors
    40.000000000 40.000000000 40.000000000     0.025000000  0.025000000  0.025000000


 
 k-points in units of 2pi/SCALE and weight: K-Point Grid                            
   0.00000000  0.00000000  0.00000000       1.000
 
 k-points in reciprocal lattice and weights: K-Point Grid                            
   0.00000000  0.00000000  0.00000000       1.000
 
 position of ions in fractional coordinates (direct lattice) 
   0.53412638  0.48687524  0.51967188
   0.56549502  0.47186461  0.52090454
   0.59250693  0.48568226  0.50381129
   0.58801059  0.51487912  0.48539267
   0.55675997  0.53010378  0.48375196
   0.53000731  0.51589167  0.50086248
   0.46999243  0.51588915  0.49913939
   0.44323740  0.53010170  0.51624678
   0.41198745  0.51487776  0.51460345
   0.40749238  0.48567889  0.49618645
   0.43450783  0.47186074  0.47909650
   0.46587470  0.48687171  0.48033246
   0.49999944  0.53317777  0.50000167
   0.48680446  0.47627161  0.46678882
   0.43120022  0.44926750  0.46447474
   0.38315152  0.47382004  0.49514163
   0.39112952  0.52591600  0.52795511
   0.44707186  0.55284139  0.53048840
   0.55292350  0.55284057  0.46950730
   0.60886638  0.52591585  0.47203824
   0.61684905  0.47382391  0.50485508
   0.56880414  0.44927330  0.53552863
   0.51319951  0.47627642  0.53321953
 
 position of ions in cartesian coordinates  (Angst):
  21.36505536 19.47500958 20.78687531
  22.61980082 18.87458456 20.83618163
  23.70027711 19.42729033 20.15245156
  23.52042376 20.59516471 19.41570662
  22.27039900 21.20415107 19.35007833
  21.20029220 20.63566696 20.03449910
  18.79969721 20.63556592 19.96557573
  17.72949584 21.20406810 20.64987140
  16.47949793 20.59511031 20.58413811
  16.29969521 19.42715564 19.84745792
  17.38031305 18.87442963 19.16386004
  18.63498819 19.47486854 19.21329846
  19.99997779 21.32711083 20.00006693
  19.47217822 19.05086447 18.67155299
  17.24800886 17.97070016 18.57898976
  15.32606100 18.95280162 19.80566501
  15.64518074 21.03663982 21.11820436
  17.88287427 22.11365561 21.21953582
  22.11694017 22.11362300 18.78029192
  24.35465503 21.03663419 18.88152961
  24.67396203 18.95295625 20.19420318
  22.75216578 17.97093207 21.42114515
  20.52798043 19.05105664 21.32878108
 


--------------------------------------------------------------------------------------------------------


 k-point   1 :   0.0000 0.0000 0.0000  plane waves: 1624525

 maximum and minimum number of plane-waves per node :    180507   180501

 maximum number of plane-waves:   1624525
 maximum index in each direction: 
   IXMAX=   72   IYMAX=   72   IZMAX=   72
   IXMIN=  -72   IYMIN=  -72   IZMIN=  -72


 real space projection operators:
  total allocation   :       2559.73 KBytes
  max/ min on nodes  :        298.30        272.05


 parallel 3D FFT for wavefunctions:
    minimum data exchange during FFTs selected (reduces bandwidth)
 parallel 3D FFT for charge:
    minimum data exchange during FFTs selected (reduces bandwidth)


 total amount of memory used by VASP MPI-rank0  1109195. kBytes
=======================================================================

   base      :      30000. kBytes
   nonlr-proj:       1481. kBytes
   fftplans  :     212203. kBytes
   grid      :     807723. kBytes
   one-center:         18. kBytes
   wavefun   :      57770. kBytes
 
     INWAV:  cpu time      0.0000: real time      0.0007
 Broyden mixing: mesh for mixing (old mesh)
   NGX =145   NGY =145   NGZ =145
  (NGX  =588   NGY  =588   NGZ  =588)
  gives a total of ****** points

 initial charge density was supplied:
 charge density of overlapping atoms calculated
 number of electron      64.0000000 magnetization      23.0000000
 keeping initial charge density in first step


--------------------------------------------------------------------------------------------------------


 Maximum index for non-local projection operator          348
 Maximum index for augmentation-charges          295 (set IRDMAX)


--------------------------------------------------------------------------------------------------------


 First call to EWALD:  gamma=   0.044
 Maximum number of real-space cells 3x 3x 3
 Maximum number of reciprocal cells 3x 3x 3

    FEWALD:  cpu time      0.0013: real time      0.0013


--------------------------------------- Ionic step        1  -------------------------------------------




--------------------------------------- Iteration      1(   1)  ---------------------------------------


    POTLOK:  cpu time    140.2125: real time    140.4776
    SETDIJ:  cpu time      0.3275: real time      0.3282
     EDDAV:  cpu time     70.1001: real time     70.2562
       DOS:  cpu time      0.0035: real time      0.0035
    --------------------------------------------
      LOOP:  cpu time    210.6436: real time    211.0655

 eigenvalue-minimisations  :   288
 total energy-change (2. order) : 0.6042142E+03  (-0.8923862E+03)
 number of electron      64.0000000 magnetization      23.0000000
 augmentation part       64.0000000 magnetization      23.0000000

 Free energy of the ion-electron system (eV)
  ---------------------------------------------------
  alpha Z        PSCENC =         0.29396090
  Ewald energy   TEWEN  =      7511.97941415
  -Hartree energ DENC   =     -9075.91147551
  -exchange      EXHF   =         0.00000000
  -V(xc)+E(xc)   XCENC  =       251.47386991
  PAW double counting   =      1626.82118105    -1654.69775922
  entropy T*S    EENTRO =        -0.09114618
  eigenvalues    EBANDS =      -368.24695099
  atomic energy  EATOM  =      2323.00179344
  Solvation  Ediel_sol  =       -10.40870051
  ---------------------------------------------------
  free energy    TOTEN  =       604.21418705 eV

  energy without entropy =      604.30533323  energy(sigma->0) =      604.25976014


--------------------------------------------------------------------------------------------------------




--------------------------------------- Iteration      1(   2)  ---------------------------------------


     EDDAV:  cpu time     93.9560: real time     94.1828
       DOS:  cpu time      0.0005: real time      0.0005
    --------------------------------------------
      LOOP:  cpu time     93.9565: real time     94.1833

 eigenvalue-minimisations  :   456
 total energy-change (2. order) :-0.3902498E+03  (-0.3640577E+03)
 number of electron      64.0000000 magnetization      23.0000000
 augmentation part       64.0000000 magnetization      23.0000000

 Free energy of the ion-electron system (eV)
  ---------------------------------------------------
  alpha Z        PSCENC =         0.29396090
  Ewald energy   TEWEN  =      7511.97941415
  -Hartree energ DENC   =     -9075.91147551
  -exchange      EXHF   =         0.00000000
  -V(xc)+E(xc)   XCENC  =       251.47386991
  PAW double counting   =      1626.82118105    -1654.69775922
  entropy T*S    EENTRO =        -0.02488200
  eigenvalues    EBANDS =      -758.56301036
  atomic energy  EATOM  =      2323.00179344
  Solvation  Ediel_sol  =       -10.40870051
  ---------------------------------------------------
  free energy    TOTEN  =       213.96439185 eV

  energy without entropy =      213.98927386  energy(sigma->0) =      213.97683285


--------------------------------------------------------------------------------------------------------




--------------------------------------- Iteration      1(   3)  ---------------------------------------


     EDDAV:  cpu time     81.9556: real time     82.1489
       DOS:  cpu time      0.0003: real time      0.0003
    --------------------------------------------
      LOOP:  cpu time     81.9559: real time     82.1492

 eigenvalue-minimisations  :   372
 total energy-change (2. order) :-0.3121974E+03  (-0.3033268E+03)
 number of electron      64.0000000 magnetization      23.0000000
 augmentation part       64.0000000 magnetization      23.0000000

 Free energy of the ion-electron system (eV)
  ---------------------------------------------------
  alpha Z        PSCENC =         0.29396090
  Ewald energy   TEWEN  =      7511.97941415
  -Hartree energ DENC   =     -9075.91147551
  -exchange      EXHF   =         0.00000000
  -V(xc)+E(xc)   XCENC  =       251.47386991
  PAW double counting   =      1626.82118105    -1654.69775922
  entropy T*S    EENTRO =        -0.00000000
  eigenvalues    EBANDS =     -1070.78525581
  atomic energy  EATOM  =      2323.00179344
  Solvation  Ediel_sol  =       -10.40870051
  ---------------------------------------------------
  free energy    TOTEN  =       -98.23297159 eV

  energy without entropy =      -98.23297159  energy(sigma->0) =      -98.23297159


--------------------------------------------------------------------------------------------------------




--------------------------------------- Iteration      1(   4)  ---------------------------------------


     EDDAV:  cpu time     74.9731: real time     75.1526
       DOS:  cpu time      0.0002: real time      0.0002
    --------------------------------------------
      LOOP:  cpu time     74.9734: real time     75.1528

 eigenvalue-minimisations  :   324
 total energy-change (2. order) :-0.6130338E+02  (-0.6117103E+02)
 number of electron      64.0000000 magnetization      23.0000000
 augmentation part       64.0000000 magnetization      23.0000000

 Free energy of the ion-electron system (eV)
  ---------------------------------------------------
  alpha Z        PSCENC =         0.29396090
  Ewald energy   TEWEN  =      7511.97941415
  -Hartree energ DENC   =     -9075.91147551
  -exchange      EXHF   =         0.00000000
  -V(xc)+E(xc)   XCENC  =       251.47386991
  PAW double counting   =      1626.82118105    -1654.69775922
  entropy T*S    EENTRO =        -0.00000000
  eigenvalues    EBANDS =     -1132.08863145
  atomic energy  EATOM  =      2323.00179344
  Solvation  Ediel_sol  =       -10.40870051
  ---------------------------------------------------
  free energy    TOTEN  =      -159.53634723 eV

  energy without entropy =     -159.53634723  energy(sigma->0) =     -159.53634723


--------------------------------------------------------------------------------------------------------




--------------------------------------- Iteration      1(   5)  ---------------------------------------


     EDDAV:  cpu time     78.5766: real time     78.7641
       DOS:  cpu time      0.0003: real time      0.0003
    CHARGE:  cpu time     42.4195: real time     42.5146
    MIXING:  cpu time      0.1500: real time      0.1502
    --------------------------------------------
      LOOP:  cpu time    121.1464: real time    121.4291

 eigenvalue-minimisations  :   348
 total energy-change (2. order) :-0.1678641E+01  (-0.1670562E+01)
 number of electron      63.9999983 magnetization      22.1138610
 augmentation part        2.0844735 magnetization      22.1433751

 Broyden mixing:
  rms(total) = 0.30509E+01    rms(broyden)= 0.30505E+01
  rms(prec ) = 0.30810E+01
  weight for this iteration     100.00

 Free energy of the ion-electron system (eV)
  ---------------------------------------------------
  alpha Z        PSCENC =         0.29396090
  Ewald energy   TEWEN  =      7511.97941415
  -Hartree energ DENC   =     -9075.91147551
  -exchange      EXHF   =         0.00000000
  -V(xc)+E(xc)   XCENC  =       251.47386991
  PAW double counting   =      1626.82118105    -1654.69775922
  entropy T*S    EENTRO =        -0.00000000
  eigenvalues    EBANDS =     -1133.76727201
  atomic energy  EATOM  =      2323.00179344
  Solvation  Ediel_sol  =       -10.40870051
  ---------------------------------------------------
  free energy    TOTEN  =      -161.21498779 eV

  energy without entropy =     -161.21498779  energy(sigma->0) =     -161.21498779


--------------------------------------------------------------------------------------------------------




--------------------------------------- Iteration      1(   6)  ---------------------------------------


    POTLOK:  cpu time    133.4732: real time    133.7376
    SETDIJ:  cpu time      0.3387: real time      0.3394
    EDDIAG:  cpu time     15.1922: real time     15.2280
  RMM-DIIS:  cpu time     86.7349: real time     86.9220
    ORTHCH:  cpu time      0.1943: real time      0.1950
       DOS:  cpu time      0.0012: real time      0.0012
    CHARGE:  cpu time     42.0297: real time     42.1251
    MIXING:  cpu time      0.1426: real time      0.1428
    --------------------------------------------
      LOOP:  cpu time    278.1067: real time    278.6912

 eigenvalue-minimisations  :   244
 total energy-change (2. order) : 0.2493408E+02  (-0.9428584E+01)
 number of electron      63.9999983 magnetization      21.1649959
 augmentation part        2.0927687 magnetization      21.1023688

 Broyden mixing:
  rms(total) = 0.15041E+01    rms(broyden)= 0.15040E+01
  rms(prec ) = 0.15259E+01
  weight for this iteration     100.00

 eigenvalues of (default mixing * dielectric matrix)
  average eigenvalue GAMMA=   0.9450
  0.9450

 Free energy of the ion-electron system (eV)
  ---------------------------------------------------
  alpha Z        PSCENC =         0.29396090
  Ewald energy   TEWEN  =      7511.97941415
  -Hartree energ DENC   =     -9195.63348460
  -exchange      EXHF   =         0.00000000
  -V(xc)+E(xc)   XCENC  =       274.43574841
  PAW double counting   =      2769.00242605    -2798.34505289
  entropy T*S    EENTRO =        -0.00000000
  eigenvalues    EBANDS =      -999.94288702
  atomic energy  EATOM  =      2323.00179344
  Solvation  Ediel_sol  =       -21.07282420
  ---------------------------------------------------
  free energy    TOTEN  =      -136.28090577 eV

  energy without entropy =     -136.28090577  energy(sigma->0) =     -136.28090577


--------------------------------------------------------------------------------------------------------




--------------------------------------- Iteration      1(   7)  ---------------------------------------


    POTLOK:  cpu time    132.4237: real time    132.6704
    SETDIJ:  cpu time      0.3265: real time      0.3273
    EDDIAG:  cpu time     15.2219: real time     15.2602
  RMM-DIIS:  cpu time     94.7423: real time     94.9461
    ORTHCH:  cpu time      0.2014: real time      0.2021
       DOS:  cpu time      0.0004: real time      0.0008
    CHARGE:  cpu time     42.1706: real time     42.2665
    MIXING:  cpu time      0.1470: real time      0.1471
    --------------------------------------------
      LOOP:  cpu time    285.2336: real time    285.8205

 eigenvalue-minimisations  :   274
 total energy-change (2. order) :-0.2296525E+02  (-0.3452813E+01)
 number of electron      63.9999983 magnetization      19.9338984
 augmentation part        2.0555817 magnetization      19.8469574

 Broyden mixing:
  rms(total) = 0.94414E+00    rms(broyden)= 0.94410E+00
  rms(prec ) = 0.95294E+00
  weight for this iteration     100.00

 eigenvalues of (default mixing * dielectric matrix)
  average eigenvalue GAMMA=   1.1400
  0.7891  1.4908

 Free energy of the ion-electron system (eV)
  ---------------------------------------------------
  alpha Z        PSCENC =         0.29396090
  Ewald energy   TEWEN  =      7511.97941415
  -Hartree energ DENC   =     -9286.09763468
  -exchange      EXHF   =         0.00000000
  -V(xc)+E(xc)   XCENC  =       260.63827427
  PAW double counting   =      3850.53433756    -3880.64027588
  entropy T*S    EENTRO =        -0.00000000
  eigenvalues    EBANDS =      -909.75014920
  atomic energy  EATOM  =      2323.00179344
  Solvation  Ediel_sol  =       -29.20587893
  ---------------------------------------------------
  free energy    TOTEN  =      -159.24615835 eV

  energy without entropy =     -159.24615835  energy(sigma->0) =     -159.24615835


--------------------------------------------------------------------------------------------------------




--------------------------------------- Iteration      1(   8)  ---------------------------------------


    POTLOK:  cpu time    136.2138: real time    136.4851
    SETDIJ:  cpu time      0.3279: real time      0.3286
    EDDIAG:  cpu time     15.1806: real time     15.2157
  RMM-DIIS:  cpu time    107.9215: real time    108.1531
    ORTHCH:  cpu time      0.1993: real time      0.1994
       DOS:  cpu time      0.0007: real time      0.0007
    CHARGE:  cpu time     42.2055: real time     42.2957
    MIXING:  cpu time      0.1532: real time      0.1534
    --------------------------------------------
      LOOP:  cpu time    302.2024: real time    302.8316

 eigenvalue-minimisations  :   315
 total energy-change (2. order) :-0.7723107E+01  (-0.1693022E+01)
 number of electron      63.9999984 magnetization      18.7453529
 augmentation part        2.0104096 magnetization      18.6660646

 Broyden mixing:
  rms(total) = 0.60155E+00    rms(broyden)= 0.60151E+00
  rms(prec ) = 0.60525E+00
  weight for this iteration     100.00

 eigenvalues of (default mixing * dielectric matrix)
  average eigenvalue GAMMA=   1.2557
  1.9292  1.1288  0.7091

 Free energy of the ion-electron system (eV)
  ---------------------------------------------------
  alpha Z        PSCENC =         0.29396090
  Ewald energy   TEWEN  =      7511.97941415
  -Hartree energ DENC   =     -9355.63873879
  -exchange      EXHF   =         0.00000000
  -V(xc)+E(xc)   XCENC  =       258.64217242
  PAW double counting   =      4981.81567156    -5012.06710344
  entropy T*S    EENTRO =        -0.00000000
  eigenvalues    EBANDS =      -840.93770037
  atomic energy  EATOM  =      2323.00179344
  Solvation  Ediel_sol  =       -34.05873526
  ---------------------------------------------------
  free energy    TOTEN  =      -166.96926539 eV

  energy without entropy =     -166.96926539  energy(sigma->0) =     -166.96926539


--------------------------------------------------------------------------------------------------------




--------------------------------------- Iteration      1(   9)  ---------------------------------------


    POTLOK:  cpu time    135.3116: real time    135.5710
    SETDIJ:  cpu time      0.3261: real time      0.3267
    EDDIAG:  cpu time     15.1922: real time     15.2279
  RMM-DIIS:  cpu time    119.5252: real time    119.7942
    ORTHCH:  cpu time      0.1952: real time      0.1959
       DOS:  cpu time      0.0017: real time      0.0017
    CHARGE:  cpu time     42.1966: real time     42.2998
    MIXING:  cpu time      0.1568: real time      0.1570
    --------------------------------------------
      LOOP:  cpu time    312.9053: real time    313.5743

 eigenvalue-minimisations  :   363
 total energy-change (2. order) :-0.3838027E+01  (-0.5188505E+00)
 number of electron      63.9999984 magnetization      17.1304620
 augmentation part        1.9919900 magnetization      17.0698795

 Broyden mixing:
  rms(total) = 0.39694E+00    rms(broyden)= 0.39692E+00
  rms(prec ) = 0.39914E+00
  weight for this iteration     100.00

 eigenvalues of (default mixing * dielectric matrix)
  average eigenvalue GAMMA=   1.4267
  2.4372  1.7387  0.8599  0.6711

 Free energy of the ion-electron system (eV)
  ---------------------------------------------------
  alpha Z        PSCENC =         0.29396090
  Ewald energy   TEWEN  =      7511.97941415
  -Hartree energ DENC   =     -9372.64734978
  -exchange      EXHF   =         0.00000000
  -V(xc)+E(xc)   XCENC  =       256.57740094
  PAW double counting   =      5547.83754521    -5577.90118701
  entropy T*S    EENTRO =        -0.00000000
  eigenvalues    EBANDS =      -829.93798370
  atomic energy  EATOM  =      2323.00179344
  Solvation  Ediel_sol  =       -30.01088618
  ---------------------------------------------------
  free energy    TOTEN  =      -170.80729203 eV

  energy without entropy =     -170.80729203  energy(sigma->0) =     -170.80729203


--------------------------------------------------------------------------------------------------------




--------------------------------------- Iteration      1(  10)  ---------------------------------------


    POTLOK:  cpu time    135.0550: real time    135.3277
    SETDIJ:  cpu time      0.3257: real time      0.3265
    EDDIAG:  cpu time     15.1660: real time     15.2033
  RMM-DIIS:  cpu time    115.5700: real time    115.8158
    ORTHCH:  cpu time      0.1959: real time      0.1968
       DOS:  cpu time      0.0006: real time      0.0008
    CHARGE:  cpu time     42.1028: real time     42.2017
    MIXING:  cpu time      0.1907: real time      0.1910
    --------------------------------------------
      LOOP:  cpu time    308.6068: real time    309.2636

 eigenvalue-minimisations  :   342
 total energy-change (2. order) :-0.2836820E+01  (-0.2426869E+00)
 number of electron      63.9999984 magnetization      16.2295087
 augmentation part        1.9859188 magnetization      16.1837447

 Broyden mixing:
  rms(total) = 0.23390E+00    rms(broyden)= 0.23389E+00
  rms(prec ) = 0.23488E+00
  weight for this iteration     100.00

 eigenvalues of (default mixing * dielectric matrix)
  average eigenvalue GAMMA=   1.4238
  2.8494  1.7694  1.0891  0.7675  0.6438

 Free energy of the ion-electron system (eV)
  ---------------------------------------------------
  alpha Z        PSCENC =         0.29396090
  Ewald energy   TEWEN  =      7511.97941415
  -Hartree energ DENC   =     -9380.60176674
  -exchange      EXHF   =         0.00000000
  -V(xc)+E(xc)   XCENC  =       254.47778258
  PAW double counting   =      5992.93261860    -6022.62706150
  entropy T*S    EENTRO =        -0.00000000
  eigenvalues    EBANDS =      -833.14596248
  atomic energy  EATOM  =      2323.00179344
  Solvation  Ediel_sol  =       -19.95489122
  ---------------------------------------------------
  free energy    TOTEN  =      -173.64411226 eV

  energy without entropy =     -173.64411226  energy(sigma->0) =     -173.64411226


--------------------------------------------------------------------------------------------------------




--------------------------------------- Iteration      1(  11)  ---------------------------------------


    POTLOK:  cpu time    123.7905: real time    124.0270
    SETDIJ:  cpu time      0.3277: real time      0.3284
    EDDIAG:  cpu time     15.1317: real time     15.1655
  RMM-DIIS:  cpu time    120.5697: real time    120.8417
    ORTHCH:  cpu time      0.1984: real time      0.1991
       DOS:  cpu time      0.0003: real time      0.0003
    CHARGE:  cpu time     42.1831: real time     42.2853
    MIXING:  cpu time      0.1677: real time      0.1679
    --------------------------------------------
      LOOP:  cpu time    302.3691: real time    303.0152

 eigenvalue-minimisations  :   368
 total energy-change (2. order) : 0.3979113E+00  (-0.9451174E-01)
 number of electron      63.9999984 magnetization      15.0207306
 augmentation part        1.9796400 magnetization      14.9816641

 Broyden mixing:
  rms(total) = 0.19277E+00    rms(broyden)= 0.19277E+00
  rms(prec ) = 0.19356E+00
  weight for this iteration     100.00

 eigenvalues of (default mixing * dielectric matrix)
  average eigenvalue GAMMA=   1.3775
  2.9451  1.9437  1.1402  0.8983  0.7023  0.6352

 Free energy of the ion-electron system (eV)
  ---------------------------------------------------
  alpha Z        PSCENC =         0.29396090
  Ewald energy   TEWEN  =      7511.97941415
  -Hartree energ DENC   =     -9386.46459922
  -exchange      EXHF   =         0.00000000
  -V(xc)+E(xc)   XCENC  =       255.18049976
  PAW double counting   =      6054.69059939    -6084.35564067
  entropy T*S    EENTRO =        -0.00000000
  eigenvalues    EBANDS =      -832.97581357
  atomic energy  EATOM  =      2323.00179344
  Solvation  Ediel_sol  =       -14.59641512
  ---------------------------------------------------
  free energy    TOTEN  =      -173.24620094 eV

  energy without entropy =     -173.24620094  energy(sigma->0) =     -173.24620094


--------------------------------------------------------------------------------------------------------




--------------------------------------- Iteration      1(  12)  ---------------------------------------


    POTLOK:  cpu time    126.8333: real time    127.0862
    SETDIJ:  cpu time      0.3271: real time      0.3279
    EDDIAG:  cpu time     15.1721: real time     15.2086
  RMM-DIIS:  cpu time    120.6631: real time    120.9204
    ORTHCH:  cpu time      0.1981: real time      0.1988
       DOS:  cpu time      0.0003: real time      0.0003
    CHARGE:  cpu time     42.1986: real time     42.2929
    MIXING:  cpu time      0.1725: real time      0.1728
    --------------------------------------------
      LOOP:  cpu time    305.5651: real time    306.2079

 eigenvalue-minimisations  :   367
 total energy-change (2. order) : 0.1687271E+01  (-0.5426343E-01)
 number of electron      63.9999984 magnetization      11.9690536
 augmentation part        1.9763900 magnetization      11.9353226

 Broyden mixing:
  rms(total) = 0.14788E+00    rms(broyden)= 0.14788E+00
  rms(prec ) = 0.14839E+00
  weight for this iteration     100.00

 eigenvalues of (default mixing * dielectric matrix)
  average eigenvalue GAMMA=   1.7578
  4.6420  2.6187  1.7189  1.1725  0.8136  0.7159  0.6229

 Free energy of the ion-electron system (eV)
  ---------------------------------------------------
  alpha Z        PSCENC =         0.29396090
  Ewald energy   TEWEN  =      7511.97941415
  -Hartree energ DENC   =     -9389.46484215
  -exchange      EXHF   =         0.00000000
  -V(xc)+E(xc)   XCENC  =       256.70492922
  PAW double counting   =      6004.61529518    -6034.25038282
  entropy T*S    EENTRO =        -0.00000000
  eigenvalues    EBANDS =      -836.60352531
  atomic energy  EATOM  =      2323.00179344
  Solvation  Ediel_sol  =        -7.83557300
  ---------------------------------------------------
  free energy    TOTEN  =      -171.55893039 eV

  energy without entropy =     -171.55893039  energy(sigma->0) =     -171.55893039


--------------------------------------------------------------------------------------------------------




--------------------------------------- Iteration      1(  13)  ---------------------------------------


    POTLOK:  cpu time    129.9748: real time    130.2244
    SETDIJ:  cpu time      0.3203: real time      0.3209
    EDDIAG:  cpu time     15.2142: real time     15.2495
  RMM-DIIS:  cpu time    120.8111: real time    121.0764
    ORTHCH:  cpu time      0.1972: real time      0.1977
       DOS:  cpu time      0.0015: real time      0.0019
    CHARGE:  cpu time     42.1103: real time     42.2091
    MIXING:  cpu time      0.1799: real time      0.1802
    --------------------------------------------
      LOOP:  cpu time    308.8091: real time    309.4601

 eigenvalue-minimisations  :   367
 total energy-change (2. order) : 0.2368709E+01  (-0.7031133E-01)
 number of electron      63.9999984 magnetization      11.1877894
 augmentation part        1.9738692 magnetization      11.1615336

 Broyden mixing:
  rms(total) = 0.82544E-01    rms(broyden)= 0.82541E-01
  rms(prec ) = 0.82934E-01
  weight for this iteration     100.00

 eigenvalues of (default mixing * dielectric matrix)
  average eigenvalue GAMMA=   1.7619
  5.5757  2.6080  1.8706  1.0576  0.8510  0.7547  0.7547  0.6231

 Free energy of the ion-electron system (eV)
  ---------------------------------------------------
  alpha Z        PSCENC =         0.29396090
  Ewald energy   TEWEN  =      7511.97941415
  -Hartree energ DENC   =     -9398.50565229
  -exchange      EXHF   =         0.00000000
  -V(xc)+E(xc)   XCENC  =       258.88989080
  PAW double counting   =      5950.93187620    -5980.51443442
  entropy T*S    EENTRO =        -0.00000000
  eigenvalues    EBANDS =      -841.70144648
  atomic energy  EATOM  =      2323.00179344
  Solvation  Ediel_sol  =         6.43437665
  ---------------------------------------------------
  free energy    TOTEN  =      -169.19022104 eV

  energy without entropy =     -169.19022104  energy(sigma->0) =     -169.19022104


--------------------------------------------------------------------------------------------------------




--------------------------------------- Iteration      1(  14)  ---------------------------------------


    POTLOK:  cpu time    118.8848: real time    119.1106
    SETDIJ:  cpu time      0.3331: real time      0.3338
    EDDIAG:  cpu time     15.1908: real time     15.2253
  RMM-DIIS:  cpu time    120.6919: real time    120.9636
    ORTHCH:  cpu time      0.1980: real time      0.1987
       DOS:  cpu time      0.0002: real time      0.0002
    CHARGE:  cpu time     42.0524: real time     42.1526
    MIXING:  cpu time      0.1934: real time      0.1937
    --------------------------------------------
      LOOP:  cpu time    297.5446: real time    298.1784

 eigenvalue-minimisations  :   368
 total energy-change (2. order) : 0.6093553E+00  (-0.2043070E-01)
 number of electron      63.9999984 magnetization       9.9732266
 augmentation part        1.9715311 magnetization       9.9509678

 Broyden mixing:
  rms(total) = 0.64927E-01    rms(broyden)= 0.64925E-01
  rms(prec ) = 0.65141E-01
  weight for this iteration     100.00

 eigenvalues of (default mixing * dielectric matrix)
  average eigenvalue GAMMA=   1.8450
  6.7952  2.5047  2.0227  1.4280  0.9753  0.7976  0.6219  0.7298  0.7298

 Free energy of the ion-electron system (eV)
  ---------------------------------------------------
  alpha Z        PSCENC =         0.29396090
  Ewald energy   TEWEN  =      7511.97941415
  -Hartree energ DENC   =     -9401.70667131
  -exchange      EXHF   =         0.00000000
  -V(xc)+E(xc)   XCENC  =       259.62871347
  PAW double counting   =      5958.36024254    -5987.96942848
  entropy T*S    EENTRO =        -0.00000000
  eigenvalues    EBANDS =      -839.91160621
  atomic energy  EATOM  =      2323.00179344
  Solvation  Ediel_sol  =         7.74271577
  ---------------------------------------------------
  free energy    TOTEN  =      -168.58086573 eV

  energy without entropy =     -168.58086573  energy(sigma->0) =     -168.58086573


--------------------------------------------------------------------------------------------------------




--------------------------------------- Iteration      1(  15)  ---------------------------------------


    POTLOK:  cpu time    118.5431: real time    118.7763
    SETDIJ:  cpu time      0.3264: real time      0.3271
    EDDIAG:  cpu time     15.2066: real time     15.2418
  RMM-DIIS:  cpu time    121.0395: real time    121.3114
    ORTHCH:  cpu time      0.1957: real time      0.1964
       DOS:  cpu time      0.0019: real time      0.0019
    CHARGE:  cpu time     42.0742: real time     42.1772
    MIXING:  cpu time      0.2214: real time      0.2218
    --------------------------------------------
      LOOP:  cpu time    297.6088: real time    298.2540

 eigenvalue-minimisations  :   368
 total energy-change (2. order) : 0.1195371E+01  (-0.1515580E-01)
 number of electron      63.9999984 magnetization       8.6219463
 augmentation part        1.9705059 magnetization       8.6031513

 Broyden mixing:
  rms(total) = 0.49326E-01    rms(broyden)= 0.49325E-01
  rms(prec ) = 0.49438E-01
  weight for this iteration     100.00

 eigenvalues of (default mixing * dielectric matrix)
  average eigenvalue GAMMA=   1.9617
  7.8795  2.7047  2.2955  1.8444  1.0046  1.0046  0.7600  0.7600  0.6248  0.7387

 Free energy of the ion-electron system (eV)
  ---------------------------------------------------
  alpha Z        PSCENC =         0.29396090
  Ewald energy   TEWEN  =      7511.97941415
  -Hartree energ DENC   =     -9403.49590845
  -exchange      EXHF   =         0.00000000
  -V(xc)+E(xc)   XCENC  =       260.84897491
  PAW double counting   =      5947.71408636    -5977.33731886
  entropy T*S    EENTRO =        -0.00000000
  eigenvalues    EBANDS =      -839.81945557
  atomic energy  EATOM  =      2323.00179344
  Solvation  Ediel_sol  =         9.42895818
  ---------------------------------------------------
  free energy    TOTEN  =      -167.38549494 eV

  energy without entropy =     -167.38549494  energy(sigma->0) =     -167.38549494


--------------------------------------------------------------------------------------------------------




--------------------------------------- Iteration      1(  16)  ---------------------------------------


    POTLOK:  cpu time    120.0040: real time    120.2328
    SETDIJ:  cpu time      0.3266: real time      0.3273
    EDDIAG:  cpu time     15.1747: real time     15.2122
  RMM-DIIS:  cpu time    120.3375: real time    120.6104
    ORTHCH:  cpu time      0.1971: real time      0.1977
       DOS:  cpu time      0.0005: real time      0.0005
    CHARGE:  cpu time     42.2420: real time     42.3368
    MIXING:  cpu time      0.2085: real time      0.2088
    --------------------------------------------
      LOOP:  cpu time    298.4909: real time    299.1265

 eigenvalue-minimisations  :   368
 total energy-change (2. order) : 0.1270825E+01  (-0.8366553E-02)
 number of electron      63.9999984 magnetization       7.5435022
 augmentation part        1.9695275 magnetization       7.5277347

 Broyden mixing:
  rms(total) = 0.39148E-01    rms(broyden)= 0.39146E-01
  rms(prec ) = 0.39246E-01
  weight for this iteration     100.00

 eigenvalues of (default mixing * dielectric matrix)
  average eigenvalue GAMMA=   1.9948
  8.5070  3.2036  2.1596  2.1596  1.2270  0.9286  0.9286  0.7557  0.7557  0.6259
  0.6916

 Free energy of the ion-electron system (eV)
  ---------------------------------------------------
  alpha Z        PSCENC =         0.29396090
  Ewald energy   TEWEN  =      7511.97941415
  -Hartree energ DENC   =     -9403.73462062
  -exchange      EXHF   =         0.00000000
  -V(xc)+E(xc)   XCENC  =       262.09864705
  PAW double counting   =      5928.25858927    -5957.89280718
  entropy T*S    EENTRO =        -0.00000000
  eigenvalues    EBANDS =      -840.46934128
  atomic energy  EATOM  =      2323.00179344
  Solvation  Ediel_sol  =        10.34969445
  ---------------------------------------------------
  free energy    TOTEN  =      -166.11466982 eV

  energy without entropy =     -166.11466982  energy(sigma->0) =     -166.11466982


--------------------------------------------------------------------------------------------------------




--------------------------------------- Iteration      1(  17)  ---------------------------------------


    POTLOK:  cpu time    117.3326: real time    117.5701
    SETDIJ:  cpu time      0.3328: real time      0.3335
    EDDIAG:  cpu time     15.2031: real time     15.2362
  RMM-DIIS:  cpu time    120.6589: real time    120.9410
    ORTHCH:  cpu time      0.1987: real time      0.1992
       DOS:  cpu time      0.0002: real time      0.0002
    CHARGE:  cpu time     42.4369: real time     42.5371
    MIXING:  cpu time      0.2178: real time      0.2182
    --------------------------------------------
      LOOP:  cpu time    296.3811: real time    297.0355

 eigenvalue-minimisations  :   368
 total energy-change (2. order) : 0.8678885E+00  ( 0.2634985E-02)
 number of electron      63.9999984 magnetization       6.3291503
 augmentation part        1.9714070 magnetization       6.3157892

 Broyden mixing:
  rms(total) = 0.32831E-01    rms(broyden)= 0.32829E-01
  rms(prec ) = 0.32878E-01
  weight for this iteration     100.00

 eigenvalues of (default mixing * dielectric matrix)
  average eigenvalue GAMMA=   2.0573
  9.0279  3.7855  2.6700  1.8846  1.7084  1.1052  0.9455  0.7873  0.7460  0.7460
  0.6257  0.6559

 Free energy of the ion-electron system (eV)
  ---------------------------------------------------
  alpha Z        PSCENC =         0.29396090
  Ewald energy   TEWEN  =      7511.97941415
  -Hartree energ DENC   =     -9402.77999278
  -exchange      EXHF   =         0.00000000
  -V(xc)+E(xc)   XCENC  =       262.92512665
  PAW double counting   =      5933.08530091    -5962.71018849
  entropy T*S    EENTRO =        -0.00000000
  eigenvalues    EBANDS =      -841.43437286
  atomic energy  EATOM  =      2323.00179344
  Solvation  Ediel_sol  =        10.39217677
  ---------------------------------------------------
  free energy    TOTEN  =      -165.24678132 eV

  energy without entropy =     -165.24678132  energy(sigma->0) =     -165.24678132


--------------------------------------------------------------------------------------------------------




--------------------------------------- Iteration      1(  18)  ---------------------------------------


    POTLOK:  cpu time    117.1909: real time    117.4163
    SETDIJ:  cpu time      0.3346: real time      0.3353
    EDDIAG:  cpu time     15.1758: real time     15.2096
  RMM-DIIS:  cpu time    120.7061: real time    120.9776
    ORTHCH:  cpu time      0.1984: real time      0.1990
       DOS:  cpu time      0.0004: real time      0.0004
    CHARGE:  cpu time     42.2166: real time     42.3183
    MIXING:  cpu time      0.2230: real time      0.2233
    --------------------------------------------
      LOOP:  cpu time    296.0459: real time    296.6799

 eigenvalue-minimisations  :   368
 total energy-change (2. order) : 0.8546683E+00  ( 0.1414095E-02)
 number of electron      63.9999984 magnetization       5.3411911
 augmentation part        1.9699169 magnetization       5.3292558

 Broyden mixing:
  rms(total) = 0.26610E-01    rms(broyden)= 0.26609E-01
  rms(prec ) = 0.26642E-01
  weight for this iteration     100.00

 eigenvalues of (default mixing * dielectric matrix)
  average eigenvalue GAMMA=   2.1432
  9.7862  4.9002  2.6491  1.9636  1.9636  1.1854  0.9860  0.9860  0.7341  0.7341
  0.7178  0.6279  0.6279

 Free energy of the ion-electron system (eV)
  ---------------------------------------------------
  alpha Z        PSCENC =         0.29396090
  Ewald energy   TEWEN  =      7511.97941415
  -Hartree energ DENC   =     -9402.66707687
  -exchange      EXHF   =         0.00000000
  -V(xc)+E(xc)   XCENC  =       263.79213195
  PAW double counting   =      5955.27196412    -5984.89830610
  entropy T*S    EENTRO =        -0.00000000
  eigenvalues    EBANDS =      -841.23625983
  atomic energy  EATOM  =      2323.00179344
  Solvation  Ediel_sol  =        10.07026523
  ---------------------------------------------------
  free energy    TOTEN  =      -164.39211301 eV

  energy without entropy =     -164.39211301  energy(sigma->0) =     -164.39211301


--------------------------------------------------------------------------------------------------------




--------------------------------------- Iteration      1(  19)  ---------------------------------------


    POTLOK:  cpu time    115.8389: real time    116.0589
    SETDIJ:  cpu time      0.3254: real time      0.3261
    EDDIAG:  cpu time     15.1977: real time     15.2343
  RMM-DIIS:  cpu time    120.7960: real time    121.0681
    ORTHCH:  cpu time      0.1956: real time      0.1961
       DOS:  cpu time      0.0004: real time      0.0004
    CHARGE:  cpu time     42.0927: real time     42.1995
    MIXING:  cpu time      0.2327: real time      0.2331
    --------------------------------------------
      LOOP:  cpu time    294.6793: real time    295.3164

 eigenvalue-minimisations  :   368
 total energy-change (2. order) : 0.6030283E+00  ( 0.3762230E-03)
 number of electron      63.9999984 magnetization       4.4658047
 augmentation part        1.9686311 magnetization       4.4549257

 Broyden mixing:
  rms(total) = 0.23482E-01    rms(broyden)= 0.23481E-01
  rms(prec ) = 0.23535E-01
  weight for this iteration     100.00

 eigenvalues of (default mixing * dielectric matrix)
  average eigenvalue GAMMA=   2.1466
 10.2739  5.4240  2.5716  2.4417  1.7476  1.3613  1.0940  0.8683  0.8683  0.7256
  0.7256  0.6202  0.6652  0.6652

 Free energy of the ion-electron system (eV)
  ---------------------------------------------------
  alpha Z        PSCENC =         0.29396090
  Ewald energy   TEWEN  =      7511.97941415
  -Hartree energ DENC   =     -9402.20650560
  -exchange      EXHF   =         0.00000000
  -V(xc)+E(xc)   XCENC  =       264.36918937
  PAW double counting   =      5953.84410675    -5983.47375563
  entropy T*S    EENTRO =        -0.00000000
  eigenvalues    EBANDS =      -841.54957430
  atomic energy  EATOM  =      2323.00179344
  Solvation  Ediel_sol  =         9.95228623
  ---------------------------------------------------
  free energy    TOTEN  =      -163.78908469 eV

  energy without entropy =     -163.78908469  energy(sigma->0) =     -163.78908469


--------------------------------------------------------------------------------------------------------




--------------------------------------- Iteration      1(  20)  ---------------------------------------


    POTLOK:  cpu time    114.3245: real time    114.5421
    SETDIJ:  cpu time      0.3240: real time      0.3247
    EDDIAG:  cpu time     15.1720: real time     15.2061
  RMM-DIIS:  cpu time    120.4724: real time    120.7358
    ORTHCH:  cpu time      0.1983: real time      0.1991
       DOS:  cpu time      0.0003: real time      0.0003
    CHARGE:  cpu time     42.1107: real time     42.2127
    MIXING:  cpu time      0.2720: real time      0.2725
    --------------------------------------------
      LOOP:  cpu time    292.8742: real time    293.4933

 eigenvalue-minimisations  :   368
 total energy-change (2. order) : 0.5161874E+00  (-0.9906517E-03)
 number of electron      63.9999984 magnetization       2.6432763
 augmentation part        1.9682734 magnetization       2.6334889

 Broyden mixing:
  rms(total) = 0.19693E-01    rms(broyden)= 0.19692E-01
  rms(prec ) = 0.19715E-01
  weight for this iteration     100.00

 eigenvalues of (default mixing * dielectric matrix)
  average eigenvalue GAMMA=   2.2388
 10.9051  6.0866  3.0538  2.6922  1.7373  1.7373  1.1237  1.1237  0.9503  0.7368
  0.7368  0.7516  0.7067  0.6312  0.6088

 Free energy of the ion-electron system (eV)
  ---------------------------------------------------
  alpha Z        PSCENC =         0.29396090
  Ewald energy   TEWEN  =      7511.97941415
  -Hartree energ DENC   =     -9401.06356770
  -exchange      EXHF   =         0.00000000
  -V(xc)+E(xc)   XCENC  =       264.83249083
  PAW double counting   =      5955.03025370    -5984.64629139
  entropy T*S    EENTRO =        -0.00000000
  eigenvalues    EBANDS =      -842.59706595
  atomic energy  EATOM  =      2323.00179344
  Solvation  Ediel_sol  =         9.89611475
  ---------------------------------------------------
  free energy    TOTEN  =      -163.27289726 eV

  energy without entropy =     -163.27289726  energy(sigma->0) =     -163.27289726


--------------------------------------------------------------------------------------------------------




--------------------------------------- Iteration      1(  21)  ---------------------------------------


    POTLOK:  cpu time    117.5018: real time    117.7374
    SETDIJ:  cpu time      0.3295: real time      0.3302
    EDDIAG:  cpu time     15.1592: real time     15.1949
  RMM-DIIS:  cpu time    120.6272: real time    120.8864
    ORTHCH:  cpu time      0.1966: real time      0.1972
       DOS:  cpu time      0.0013: real time      0.0013
    CHARGE:  cpu time     42.0785: real time     42.1710
    MIXING:  cpu time      0.2563: real time      0.2566
    --------------------------------------------
      LOOP:  cpu time    296.1503: real time    296.7751

 eigenvalue-minimisations  :   368
 total energy-change (2. order) : 0.1039896E+01  ( 0.2273325E-02)
 number of electron      63.9999984 magnetization       1.8128762
 augmentation part        1.9680575 magnetization       1.8040467

 Broyden mixing:
  rms(total) = 0.16905E-01    rms(broyden)= 0.16904E-01
  rms(prec ) = 0.16994E-01
  weight for this iteration     100.00

 eigenvalues of (default mixing * dielectric matrix)
  average eigenvalue GAMMA=   2.3326
 11.8347  7.0373  3.6246  2.6031  2.0129  1.8690  1.2944  1.0708  0.9461  0.9461
  0.6932  0.6932  0.7257  0.7257  0.6226  0.6226

 Free energy of the ion-electron system (eV)
  ---------------------------------------------------
  alpha Z        PSCENC =         0.29396090
  Ewald energy   TEWEN  =      7511.97941415
  -Hartree energ DENC   =     -9399.12445650
  -exchange      EXHF   =         0.00000000
  -V(xc)+E(xc)   XCENC  =       265.79337048
  PAW double counting   =      5958.61614628    -5988.21165418
  entropy T*S    EENTRO =        -0.00000000
  eigenvalues    EBANDS =      -844.24788505
  atomic energy  EATOM  =      2323.00179344
  Solvation  Ediel_sol  =         9.66630932
  ---------------------------------------------------
  free energy    TOTEN  =      -162.23300115 eV

  energy without entropy =     -162.23300115  energy(sigma->0) =     -162.23300115


--------------------------------------------------------------------------------------------------------




--------------------------------------- Iteration      1(  22)  ---------------------------------------


    POTLOK:  cpu time    114.2356: real time    114.4523
    SETDIJ:  cpu time      0.3267: real time      0.3274
    EDDIAG:  cpu time     15.1744: real time     15.2069
  RMM-DIIS:  cpu time    121.0510: real time    121.3244
    ORTHCH:  cpu time      0.1965: real time      0.1971
       DOS:  cpu time      0.0009: real time      0.0009
    CHARGE:  cpu time     42.1305: real time     42.2284
    MIXING:  cpu time      0.2726: real time      0.2730
    --------------------------------------------
      LOOP:  cpu time    293.3882: real time    294.0103

 eigenvalue-minimisations  :   368
 total energy-change (2. order) : 0.3778339E+00  ( 0.1047262E-02)
 number of electron      63.9999984 magnetization       0.7876079
 augmentation part        1.9673082 magnetization       0.7788581

 Broyden mixing:
  rms(total) = 0.10546E-01    rms(broyden)= 0.10545E-01
  rms(prec ) = 0.10596E-01
  weight for this iteration     100.00

[...]

 eigenvalue-minimisations  :   238
 total energy-change (2. order) :-0.8990817E-05  (-0.8730728E-05)
 number of electron      63.9999984 magnetization       0.0000951
 augmentation part        1.9657608 magnetization       0.0000959

 Free energy of the ion-electron system (eV)
  ---------------------------------------------------
  alpha Z        PSCENC =         0.29396090
  Ewald energy   TEWEN  =      7512.17138687
  -Hartree energ DENC   =     -9398.41621471
  -exchange      EXHF   =         0.00000000
  -V(xc)+E(xc)   XCENC  =       266.98882965
  PAW double counting   =      5954.94867735    -5984.55575770
  entropy T*S    EENTRO =        -0.00000000
  eigenvalues    EBANDS =      -844.56319695
  atomic energy  EATOM  =      2323.00179344
  Solvation  Ediel_sol  =         9.09404311
  ---------------------------------------------------
  free energy    TOTEN  =      -161.03647803 eV

  energy without entropy =     -161.03647803  energy(sigma->0) =     -161.03647803


--------------------------------------------------------------------------------------------------------




 average (electrostatic) potential at core
  the test charge radii are     0.6991  0.7215  0.5201
  (the norm of the test charge is              1.0000)
       1 -61.0080       2 -61.0051       3 -60.8404       4 -60.9980       5 -60.9695
       6 -62.4697       7 -62.4692       8 -60.9674       9 -60.9967      10 -60.8408
      11 -61.0074      12 -61.0096      13 -85.4044      14 -44.5349      15 -44.3506
      16 -44.2868      17 -44.3459      18 -44.4649      19 -44.4691      20 -44.3479
      21 -44.2836      22 -44.3469      23 -44.5352
 
 
 
 E-fermi :  -5.3594     XC(G=0):  -0.0507     alpha+bet : -0.0243

 Fermi energy:        -5.3594314796

 spin component 1

 k-point     1 :       0.0000    0.0000    0.0000
  band No.  band energies     occupation 
      1     -28.5601      1.00000
      2     -22.7051      1.00000
      3     -22.3243      1.00000
      4     -20.0464      1.00000
      5     -19.6966      1.00000
      6     -19.5898      1.00000
      7     -18.9670      1.00000
      8     -16.5248      1.00000
      9     -16.0514      1.00000
     10     -15.7352      1.00000
     11     -15.0346      1.00000
     12     -14.0991      1.00000
     13     -13.0845      1.00000
     14     -12.4542      1.00000
     15     -12.1972      1.00000
     16     -11.9579      1.00000
     17     -11.3215      1.00000
     18     -11.1952      1.00000
     19     -10.7691      1.00000
     20     -10.7492      1.00000
     21     -10.2824      1.00000
     22     -10.1485      1.00000
     23      -9.4256      1.00000
     24      -9.1387      1.00000
     25      -8.9900      1.00000
     26      -8.9456      1.00000
     27      -8.4279      1.00000
     28      -8.2875      1.00000
     29      -6.7657      1.00000
     30      -6.6066      1.00000
     31      -6.5346      1.00000
     32      -5.6654      1.00000
     33      -1.3495      0.00000
     34      -1.1390      0.00000
     35      -0.9668      0.00000
     36      -0.6618      0.00000
     37      -0.0577      0.00000
     38       0.0053      0.00000
     39       0.0632      0.00000
     40       0.0675      0.00000
     41       0.0678      0.00000
     42       0.0697      0.00000
     43       0.0705      0.00000
     44       0.1276      0.00000
     45       0.1454      0.00000
     46       0.1584      0.00000
     47       0.1591      0.00000
     48       0.1612      0.00000
     49       0.1618      0.00000
     50       0.1624      0.00000
     51       0.1629      0.00000
     52       0.1629      0.00000
     53       0.1640      0.00000
     54       0.1661      0.00000
     55       0.1672      0.00000
     56       0.2410      0.00000
     57       0.2440      0.00000
     58       0.2528      0.00000
     59       0.2541      0.00000
     60       0.2573      0.00000
 Fermi energy:        -5.3594314796

 spin component 2

 k-point     1 :       0.0000    0.0000    0.0000
  band No.  band energies     occupation 
      1     -28.5601      1.00000
      2     -22.7051      1.00000
      3     -22.3243      1.00000
      4     -20.0464      1.00000
      5     -19.6966      1.00000
      6     -19.5898      1.00000
      7     -18.9670      1.00000
      8     -16.5248      1.00000
      9     -16.0514      1.00000
     10     -15.7352      1.00000
     11     -15.0346      1.00000
     12     -14.0991      1.00000
     13     -13.0845      1.00000
     14     -12.4542      1.00000
     15     -12.1972      1.00000
     16     -11.9579      1.00000
     17     -11.3215      1.00000
     18     -11.1952      1.00000
     19     -10.7691      1.00000
     20     -10.7492      1.00000
     21     -10.2824      1.00000
     22     -10.1485      1.00000
     23      -9.4256      1.00000
     24      -9.1387      1.00000
     25      -8.9900      1.00000
     26      -8.9456      1.00000
     27      -8.4279      1.00000
     28      -8.2875      1.00000
     29      -6.7657      1.00000
     30      -6.6066      1.00000
     31      -6.5346      1.00000
     32      -5.6655      1.00000
     33      -1.3495      0.00000
     34      -1.1391      0.00000
     35      -0.9668      0.00000
     36      -0.6619      0.00000
     37      -0.0585      0.00000
     38       0.0095      0.00000
     39       0.0728      0.00000
     40       0.0780      0.00000
     41       0.0781      0.00000
     42       0.0840      0.00000
     43       0.0845      0.00000
     44       0.1146      0.00000
     45       0.1453      0.00000
     46       0.1595      0.00000
     47       0.1595      0.00000
     48       0.1752      0.00000
     49       0.1754      0.00000
     50       0.1756      0.00000
     51       0.1772      0.00000
     52       0.1778      0.00000
     53       0.1788      0.00000
     54       0.1789      0.00000
     55       0.1792      0.00000
     56       0.2431      0.00000
     57       0.2466      0.00000
     58       0.2574      0.00000
     59       0.2578      0.00000
     60       0.2681      0.00000


--------------------------------------------------------------------------------------------------------


 soft charge-density along one line, spin component           1
         0         1         2         3         4         5         6         7         8         9
 total charge-density along one line
 
 soft charge-density along one line, spin component           2
         0         1         2         3         4         5         6         7         8         9
 total charge-density along one line
 
 pseudopotential strength for first ion, spin component:           1
 10.457  13.904   0.001  -0.001  -0.002  -0.005   0.005   0.001
 13.904  18.488   0.002  -0.002  -0.002  -0.006   0.006   0.001
  0.001   0.002  -4.356   0.024   0.009   8.455  -0.036  -0.014
 -0.001  -0.002   0.024  -4.334   0.010  -0.036   8.421  -0.015
 -0.002  -0.002   0.009   0.010  -4.370  -0.014  -0.015   8.477
 -0.005  -0.006   8.455  -0.036  -0.014 -18.681   0.049   0.019
  0.005   0.006  -0.036   8.421  -0.015   0.049 -18.635   0.020
  0.001   0.001  -0.014  -0.015   8.477   0.019   0.020 -18.710
 pseudopotential strength for first ion, spin component:           2
 10.457  13.904   0.001  -0.001  -0.002  -0.005   0.005   0.001
 13.904  18.488   0.002  -0.002  -0.002  -0.006   0.006   0.001
  0.001   0.002  -4.356   0.024   0.009   8.455  -0.036  -0.014
 -0.001  -0.002   0.024  -4.334   0.010  -0.036   8.421  -0.015
 -0.002  -0.002   0.009   0.010  -4.370  -0.014  -0.015   8.477
 -0.005  -0.006   8.455  -0.036  -0.014 -18.681   0.049   0.019
  0.005   0.006  -0.036   8.421  -0.015   0.049 -18.635   0.020
  0.001   0.001  -0.014  -0.015   8.477   0.019   0.020 -18.710
 total augmentation occupancy for first ion, spin component:           1
  9.000  -4.094   0.144  -0.159   0.199   0.030  -0.033   0.040
 -4.094   1.905  -0.103   0.115  -0.126  -0.019   0.020  -0.024
  0.144  -0.103   1.668  -0.268  -0.113   0.152  -0.044  -0.020
 -0.159   0.115  -0.268   1.421  -0.097  -0.044   0.114  -0.013
  0.199  -0.126  -0.113  -0.097   1.812  -0.020  -0.013   0.171
  0.030  -0.019   0.152  -0.044  -0.020   0.015  -0.006  -0.003
 -0.033   0.020  -0.044   0.114  -0.013  -0.006   0.010  -0.001
  0.040  -0.024  -0.020  -0.013   0.171  -0.003  -0.001   0.017
 total augmentation occupancy for first ion, spin component:           2
 -0.000   0.000   0.000  -0.000  -0.000   0.000  -0.000  -0.000
  0.000  -0.000  -0.000   0.000   0.000  -0.000   0.000   0.000
  0.000  -0.000   0.000   0.000  -0.000  -0.000  -0.000   0.000
 -0.000   0.000   0.000   0.000   0.000  -0.000  -0.000  -0.000
 -0.000   0.000  -0.000   0.000  -0.000   0.000  -0.000   0.000
  0.000  -0.000  -0.000  -0.000   0.000  -0.000  -0.000   0.000
 -0.000   0.000  -0.000  -0.000  -0.000  -0.000  -0.000  -0.000
 -0.000   0.000   0.000  -0.000   0.000   0.000  -0.000   0.000


------------------------ aborting loop because EDIFF is reached ----------------------------------------


    CHARGE:  cpu time      5.9205: real time      5.9340
    FORLOC:  cpu time      0.4362: real time      0.4367
    FORNL :  cpu time      5.4770: real time      5.4891
    STRESS:  cpu time    177.0302: real time    177.4086
    FORCOR:  cpu time      8.9178: real time      8.9340
    FORHAR:  cpu time      1.0846: real time      1.0862
    MIXING:  cpu time      0.1153: real time      0.1155
    OFIELD:  cpu time      0.0000: real time      0.0000

 ---------------------------------------------------------------------------------------------

         DFTD3 V3.0 Rev 1        
 Edisp (eV)   -0.22497

 E6    (eV) :    -0.1758
 E8    (eV) :    -0.0492
 % E8        : 21.87
    FORVDW:  cpu time      0.0078: real time      0.0078

  FORCE on cell =-STRESS in cart. coord.  units (eV):
  Direction    XX          YY          ZZ          XY          YZ          ZX
  --------------------------------------------------------------------------------------
  Alpha Z     0.29396     0.29396     0.29396
  Ewald    5116.79414  1872.73538   522.63995    -0.00103    -0.01983  -373.84524
  Hartree  5181.60719  2535.06598  1681.78317    -0.00008     0.00109  -172.33136
  E(xc)    -242.45076  -242.90983  -243.77175    -0.00007     0.00010    -0.50669
  Local  -10898.68217 -5056.73927 -2905.90391    -0.00421     0.01184   524.37878
  n-local   -86.02352   -87.74930   -85.75325     0.00066     0.00058     1.65543
  augment     1.35243     3.04595     4.19583     0.00000     0.00008     0.05602
  Kinetic   927.51499   976.11379  1025.21129    -0.00123     0.00146    19.71721
  Fock        0.00000     0.00000     0.00000     0.00000     0.00000     0.00000
  vdW        -0.13032    -0.02504    -0.01467    -0.00000     0.00000    -0.00701
  -------------------------------------------------------------------------------------
  Total       0.27594    -0.16837    -1.31939     0.00000     0.00000    -0.88285
  in kB       0.00691    -0.00422    -0.03303     0.00000     0.00000    -0.02210
  external pressure =       -0.01 kB  Pullay stress =        0.00 kB


 VOLUME and BASIS-vectors are now :
 -----------------------------------------------------------------------------
  energy-cutoff  :      500.00
  volume of cell :    64000.00
      direct lattice vectors                 reciprocal lattice vectors
    40.000000000  0.000000000  0.000000000     0.025000000  0.000000000  0.000000000
     0.000000000 40.000000000  0.000000000     0.000000000  0.025000000  0.000000000
     0.000000000  0.000000000 40.000000000     0.000000000  0.000000000  0.025000000

  length of vectors
    40.000000000 40.000000000 40.000000000     0.025000000  0.025000000  0.025000000


 FORCES acting on ions
    electron-ion (+dipol)            ewald-force                    non-local-force                 convergence-correction
 -----------------------------------------------------------------------------------------------
   0.178E+02 0.124E+03 -.135E+03   -.181E+02 -.125E+03 0.137E+03   0.567E+00 0.130E+01 -.145E+01   0.395E-02 -.103E-01 0.398E-02
   -.925E+02 0.178E+03 -.114E+03   0.931E+02 -.178E+03 0.114E+03   -.692E+00 0.103E+01 -.489E+00   -.480E-02 -.594E-02 0.478E-02
   -.220E+03 0.911E+02 -.106E+02   0.220E+03 -.913E+02 0.107E+02   -.120E+01 0.555E+00 -.599E-01   0.316E-02 0.558E-03 0.402E-03
   -.206E+03 -.730E+02 0.945E+02   0.206E+03 0.730E+02 -.944E+02   -.123E+01 -.148E+00 0.371E+00   0.406E-02 0.980E-02 -.510E-02
   -.928E+02 -.166E+03 0.117E+03   0.930E+02 0.167E+03 -.118E+03   -.540E+00 -.130E+01 0.135E+01   0.109E-01 0.281E-02 -.353E-02
   -.669E+02 -.318E+02 -.408E+01   0.734E+02 0.285E+02 0.422E+01   -.646E+01 0.366E+01 0.244E-01   0.455E-03 0.552E-03 -.212E-02
   0.669E+02 -.317E+02 0.402E+01   -.734E+02 0.285E+02 -.421E+01   0.646E+01 0.366E+01 -.244E-01   -.457E-03 0.549E-03 0.213E-02
   0.929E+02 -.166E+03 -.117E+03   -.930E+02 0.167E+03 0.118E+03   0.540E+00 -.130E+01 -.135E+01   -.109E-01 0.281E-02 0.353E-02
   0.206E+03 -.731E+02 -.944E+02   -.206E+03 0.730E+02 0.943E+02   0.123E+01 -.148E+00 -.371E+00   -.406E-02 0.980E-02 0.510E-02
   0.220E+03 0.912E+02 0.106E+02   -.220E+03 -.913E+02 -.107E+02   0.120E+01 0.555E+00 0.599E-01   -.316E-02 0.553E-03 -.405E-03
   0.925E+02 0.178E+03 0.114E+03   -.931E+02 -.178E+03 -.114E+03   0.692E+00 0.103E+01 0.489E+00   0.480E-02 -.593E-02 -.478E-02
   -.179E+02 0.124E+03 0.135E+03   0.182E+02 -.125E+03 -.137E+03   -.567E+00 0.130E+01 0.145E+01   -.395E-02 -.103E-01 -.397E-02
   0.226E-01 -.315E+03 -.112E+00   -.173E-01 0.359E+03 0.151E-01   0.000E+00 -.432E+02 0.000E+00   -.117E-05 0.167E-02 -.501E-06
   -.362E+02 0.503E+02 0.610E+02   0.408E+02 -.525E+02 -.638E+02   -.468E+01 0.242E+01 0.306E+01   -.508E-03 -.124E-02 -.722E-03
   0.225E+02 0.746E+02 0.484E+02   -.232E+02 -.793E+02 -.515E+02   0.743E+00 0.506E+01 0.327E+01   0.186E-03 0.417E-03 0.398E-03
   0.830E+02 0.379E+02 0.382E+01   -.881E+02 -.404E+02 -.405E+01   0.544E+01 0.265E+01 0.241E+00   -.167E-02 -.509E-03 0.145E-03
   0.744E+02 -.340E+02 -.419E+02   -.788E+02 0.363E+02 0.447E+02   0.468E+01 -.247E+01 -.298E+01   0.121E-02 -.180E-03 -.867E-03
   0.120E+02 -.778E+02 -.517E+02   -.110E+02 0.827E+02 0.547E+02   -.853E+00 -.509E+01 -.320E+01   -.214E-02 0.297E-03 0.227E-03
   -.120E+02 -.778E+02 0.518E+02   0.110E+02 0.827E+02 -.547E+02   0.853E+00 -.509E+01 0.320E+01   0.214E-02 0.298E-03 -.227E-03
   -.744E+02 -.340E+02 0.420E+02   0.788E+02 0.363E+02 -.447E+02   -.468E+01 -.247E+01 0.298E+01   -.121E-02 -.180E-03 0.869E-03
   -.830E+02 0.379E+02 -.380E+01   0.881E+02 -.404E+02 0.405E+01   -.544E+01 0.265E+01 -.241E+00   0.167E-02 -.509E-03 -.146E-03
   -.226E+02 0.746E+02 -.484E+02   0.232E+02 -.793E+02 0.515E+02   -.743E+00 0.506E+01 -.327E+01   -.187E-03 0.415E-03 -.398E-03
   0.362E+02 0.503E+02 -.610E+02   -.408E+02 -.524E+02 0.639E+02   0.468E+01 0.242E+01 -.306E+01   0.507E-03 -.124E-02 0.722E-03
 -----------------------------------------------------------------------------------------------
   -.813E-03 0.278E+02 -.187E+00   0.711E-14 0.284E-13 0.711E-13   0.000E+00 -.278E+02 0.000E+00   -.458E-05 -.569E-02 0.314E-05
 
 
 POSITION                                       TOTAL-FORCE (eV/Angst)
 -----------------------------------------------------------------------------------
     21.36483     19.47526     20.78749         0.006989     -0.007421     -0.000686
     22.61972     18.87457     20.83629        -0.013718     -0.008093      0.010573
     23.69989     19.42747     20.15184         0.004492     -0.007985      0.006361
     23.52006     20.59550     19.41502         0.004864      0.012824     -0.009879
     22.26984     21.20421     19.35040         0.007682     -0.009967     -0.001321
     21.20009     20.63546     20.03474        -0.010507      0.013781     -0.002305
     18.79990     20.63536     19.96534         0.010507      0.013781      0.002305
     17.73006     21.20413     20.64955        -0.007682     -0.009967      0.001321
     16.47986     20.59544     20.58482        -0.004864      0.012824      0.009879
     16.30008     19.42733     19.84807        -0.004492     -0.007985     -0.006361
     17.38039     18.87442     19.16375         0.013718     -0.008093     -0.010573
     18.63521     19.47512     19.21268        -0.006989     -0.007421      0.000686
     19.99998     21.32754     20.00007        -0.000000     -0.010333      0.000000
     19.47303     19.05076     18.67231         0.003167     -0.000674      0.002750
     17.24882     17.97044     18.57847         0.003275      0.011878      0.006343
     15.32640     18.95282     19.80482         0.005809      0.003921     -0.001954
     15.64489     21.03694     21.11849         0.013594     -0.004471     -0.005310
     17.88448     22.11288     21.21953         0.011144      0.001373      0.003052
     22.11533     22.11285     18.78030        -0.011144      0.001373     -0.003052
     24.35494     21.03694     18.88125        -0.013594     -0.004471      0.005310
     24.67362     18.95298     20.19505        -0.005809      0.003921      0.001954
     22.75135     17.97067     21.42167        -0.003275      0.011878     -0.006343
     20.52712     19.05095     21.32802        -0.003167     -0.000674     -0.002750
 -----------------------------------------------------------------------------------
    total drift:                               -0.000818      0.011239     -0.186885


--------------------------------------------------------------------------------------------------------



  FREE ENERGIE OF THE ION-ELECTRON SYSTEM (eV)
  ---------------------------------------------------
  free  energy   TOTEN  =      -161.26144382 eV

  energy  without entropy=     -161.26144382  energy(sigma->0) =     -161.26144382
 
 d Force = 0.3032837E-04[-0.286E-04, 0.893E-04]  d Energy = 0.2654522E-04 0.378E-05
 d Force =-0.4803808E+00[-0.480E+00,-0.480E+00]  d Ewald  =-0.4803808E+00 0.770E-08


--------------------------------------------------------------------------------------------------------


    POTLOK:  cpu time    102.8829: real time    103.0719


--------------------------------------------------------------------------------------------------------


 Conjugate gradient step on ions:
 trial-energy change:   -0.000027  1 .order   -0.000030   -0.000089    0.000029
  (g-gl).g = 0.798E-04      g.g   = 0.150E-03  gl.gl    = 0.176E-03
 g(Force)  = 0.150E-03   g(Stress)= 0.000E+00 ortho     = 0.464E-05
 gamma     =   0.45288
 trial     =   0.58848
 opt step  =   0.44558  (harmonic =   0.44558) maximal distance =0.00052565
 next E    =  -161.261451   (d E  =  -0.00003)


--------------------------------------------------------------------------------------------------------


  
 reached required accuracy - stopping structural energy minimisation
 writing wavefunctions
     LOOP+:  cpu time    742.3040: real time    744.9476
    4ORBIT:  cpu time      0.0000: real time      0.0000

 total amount of memory used by VASP MPI-rank0  1109195. kBytes
=======================================================================

   base      :      30000. kBytes
   nonlr-proj:       1481. kBytes
   fftplans  :     212203. kBytes
   grid      :     807723. kBytes
   one-center:         18. kBytes
   wavefun   :      57770. kBytes
 
  
  
 General timing and accounting informations for this job:
 ========================================================
  
                  Total CPU time used (sec):    17064.756
                            User time (sec):    16008.310
                          System time (sec):     1056.447
                         Elapsed time (sec):    17102.729
  
                   Maximum memory used (kb):     6773936.
                   Average memory used (kb):          N/A
  
                          Minor page faults:    246405843
                          Major page faults:            0
                 Voluntary context switches:       255831
