 vasp.6.4.2 20Jul23 (build Sep 25 2024 10:35:16) complex                        
  
 executed on             LinuxIFC date 2024.09.26  09:52:13
 running   96 mpi-ranks, with    1 threads/rank, on    2 nodes
 distrk:  each k-point on   96 cores,    1 groups
 distr:  one band on NCORE=  48 cores,    2 groups


--------------------------------------------------------------------------------------------------------


 INCAR:
   SYSTEM = 078_ox
   ISTART = 0
   ICHARG = 2
   INIWAV = 1
   NELM = 100
   ALGO = fast   	
   ISPIN = 2
   EDIFF = 1E-05
   ISMEAR = 0
   SIGMA = 0.05
   PREC = accurate
   ENCUT = 500
   LREAL = auto  	
   LWAVE = .TRUE.
   LCHARG = .FALSE.
   LAECHG = .FALSE.
   LVHAR = .FALSE.
   LVTOT = .FALSE.
   EDIFFG = -0.02
   IBRION = 2
   NSW = 500
   ISIF = 2
   POTIM = 0.5
   IVDW = 11
   LPLANE = .TRUE.
   NCORE = 48
   LSCALU = .FALSE.
   NSIM = 4
   LSOL = .TRUE.
   EB_K = 35.6880
   LAMBDA_D_K = 3.04
   NELECT = 47
   TAU = 0

 POTCAR:    PAW_PBE C 08Apr2002                   
 POTCAR:    PAW_PBE O 08Apr2002                   
 POTCAR:    PAW_PBE S 06Sep2000                   
 POTCAR:    PAW_PBE H 15Jun2001                   
 -----------------------------------------------------------------------------
|                                                                             |
|           W    W    AA    RRRRR   N    N  II  N    N   GGGG   !!!           |
|           W    W   A  A   R    R  NN   N  II  NN   N  G    G  !!!           |
|           W    W  A    A  R    R  N N  N  II  N N  N  G       !!!           |
|           W WW W  AAAAAA  RRRRR   N  N N  II  N  N N  G  GGG   !            |
|           WW  WW  A    A  R   R   N   NN  II  N   NN  G    G                |
|           W    W  A    A  R    R  N    N  II  N    N   GGGG   !!!           |
|                                                                             |
|     You use a magnetic or noncollinear calculation, but did not specify     |
|     the initial magnetic moment with the MAGMOM tag. Note that a            |
|     default of 1 will be used for all atoms. This ferromagnetic setup       |
|     may break the symmetry of the crystal, in particular it may rule        |
|     out finding an antiferromagnetic solution. Thence, we recommend         |
|     setting the initial magnetic moment manually or verifying carefully     |
|     that this magnetic setup is desired.                                    |
|                                                                             |
 -----------------------------------------------------------------------------

 POTCAR:    PAW_PBE C 08Apr2002                   
   VRHFIN =C: s2p2                                                                                  
   LEXCH  = PE                                                                                      
   EATOM  =   147.1560 eV,   10.8157 Ry                                                             
                                                                                                    
   TITEL  = PAW_PBE C 08Apr2002                                                                     
   LULTRA =        F    use ultrasoft PP ?                                                          
   IUNSCR =        1    unscreen: 0-lin 1-nonlin 2-no                                               
   RPACOR =    1.200    partial core radius                                                         
   POMASS =   12.011; ZVAL   =    4.000    mass and valenz                                          
   RCORE  =    1.500    outmost cutoff radius                                                       
   RWIGS  =    1.630; RWIGS  =    0.863    wigner-seitz radius (au A)                               
   ENMAX  =  400.000; ENMIN  =  300.000 eV                                                          
   ICORE  =        2    local potential                                                             
   LCOR   =        T    correct aug charges                                                         
   LPAW   =        T    paw PP                                                                      
   EAUG   =  644.873                                                                                
   DEXC   =    0.000                                                                                
   RMAX   =    1.529    core radius for proj-oper                                                   
   RAUG   =    1.300    factor for augmentation sphere                                              
   RDEP   =    1.501    radius for radial grids                                                     
   RDEPT  =    1.300    core radius for aug-charge                                                  
                                                                                                    
   Atomic configuration                                                                             
    4 entries                                                                                       
     n  l   j            E        occ.                                                              
     1  0  0.50      -273.3789   2.0000                                                             
     2  0  0.50       -13.7508   2.0000                                                             
     2  1  0.50        -5.2854   2.0000                                                             
     3  2  1.50        -5.4423   0.0000                                                             
   Description                                                                                      
     l       E           TYP  RCUT    TYP  RCUT                                                     
     0    -13.7508458     23  1.200                                                                 
     0     -8.2022199     23  1.200                                                                 
     1     -5.2854383     23  1.500                                                                 
     1     34.0145650     23  1.500                                                                 
     2     -5.4423304      7  1.500                                                                 
  local pseudopotential read in
  partial core-charges read in
  partial kinetic energy density read in
  atomic valenz-charges read in
  non local Contribution for L=           0  read in
    real space projection operators read in
  non local Contribution for L=           0  read in
    real space projection operators read in
  non local Contribution for L=           1  read in
    real space projection operators read in
  non local Contribution for L=           1  read in
    real space projection operators read in
    PAW grid and wavefunctions read in
 
   number of l-projection  operators is LMAX  =           4
   number of lm-projection operators is LMMAX =           8
 
 POTCAR:    PAW_PBE O 08Apr2002                   
   VRHFIN =O: s2p4                                                                                  
   LEXCH  = PE                                                                                      
   EATOM  =   432.3788 eV,   31.7789 Ry                                                             
                                                                                                    
   TITEL  = PAW_PBE O 08Apr2002                                                                     
   LULTRA =        F    use ultrasoft PP ?                                                          
   IUNSCR =        1    unscreen: 0-lin 1-nonlin 2-no                                               
   RPACOR =    1.200    partial core radius                                                         
   POMASS =   16.000; ZVAL   =    6.000    mass and valenz                                          
   RCORE  =    1.520    outmost cutoff radius                                                       
   RWIGS  =    1.550; RWIGS  =    0.820    wigner-seitz radius (au A)                               
   ENMAX  =  400.000; ENMIN  =  300.000 eV                                                          
   ICORE  =        2    local potential                                                             
   LCOR   =        T    correct aug charges                                                         
   LPAW   =        T    paw PP                                                                      
   EAUG   =  605.392                                                                                
   DEXC   =    0.000                                                                                
   RMAX   =    1.553    core radius for proj-oper                                                   
   RAUG   =    1.300    factor for augmentation sphere                                              
   RDEP   =    1.550    radius for radial grids                                                     
   RDEPT  =    1.329    core radius for aug-charge                                                  
                                                                                                    
   Atomic configuration                                                                             
    4 entries                                                                                       
     n  l   j            E        occ.                                                              
     1  0  0.50      -514.6923   2.0000                                                             
     2  0  0.50       -23.9615   2.0000                                                             
     2  1  0.50        -9.0305   4.0000                                                             
     3  2  1.50        -9.5241   0.0000                                                             
   Description                                                                                      
     l       E           TYP  RCUT    TYP  RCUT                                                     
     0    -23.9615318     23  1.200                                                                 
     0     -9.5240782     23  1.200                                                                 
     1     -9.0304911     23  1.520                                                                 
     1      8.1634956     23  1.520                                                                 
     2     -9.5240782      7  1.500                                                                 
  local pseudopotential read in
  partial core-charges read in
  partial kinetic energy density read in
  kinetic energy density of atom read in
  atomic valenz-charges read in
  non local Contribution for L=           0  read in
    real space projection operators read in
  non local Contribution for L=           0  read in
    real space projection operators read in
  non local Contribution for L=           1  read in
    real space projection operators read in
  non local Contribution for L=           1  read in
    real space projection operators read in
    PAW grid and wavefunctions read in
 
   number of l-projection  operators is LMAX  =           4
   number of lm-projection operators is LMMAX =           8
 
 POTCAR:    PAW_PBE S 06Sep2000                   
   VRHFIN =S : s2p4                                                                                 
   LEXCH  = PE                                                                                      
   EATOM  =   276.8230 eV,   20.3459 Ry                                                             
                                                                                                    
   TITEL  = PAW_PBE S 06Sep2000                                                                     
   LULTRA =        F    use ultrasoft PP ?                                                          
   IUNSCR =        1    unscreen: 0-lin 1-nonlin 2-no                                               
   RPACOR =    1.500    partial core radius                                                         
   POMASS =   32.066; ZVAL   =    6.000    mass and valenz                                          
   RCORE  =    1.900    outmost cutoff radius                                                       
   RWIGS  =    2.200; RWIGS  =    1.164    wigner-seitz radius (au A)                               
   ENMAX  =  258.689; ENMIN  =  194.016 eV                                                          
   ICORE  =        2    local potential                                                             
   LCOR   =        T    correct aug charges                                                         
   LPAW   =        T    paw PP                                                                      
   EAUG   =  335.092                                                                                
   DEXC   =    0.000                                                                                
   RMAX   =    1.942    core radius for proj-oper                                                   
   RAUG   =    1.300    factor for augmentation sphere                                              
   RDEP   =    1.954    radius for radial grids                                                     
   RDEPT  =    1.744    core radius for aug-charge                                                  
                                                                                                    
   Atomic configuration                                                                             
    6 entries                                                                                       
     n  l   j            E        occ.                                                              
     1  0  0.50     -2405.8406   2.0000                                                             
     2  0  0.50      -211.7007   2.0000                                                             
     2  1  1.50      -156.4958   6.0000                                                             
     3  0  0.50       -17.2562   2.0000                                                             
     3  1  0.50        -7.0085   4.0000                                                             
     3  2  1.50        -6.8029   0.0000                                                             
   Description                                                                                      
     l       E           TYP  RCUT    TYP  RCUT                                                     
     0    -17.2561641     23  1.900                                                                 
     0    -15.8743224     23  1.900                                                                 
     1     -7.0085400     23  1.900                                                                 
     1     -2.7779785     23  1.900                                                                 
     2     -6.8029130     23  1.900                                                                 
  local pseudopotential read in
  partial core-charges read in
  partial kinetic energy density read in
  atomic valenz-charges read in
  non local Contribution for L=           0  read in
    real space projection operators read in
  non local Contribution for L=           0  read in
    real space projection operators read in
  non local Contribution for L=           1  read in
    real space projection operators read in
  non local Contribution for L=           1  read in
    real space projection operators read in
    PAW grid and wavefunctions read in
 
   number of l-projection  operators is LMAX  =           4
   number of lm-projection operators is LMMAX =           8
 
 POTCAR:    PAW_PBE H 15Jun2001                   
   VRHFIN =H: ultrasoft test                                                                        
   LEXCH  = PE                                                                                      
   EATOM  =    12.4884 eV,    0.9179 Ry                                                             
                                                                                                    
   TITEL  = PAW_PBE H 15Jun2001                                                                     
   LULTRA =        F    use ultrasoft PP ?                                                          
   IUNSCR =        0    unscreen: 0-lin 1-nonlin 2-no                                               
   RPACOR =    0.000    partial core radius                                                         
   POMASS =    1.000; ZVAL   =    1.000    mass and valenz                                          
   RCORE  =    1.100    outmost cutoff radius                                                       
   RWIGS  =    0.700; RWIGS  =    0.370    wigner-seitz radius (au A)                               
   ENMAX  =  250.000; ENMIN  =  200.000 eV                                                          
   RCLOC  =    0.701    cutoff for local pot                                                        
   LCOR   =        T    correct aug charges                                                         
   LPAW   =        T    paw PP                                                                      
   EAUG   =  400.000                                                                                
   RMAX   =    1.123    core radius for proj-oper                                                   
   RAUG   =    1.200    factor for augmentation sphere                                              
   RDEP   =    1.112    radius for radial grids                                                     
   RDEPT  =    0.926    core radius for aug-charge                                                  
                                                                                                    
   Atomic configuration                                                                             
    2 entries                                                                                       
     n  l   j            E        occ.                                                              
     1  0  0.50        -6.4927   1.0000                                                             
     2  1  0.50        -3.4015   0.0000                                                             
   Description                                                                                      
     l       E           TYP  RCUT    TYP  RCUT                                                     
     0     -6.4927494     23  1.100                                                                 
     0      6.8029130     23  1.100                                                                 
     1     -4.0817478     23  1.100                                                                 
  local pseudopotential read in
  atomic valenz-charges read in
  non local Contribution for L=           0  read in
    real space projection operators read in
  non local Contribution for L=           0  read in
    real space projection operators read in
  non local Contribution for L=           1  read in
    real space projection operators read in
    PAW grid and wavefunctions read in
 
   number of l-projection  operators is LMAX  =           3
   number of lm-projection operators is LMMAX =           5
 
 Optimization of the real space projectors (new method)

 maximal supplied QI-value         = 25.13
 optimisation between [QCUT,QGAM] = [ 11.31, 22.87] = [ 35.82,146.48] Ry 
 Optimized for a Real-space Cutoff    1.03 Angstroem

   l    n(q)    QCUT    max X(q) W(low)/X(q) W(high)/X(q)  e(spline) 
   0      7    11.310   115.676    0.20E-03    0.90E-03    0.20E-06
   0      7    11.310    87.132    0.20E-03    0.89E-03    0.19E-06
   1      6    11.310     4.429    0.16E-03    0.28E-03    0.12E-06
   1      6    11.310     2.733    0.12E-03    0.21E-03    0.99E-07
 Optimization of the real space projectors (new method)

 maximal supplied QI-value         = 24.76
 optimisation between [QCUT,QGAM] = [ 11.39, 22.77] = [ 36.31,145.25] Ry 
 Optimized for a Real-space Cutoff    1.10 Angstroem

   l    n(q)    QCUT    max X(q) W(low)/X(q) W(high)/X(q)  e(spline) 
   0      7    11.387    20.381    0.22E-03    0.48E-03    0.18E-06
   0      7    11.387    15.268    0.22E-03    0.52E-03    0.19E-06
   1      7    11.387     5.964    0.22E-03    0.73E-03    0.24E-06
   1      7    11.387     5.382    0.19E-03    0.60E-03    0.21E-06
 Optimization of the real space projectors (new method)

 maximal supplied QI-value         = 19.84
 optimisation between [QCUT,QGAM] = [ 11.31, 22.82] = [ 35.82,145.81] Ry 
 Optimized for a Real-space Cutoff    1.20 Angstroem

   l    n(q)    QCUT    max X(q) W(low)/X(q) W(high)/X(q)  e(spline) 
   0      8    11.310   187.594    0.16E-03    0.19E-03    0.53E-07
   0      8    11.310   164.243    0.16E-03    0.19E-03    0.53E-07
   1      8    11.310    67.533    0.18E-03    0.19E-03    0.92E-07
   1      8    11.310    50.729    0.18E-03    0.19E-03    0.90E-07
 Optimization of the real space projectors (new method)

 maximal supplied QI-value         = 34.20
 optimisation between [QCUT,QGAM] = [ 11.29, 22.57] = [ 35.68,142.71] Ry 
 Optimized for a Real-space Cutoff    1.20 Angstroem

   l    n(q)    QCUT    max X(q) W(low)/X(q) W(high)/X(q)  e(spline) 
   0      8    11.287    19.460    0.22E-03    0.50E-03    0.19E-06
   0      8    11.287    12.209    0.21E-03    0.48E-03    0.18E-06
   1      8    11.287     4.655    0.21E-03    0.11E-04    0.26E-06
  PAW_PBE C 08Apr2002                   :
 energy of atom  1       EATOM= -147.1560
 kinetic energy error for atom=    0.0076 (will be added to EATOM!!)
  PAW_PBE O 08Apr2002                   :
 energy of atom  2       EATOM= -432.3788
 kinetic energy error for atom=    0.0224 (will be added to EATOM!!)
  PAW_PBE S 06Sep2000                   :
 energy of atom  3       EATOM= -276.8230
 kinetic energy error for atom=    0.0020 (will be added to EATOM!!)
  PAW_PBE H 15Jun2001                   :
 energy of atom  4       EATOM=  -12.4884
 kinetic energy error for atom=    0.0020 (will be added to EATOM!!)
 
 
 POSCAR: C O S H
  positions in direct lattice
  velocities in cartesian coordinates
 exchange correlation table for  LEXCH =        8
   RHO(1)=    0.500       N(1)  =     2000
   RHO(2)=  100.500       N(2)  =     4000

 VTST: version 4.1, (05/19/21)

 CHAIN: initializing optimizer
 
 OPT: Using VASP Conjugate-Gradient optimizer
 CHAIN: Read ICHAIN            0
 
 POSCAR: C O S H
  positions in direct lattice
  velocities in cartesian coordinates
 


--------------------------------------------------------------------------------------------------------


 ion  position               nearest neighbor table
   1  0.552  0.501  0.498-   6 1.40   2 1.41   9 1.77
   2  0.537  0.533  0.499-  16 1.09   3 1.39   1 1.41
   3  0.502  0.536  0.501-  15 1.09   2 1.39   4 1.41
   4  0.482  0.508  0.502-   8 1.37   5 1.40   3 1.41
   5  0.496  0.476  0.501-  11 1.09   6 1.40   4 1.40
   6  0.531  0.473  0.499-  10 1.09   5 1.40   1 1.40
   7  0.426  0.485  0.504-  12 1.09  13 1.10  14 1.10   8 1.44
   8  0.448  0.513  0.504-   4 1.37   7 1.44
   9  0.596  0.496  0.496-  17 1.35   1 1.77
  10  0.542  0.448  0.498-   6 1.09
  11  0.481  0.453  0.502-   5 1.09
  12  0.401  0.495  0.504-   7 1.09
  13  0.430  0.470  0.481-   7 1.10
  14  0.431  0.469  0.526-   7 1.10
  15  0.490  0.561  0.502-   3 1.09
  16  0.552  0.556  0.499-   2 1.09
  17  0.603  0.527  0.487-   9 1.35
 
  LATTYP: Found a simple cubic cell.
 ALAT       =    40.0000000000
  
  Lattice vectors:
  
 A1 = (  40.0000000000,   0.0000000000,   0.0000000000)
 A2 = (   0.0000000000,  40.0000000000,   0.0000000000)
 A3 = (   0.0000000000,   0.0000000000,  40.0000000000)


Analysis of symmetry for initial positions (statically):
=====================================================================
 Subroutine PRICEL returns:
 Original cell was already a primitive cell.
 

 Routine SETGRP: Setting up the symmetry group for a 
 simple cubic supercell.


 Subroutine GETGRP returns: Found  1 space group operations
 (whereof  1 operations were pure point group operations)
 out of a pool of 48 trial point group operations.


The static configuration has the point symmetry C_1 .


Analysis of symmetry for dynamics (positions and initial velocities):
=====================================================================
 Subroutine PRICEL returns:
 Original cell was already a primitive cell.
 

 Routine SETGRP: Setting up the symmetry group for a 
 simple cubic supercell.


 Subroutine GETGRP returns: Found  1 space group operations
 (whereof  1 operations were pure point group operations)
 out of a pool of 48 trial point group operations.


The dynamic configuration has the point symmetry C_1 .


Analysis of constrained symmetry for selective dynamics:
=====================================================================
 Subroutine PRICEL returns:
 Original cell was already a primitive cell.
 

 Routine SETGRP: Setting up the symmetry group for a 
 simple cubic supercell.


 Subroutine GETGRP returns: Found  1 space group operations
 (whereof  1 operations were pure point group operations)
 out of a pool of 48 trial point group operations.


The constrained configuration has the point symmetry C_1 .


Analysis of structural, dynamic, and magnetic symmetry:
=====================================================================
 Subroutine PRICEL returns:
 Original cell was already a primitive cell.
 

 Routine SETGRP: Setting up the symmetry group for a 
 simple cubic supercell.


 Subroutine GETGRP returns: Found  1 space group operations
 (whereof  1 operations were pure point group operations)
 out of a pool of 48 trial point group operations.


The overall configuration has the point symmetry C_1 .


 Subroutine INISYM returns: Found  1 space group operations
 (whereof  1 operations are pure point group operations),
 and found     1 'primitive' translations


----------------------------------------------------------------------------------------

                                     Primitive cell                                     

  volume of cell :   64000.0000

  direct lattice vectors                    reciprocal lattice vectors
    40.000000000  0.000000000  0.000000000     0.025000000  0.000000000  0.000000000
     0.000000000 40.000000000  0.000000000     0.000000000  0.025000000  0.000000000
     0.000000000  0.000000000 40.000000000     0.000000000  0.000000000  0.025000000

  length of vectors
    40.000000000 40.000000000 40.000000000     0.025000000  0.025000000  0.025000000

  position of ions in fractional coordinates (direct lattice)
     0.551631806  0.501427845  0.497782667
     0.536649245  0.533202019  0.499187222
     0.502054227  0.536261092  0.501047227
     0.481647829  0.507667829  0.501943628
     0.496427047  0.475888411  0.500985562
     0.531224227  0.472987456  0.498765658
     0.426255114  0.484699368  0.503510704
     0.447877128  0.513384878  0.503629327
     0.595568238  0.495778717  0.495557958
     0.542357363  0.448103005  0.497666198
     0.481331997  0.453263980  0.501701408
     0.400750321  0.494587204  0.504339035
     0.429680086  0.469856039  0.480582439
     0.430711615  0.468824437  0.525564584
     0.490384563  0.560907614  0.501912578
     0.552044508  0.555697193  0.498767184
     0.603402688  0.527463913  0.487054619

  ion indices of the primitive-cell ions
   primitive index   ion index
                 1           1
                 2           2
                 3           3
                 4           4
                 5           5
                 6           6
                 7           7
                 8           8
                 9           9
                10          10
                11          11
                12          12
                13          13
                14          14
                15          15
                16          16
                17          17

----------------------------------------------------------------------------------------

 
 
 KPOINTS: K-Point Grid                            

Automatic generation of k-mesh.
 Grid dimensions read from file:
 generate k-points for:    1    1    1

 Generating k-lattice:

  Cartesian coordinates                     Fractional coordinates (reciprocal lattice)
     0.025000000  0.000000000  0.000000000     1.000000000  0.000000000  0.000000000
     0.000000000  0.025000000  0.000000000     0.000000000  1.000000000  0.000000000
     0.000000000  0.000000000  0.025000000     0.000000000  0.000000000  1.000000000

  Length of vectors
     0.025000000  0.025000000  0.025000000

  Shift w.r.t. Gamma in fractional coordinates (k-lattice)
     0.000000000  0.000000000  0.000000000

 
 Subroutine IBZKPT returns following result:
 ===========================================
 
 Found      1 irreducible k-points:
 
 Following reciprocal coordinates:
            Coordinates               Weight
  0.000000  0.000000  0.000000      1.000000
 
 Following cartesian coordinates:
            Coordinates               Weight
  0.000000  0.000000  0.000000      1.000000
 


--------------------------------------------------------------------------------------------------------




 Dimension of arrays:
   k-points           NKPTS =      1   k-points in BZ     NKDIM =      1   number of bands    NBANDS=     42
   number of dos      NEDOS =    301   number of ions     NIONS =     17
   non local maximal  LDIM  =      4   non local SUM 2l+1 LMDIM =      8
   total plane-waves  NPLWV = ******
   max r-space proj   IRMAX =   2915   max aug-charges    IRDMAX=  12708
   dimension x,y,z NGX =   294 NGY =  294 NGZ =  294
   dimension x,y,z NGXF=   588 NGYF=  588 NGZF=  588
   support grid    NGXF=   588 NGYF=  588 NGZF=  588
   ions per type =               7   1   1   8
   NGX,Y,Z   is equivalent  to a cutoff of  12.22, 12.22, 12.22 a.u.
   NGXF,Y,Z  is equivalent  to a cutoff of  24.44, 24.44, 24.44 a.u.

 SYSTEM =  078_ox                                  
 POSCAR =  C O S H                                 

 Startparameter for this run:
   NWRITE =      2    write-flag & timer
   PREC   = accura    normal or accurate (medium, high low for compatibility)
   ISTART =      0    job   : 0-new  1-cont  2-samecut
   ICHARG =      2    charge: 1-file 2-atom 10-const
   ISPIN  =      2    spin polarized calculation?
   LNONCOLLINEAR =      F non collinear calculations
   LSORBIT =      F    spin-orbit coupling
   INIWAV =      1    electr: 0-lowe 1-rand  2-diag
   LASPH  =      F    aspherical Exc in radial PAW
 Electronic Relaxation 1
   ENCUT  =  500.0 eV  36.75 Ry    6.06 a.u.  72.93 72.93 72.93*2*pi/ulx,y,z
   ENINI  =  500.0     initial cutoff
   ENAUG  =  644.9 eV  augmentation charge cutoff
   NELM   =    100;   NELMIN=  2; NELMDL= -5     # of ELM steps 
   EDIFF  = 0.1E-04   stopping-criterion for ELM
   LREAL  =      T    real-space projection
   NLSPLINE    = F    spline interpolate recip. space projectors
   LCOMPAT=      F    compatible to vasp.4.4
   GGA_COMPAT  = T    GGA compatible to vasp.4.4-vasp.4.6
   LMAXPAW     = -100 max onsite density
   LMAXMIX     =    2 max onsite mixed and CHGCAR
   VOSKOWN=      0    Vosko Wilk Nusair interpolation
   ROPT   =   -0.00025  -0.00025  -0.00025  -0.00025
 Ionic relaxation
   EDIFFG = -.2E-01   stopping-criterion for IOM
   NSW    =    500    number of steps for IOM
   NBLOCK =      1;   KBLOCK =    500    inner block; outer block 
   IBRION =      2    ionic relax: 0-MD 1-quasi-New 2-CG
   NFREE  =      1    steps in history (QN), initial steepest desc. (CG)
   ISIF   =      2    stress and relaxation
   IWAVPR =     11    prediction:  0-non 1-charg 2-wave 3-comb
   ISYM   =      2    0-nonsym 1-usesym 2-fastsym
   LCORR  =      T    Harris-Foulkes like correction to forces

   POTIM  = 0.5000    time-step for ionic-motion
   TEIN   =    0.0    initial temperature
   TEBEG  =    0.0;   TEEND  =   0.0 temperature during run
   SMASS  =  -3.00    Nose mass-parameter (am)
   estimated Nose-frequenzy (Omega)   =  0.10E-29 period in steps = 0.13E+47 mass=  -0.366E-25a.u.
   SCALEE = 1.0000    scale energy and forces
   NPACO  =    256;   APACO  = 10.0  distance and # of slots for P.C.
   PSTRESS=    0.0 pullay stress

  Mass of Ions in am
   POMASS =  12.01 16.00 32.07  1.00
  Ionic Valenz
   ZVAL   =   4.00  6.00  6.00  1.00
  Atomic Wigner-Seitz radii
   RWIGS  =  -1.00 -1.00 -1.00 -1.00
  virtual crystal weights 
   VCA    =   1.00  1.00  1.00  1.00
   NELECT =      47.0000    total number of electrons
   NUPDOWN=      -1.0000    fix difference up-down

 DOS related values:
   EMIN   =  10.00;   EMAX   =-10.00  energy-range for DOS
   EFERMI =   0.00;   METHOD = LEGACY      
   ISMEAR =     0;   SIGMA  =   0.05  broadening in eV -4-tet -1-fermi 0-gaus

 Electronic relaxation 2 (details)
   IALGO  =     68    algorithm
   LDIAG  =      T    sub-space diagonalisation (order eigenvalues)
   LSUBROT=      F    optimize rotation matrix (better conditioning)
   TURBO    =      0    0=normal 1=particle mesh
   IRESTART =      0    0=no restart 2=restart with 2 vectors
   NREBOOT  =      0    no. of reboots
   NMIN     =      0    reboot dimension
   EREF     =   0.00    reference energy to select bands
   IMIX   =      4    mixing-type and parameters
     AMIX     =   0.40;   BMIX     =  1.00
     AMIX_MAG =   1.60;   BMIX_MAG =  1.00
     AMIN     =   0.10
     WC   =   100.;   INIMIX=   1;  MIXPRE=   1;  MAXMIX= -45

 Intra band minimization:
   WEIMIN = 0.0010     energy-eigenvalue tresh-hold
   EBREAK =  0.60E-07  absolut break condition
   DEPER  =   0.30     relativ break condition  

   TIME   =   0.40     timestep for ELM

  volume/ion in A,a.u.               =    3764.71     25405.49
  Fermi-wavevector in a.u.,A,eV,Ry     =   0.147700  0.279113  0.296815  0.021815
  Thomas-Fermi vector in A             =   0.819491
 
 Write flags
   LWAVE        =      T    write WAVECAR
   LDOWNSAMPLE  =      F    k-point downsampling of WAVECAR
   LCHARG       =      F    write CHGCAR
   LVTOT        =      F    write LOCPOT, total local potential
   LVHAR        =      F    write LOCPOT, Hartree potential only
   LELF         =      F    write electronic localiz. function (ELF)
   LORBIT       =      0    0 simple, 1 ext, 2 COOP (PROOUT), +10 PAW based schemes


 Dipole corrections
   LMONO  =      F    monopole corrections only (constant potential shift)
   LDIPOL =      F    correct potential (dipole corrections)
   IDIPOL =      0    1-x, 2-y, 3-z, 4-all directions 
   EPSILON=  1.0000000 bulk dielectric constant

 Exchange correlation treatment:
   GGA     =    --    GGA type
   LEXCH   =     8    internal setting for exchange type
   LIBXC   =     F    Libxc                    
   VOSKOWN =     0    Vosko Wilk Nusair interpolation
   LHFCALC =     F    Hartree Fock is set to
   LHFONE  =     F    Hartree Fock one center treatment
   AEXX    =    0.0000 exact exchange contribution

 Linear response parameters
   LEPSILON=     F    determine dielectric tensor
   LRPA    =     F    only Hartree local field effects (RPA)
   LNABLA  =     F    use nabla operator in PAW spheres
   LVEL    =     F    velocity operator in full k-point grid
   CSHIFT  =0.1000    complex shift for real part using Kramers Kronig
   OMEGAMAX=  -1.0    maximum frequency
   DEG_THRESHOLD= 0.2000000E-02 threshold for treating states as degnerate
   RTIME   =   -0.100 relaxation time in fs
  (WPLASMAI=    0.000 imaginary part of plasma frequency in eV, 0.658/RTIME)
   DFIELD  = 0.0000000 0.0000000 0.0000000 field for delta impulse in time
 
  Optional k-point grid parameters
   LKPOINTS_OPT  =     F    use optional k-point grid
   KPOINTS_OPT_MODE=     1    mode for optional k-point grid
 
 Orbital magnetization related:
   ORBITALMAG=     F  switch on orbital magnetization
   LCHIMAG   =     F  perturbation theory with respect to B field
   DQ        =  0.001000  dq finite difference perturbation B field
   LLRAUG    =     F  two centre corrections for induced B field
   LBONE     =     F  B-component reconstruction in AE one-centre
   LVGVCALC  =     T  calculate vGv susceptibility
   LVGVAPPL  =     F  apply vGv susceptibility instead of pGv for G=0

 Random number generation:
   RANDOM_GENERATOR = DEFAULT
   PCG_SEED         = not used
 Solvation model:
   LSOL    =     T         switch on solvation model
   EB_K    = 35.688000     relative permittivity of the bulk solvent
   SIGMA_K =  0.600000     width of the dielectric cavity
   NC_K    =  0.002500     cutoff charge density
   TAU     =  0.000000     cavity surface tension
   LAMBDA_D_K    =  3.040000     Debye length in Angstroms
   LRHOB     =     F     write boundcharge  density
   LRHOION     =     F     write ioniccharge density



--------------------------------------------------------------------------------------------------------


 conjugate gradient relaxation of ions
   using selective dynamics as specified on POSCAR
 charge density and potential will be updated during run
 spin polarized calculation
 RMM-DIIS sequential band-by-band and
  variant of blocked Davidson during initial phase
 perform sub-space diagonalisation
    before iterative eigenvector-optimisation
 modified Broyden-mixing scheme, WC =      100.0
 initial mixing is a Kerker type mixing with AMIX =  0.4000 and BMIX =      1.0000
 Hartree-type preconditioning will be used
 using additional bands           18
 real space projection scheme for non local part
 use partial core corrections
 calculate Harris-corrections to forces 
   (improved forces if not selfconsistent)
 use gradient corrections 
 use of overlap-Matrix (Vanderbilt PP)
 Gauss-broadening in eV      SIGMA  =   0.05


--------------------------------------------------------------------------------------------------------


  energy-cutoff  :      500.00
  volume of cell :    64000.00
      direct lattice vectors                 reciprocal lattice vectors
    40.000000000  0.000000000  0.000000000     0.025000000  0.000000000  0.000000000
     0.000000000 40.000000000  0.000000000     0.000000000  0.025000000  0.000000000
     0.000000000  0.000000000 40.000000000     0.000000000  0.000000000  0.025000000

  length of vectors
    40.000000000 40.000000000 40.000000000     0.025000000  0.025000000  0.025000000


 
 k-points in units of 2pi/SCALE and weight: K-Point Grid                            
   0.00000000  0.00000000  0.00000000       1.000
 
 k-points in reciprocal lattice and weights: K-Point Grid                            
   0.00000000  0.00000000  0.00000000       1.000
 
 position of ions in fractional coordinates (direct lattice) 
   0.55163181  0.50142785  0.49778267
   0.53664924  0.53320202  0.49918722
   0.50205423  0.53626109  0.50104723
   0.48164783  0.50766783  0.50194363
   0.49642705  0.47588841  0.50098556
   0.53122423  0.47298746  0.49876566
   0.42625511  0.48469937  0.50351070
   0.44787713  0.51338488  0.50362933
   0.59556824  0.49577872  0.49555796
   0.54235736  0.44810300  0.49766620
   0.48133200  0.45326398  0.50170141
   0.40075032  0.49458720  0.50433903
   0.42968009  0.46985604  0.48058244
   0.43071161  0.46882444  0.52556458
   0.49038456  0.56090761  0.50191258
   0.55204451  0.55569719  0.49876718
   0.60340269  0.52746391  0.48705462
 
 position of ions in cartesian coordinates  (Angst):
  22.06527223 20.05711380 19.91130669
  21.46596978 21.32808076 19.96748887
  20.08216909 21.45044368 20.04188910
  19.26591316 20.30671316 20.07774513
  19.85708189 19.03553644 20.03942249
  21.24896908 18.91949823 19.95062633
  17.05020457 19.38797473 20.14042816
  17.91508512 20.53539513 20.14517309
  23.82272950 19.83114866 19.82231833
  21.69429452 17.92412020 19.90664794
  19.25327987 18.13055918 20.06805631
  16.03001282 19.78348816 20.17356140
  17.18720345 18.79424155 19.22329754
  17.22846458 18.75297750 21.02258336
  19.61538252 22.43630456 20.07650311
  22.08178030 22.22788773 19.95068738
  24.13610751 21.09855652 19.48218477
 


--------------------------------------------------------------------------------------------------------


 k-point   1 :   0.0000 0.0000 0.0000  plane waves: 1624525

 maximum and minimum number of plane-waves per node :     33858    33828

 maximum number of plane-waves:   1624525
 maximum index in each direction: 
   IXMAX=   72   IYMAX=   72   IZMAX=   72
   IXMIN=  -72   IYMIN=  -72   IZMIN=  -72


 real space projection operators:
  total allocation   :       1955.84 KBytes
  max/ min on nodes  :         61.55         24.70


 parallel 3D FFT for wavefunctions:
    minimum data exchange during FFTs selected (reduces bandwidth)
 parallel 3D FFT for charge:
    minimum data exchange during FFTs selected (reduces bandwidth)


 total amount of memory used by VASP MPI-rank0   432074. kBytes
=======================================================================

   base      :      30000. kBytes
   nonlr-proj:        891. kBytes
   fftplans  :      96958. kBytes
   grid      :     281468. kBytes
   one-center:          6. kBytes
   wavefun   :      22751. kBytes
 
     INWAV:  cpu time      0.0000: real time      0.0002
 Broyden mixing: mesh for mixing (old mesh)
   NGX =145   NGY =145   NGZ =145
  (NGX  =588   NGY  =588   NGZ  =588)
  gives a total of ****** points

 initial charge density was supplied:
 charge density of overlapping atoms calculated
 number of electron      48.0000000 magnetization      17.0000000
 keeping initial charge density in first step


--------------------------------------------------------------------------------------------------------


 Maximum index for non-local projection operator          238
 Maximum index for augmentation-charges          283 (set IRDMAX)


--------------------------------------------------------------------------------------------------------


 First call to EWALD:  gamma=   0.044
 Maximum number of real-space cells 3x 3x 3
 Maximum number of reciprocal cells 3x 3x 3

    FEWALD:  cpu time      0.0017: real time      0.0017


--------------------------------------- Ionic step        1  -------------------------------------------




--------------------------------------- Iteration      1(   1)  ---------------------------------------


    POTLOK:  cpu time    109.5323: real time    111.2171
    SETDIJ:  cpu time      0.0333: real time      0.0337
     EDDAV:  cpu time     10.2630: real time     10.3780
       DOS:  cpu time      0.0009: real time      0.0010
    --------------------------------------------
      LOOP:  cpu time    119.8295: real time    121.6297

 eigenvalue-minimisations  :   200
 total energy-change (2. order) : 0.4640621E+03  (-0.5740266E+03)
 number of electron      48.0000000 magnetization      17.0000000
 augmentation part       48.0000000 magnetization      17.0000000

 Free energy of the ion-electron system (eV)
  ---------------------------------------------------
  alpha Z        PSCENC =         0.15867211
  Ewald energy   TEWEN  =      4650.24902290
  -Hartree energ DENC   =     -5943.28668283
  -exchange      EXHF   =         0.00000000
  -V(xc)+E(xc)   XCENC  =       153.55294177
  PAW double counting   =      1336.92280081    -1339.50668410
  entropy T*S    EENTRO =        -0.08813489
  eigenvalues    EBANDS =      -225.15912453
  atomic energy  EATOM  =      1839.10786169
  Solvation  Ediel_sol  =        -7.88853426
  ---------------------------------------------------
  free energy    TOTEN  =       464.06213866 eV

  energy without entropy =      464.15027355  energy(sigma->0) =      464.10620610


--------------------------------------------------------------------------------------------------------




--------------------------------------- Iteration      1(   2)  ---------------------------------------


     EDDAV:  cpu time     14.4992: real time     14.6438
       DOS:  cpu time      0.0007: real time      0.0008
    --------------------------------------------
      LOOP:  cpu time     14.4999: real time     14.6445

 eigenvalue-minimisations  :   312
 total energy-change (2. order) :-0.2598236E+03  (-0.2409052E+03)
 number of electron      48.0000000 magnetization      17.0000000
 augmentation part       48.0000000 magnetization      17.0000000

 Free energy of the ion-electron system (eV)
  ---------------------------------------------------
  alpha Z        PSCENC =         0.15867211
  Ewald energy   TEWEN  =      4650.24902290
  -Hartree energ DENC   =     -5943.28668283
  -exchange      EXHF   =         0.00000000
  -V(xc)+E(xc)   XCENC  =       153.55294177
  PAW double counting   =      1336.92280081    -1339.50668410
  entropy T*S    EENTRO =        -0.02511271
  eigenvalues    EBANDS =      -485.04574281
  atomic energy  EATOM  =      1839.10786169
  Solvation  Ediel_sol  =        -7.88853426
  ---------------------------------------------------
  free energy    TOTEN  =       204.23854256 eV

  energy without entropy =      204.26365527  energy(sigma->0) =      204.25109892


--------------------------------------------------------------------------------------------------------




--------------------------------------- Iteration      1(   3)  ---------------------------------------


     EDDAV:  cpu time     15.0064: real time     15.1762
       DOS:  cpu time      0.0007: real time      0.0008
    --------------------------------------------
      LOOP:  cpu time     15.0072: real time     15.1770

 eigenvalue-minimisations  :   262
 total energy-change (2. order) :-0.2344757E+03  (-0.2276014E+03)
 number of electron      48.0000000 magnetization      17.0000000
 augmentation part       48.0000000 magnetization      17.0000000

 Free energy of the ion-electron system (eV)
  ---------------------------------------------------
  alpha Z        PSCENC =         0.15867211
  Ewald energy   TEWEN  =      4650.24902290
  -Hartree energ DENC   =     -5943.28668283
  -exchange      EXHF   =         0.00000000
  -V(xc)+E(xc)   XCENC  =       153.55294177
  PAW double counting   =      1336.92280081    -1339.50668410
  entropy T*S    EENTRO =        -0.00000000
  eigenvalues    EBANDS =      -719.54657368
  atomic energy  EATOM  =      1839.10786169
  Solvation  Ediel_sol  =        -7.88853426
  ---------------------------------------------------
  free energy    TOTEN  =       -30.23717560 eV

  energy without entropy =      -30.23717560  energy(sigma->0) =      -30.23717560


--------------------------------------------------------------------------------------------------------




--------------------------------------- Iteration      1(   4)  ---------------------------------------


     EDDAV:  cpu time     11.5516: real time     11.6657
       DOS:  cpu time      0.0003: real time      0.0003
    --------------------------------------------
      LOOP:  cpu time     11.5519: real time     11.6660

 eigenvalue-minimisations  :   236
 total energy-change (2. order) :-0.5469165E+02  (-0.5448714E+02)
 number of electron      48.0000000 magnetization      17.0000000
 augmentation part       48.0000000 magnetization      17.0000000

 Free energy of the ion-electron system (eV)
  ---------------------------------------------------
  alpha Z        PSCENC =         0.15867211
  Ewald energy   TEWEN  =      4650.24902290
  -Hartree energ DENC   =     -5943.28668283
  -exchange      EXHF   =         0.00000000
  -V(xc)+E(xc)   XCENC  =       153.55294177
  PAW double counting   =      1336.92280081    -1339.50668410
  entropy T*S    EENTRO =        -0.00000000
  eigenvalues    EBANDS =      -774.23822593
  atomic energy  EATOM  =      1839.10786169
  Solvation  Ediel_sol  =        -7.88853426
  ---------------------------------------------------
  free energy    TOTEN  =       -84.92882785 eV

  energy without entropy =      -84.92882785  energy(sigma->0) =      -84.92882785


--------------------------------------------------------------------------------------------------------




--------------------------------------- Iteration      1(   5)  ---------------------------------------


     EDDAV:  cpu time     10.7914: real time     10.8969
       DOS:  cpu time      0.0005: real time      0.0005
    CHARGE:  cpu time      1.1228: real time      1.1341
    MIXING:  cpu time      0.0903: real time      0.0915
    --------------------------------------------
      LOOP:  cpu time     12.0050: real time     12.1231

 eigenvalue-minimisations  :   216
 total energy-change (2. order) :-0.2454925E+01  (-0.2399578E+01)
 number of electron      46.9999999 magnetization      16.3835555
 augmentation part        0.8008802 magnetization      15.4143504

 Broyden mixing:
  rms(total) = 0.28169E+01    rms(broyden)= 0.28164E+01
  rms(prec ) = 0.28412E+01
  weight for this iteration     100.00

 Free energy of the ion-electron system (eV)
  ---------------------------------------------------
  alpha Z        PSCENC =         0.15867211
  Ewald energy   TEWEN  =      4650.24902290
  -Hartree energ DENC   =     -5943.28668283
  -exchange      EXHF   =         0.00000000
  -V(xc)+E(xc)   XCENC  =       153.55294177
  PAW double counting   =      1336.92280081    -1339.50668410
  entropy T*S    EENTRO =        -0.00000000
  eigenvalues    EBANDS =      -776.69315119
  atomic energy  EATOM  =      1839.10786169
  Solvation  Ediel_sol  =        -7.88853426
  ---------------------------------------------------
  free energy    TOTEN  =       -87.38375311 eV

  energy without entropy =      -87.38375311  energy(sigma->0) =      -87.38375311


--------------------------------------------------------------------------------------------------------




--------------------------------------- Iteration      1(   6)  ---------------------------------------


    POTLOK:  cpu time    106.6730: real time    108.2797
    SETDIJ:  cpu time      0.0323: real time      0.0325
    EDDIAG:  cpu time      2.1348: real time      2.1561
  RMM-DIIS:  cpu time      7.2850: real time      7.3413
    ORTHCH:  cpu time      0.1110: real time      0.1153
       DOS:  cpu time      0.0004: real time      0.0004
    CHARGE:  cpu time      1.1261: real time      1.1375
    MIXING:  cpu time      0.0890: real time      0.0901
    --------------------------------------------
      LOOP:  cpu time    117.4516: real time    119.1529

 eigenvalue-minimisations  :   168
 total energy-change (2. order) : 0.4452797E+02  (-0.8286322E+01)
 number of electron      47.0000000 magnetization      15.7185722
 augmentation part        0.7034475 magnetization      14.7047157

 Broyden mixing:
  rms(total) = 0.13586E+01    rms(broyden)= 0.13586E+01
  rms(prec ) = 0.13738E+01
  weight for this iteration     100.00

 eigenvalues of (default mixing * dielectric matrix)
  average eigenvalue GAMMA=   0.9289
  0.9289

 Free energy of the ion-electron system (eV)
  ---------------------------------------------------
  alpha Z        PSCENC =         0.15867211
  Ewald energy   TEWEN  =      4650.24902290
  -Hartree energ DENC   =     -6003.48266908
  -exchange      EXHF   =         0.00000000
  -V(xc)+E(xc)   XCENC  =       195.17229010
  PAW double counting   =      2203.50806360    -2206.98561123
  entropy T*S    EENTRO =        -0.00000000
  eigenvalues    EBANDS =      -694.59019833
  atomic energy  EATOM  =      1839.10786169
  Solvation  Ediel_sol  =       -25.99321293
  ---------------------------------------------------
  free energy    TOTEN  =       -42.85578118 eV

  energy without entropy =      -42.85578118  energy(sigma->0) =      -42.85578118


--------------------------------------------------------------------------------------------------------




--------------------------------------- Iteration      1(   7)  ---------------------------------------


    POTLOK:  cpu time    104.8940: real time    106.4849
    SETDIJ:  cpu time      0.0318: real time      0.0321
    EDDIAG:  cpu time      2.1391: real time      2.1601
  RMM-DIIS:  cpu time      7.3288: real time      7.3827
    ORTHCH:  cpu time      0.1103: real time      0.1147
       DOS:  cpu time      0.0003: real time      0.0003
    CHARGE:  cpu time      1.1117: real time      1.1232
    MIXING:  cpu time      0.0921: real time      0.0927
    --------------------------------------------
      LOOP:  cpu time    115.7081: real time    117.3906

 eigenvalue-minimisations  :   169
 total energy-change (2. order) :-0.2831010E+02  (-0.3210921E+01)
 number of electron      47.0000000 magnetization      14.9869633
 augmentation part        0.6164040 magnetization      14.0022439

 Broyden mixing:
  rms(total) = 0.79279E+00    rms(broyden)= 0.79266E+00
  rms(prec ) = 0.79983E+00
  weight for this iteration     100.00

 eigenvalues of (default mixing * dielectric matrix)
  average eigenvalue GAMMA=   1.0882
  0.7833  1.3930

 Free energy of the ion-electron system (eV)
  ---------------------------------------------------
  alpha Z        PSCENC =         0.15867211
  Ewald energy   TEWEN  =      4650.24902290
  -Hartree energ DENC   =     -6043.07274903
  -exchange      EXHF   =         0.00000000
  -V(xc)+E(xc)   XCENC  =       175.81745387
  PAW double counting   =      2979.50688018    -2983.48777965
  entropy T*S    EENTRO =        -0.00000000
  eigenvalues    EBANDS =      -643.60042295
  atomic energy  EATOM  =      1839.10786169
  Solvation  Ediel_sol  =       -45.84482111
  ---------------------------------------------------
  free energy    TOTEN  =       -71.16588199 eV

  energy without entropy =      -71.16588199  energy(sigma->0) =      -71.16588199


--------------------------------------------------------------------------------------------------------




--------------------------------------- Iteration      1(   8)  ---------------------------------------


    POTLOK:  cpu time    105.8428: real time    107.4840
    SETDIJ:  cpu time      0.0323: real time      0.0325
    EDDIAG:  cpu time      2.1422: real time      2.1630
  RMM-DIIS:  cpu time      7.3303: real time      7.3849
    ORTHCH:  cpu time      0.1090: real time      0.1138
       DOS:  cpu time      0.0014: real time      0.0015
    CHARGE:  cpu time      1.1218: real time      1.1333
    MIXING:  cpu time      0.0965: real time      0.0972
    --------------------------------------------
      LOOP:  cpu time    116.6763: real time    118.4102

 eigenvalue-minimisations  :   169
 total energy-change (2. order) :-0.8160425E+01  (-0.1127145E+01)
 number of electron      47.0000000 magnetization      14.2677806
 augmentation part        0.6207448 magnetization      13.2937194

 Broyden mixing:
  rms(total) = 0.53278E+00    rms(broyden)= 0.53273E+00
  rms(prec ) = 0.53802E+00
  weight for this iteration     100.00

 eigenvalues of (default mixing * dielectric matrix)
  average eigenvalue GAMMA=   1.1228
  1.6908  1.0069  0.6709

 Free energy of the ion-electron system (eV)
  ---------------------------------------------------
  alpha Z        PSCENC =         0.15867211
  Ewald energy   TEWEN  =      4650.24902290
  -Hartree energ DENC   =     -6051.80905108
  -exchange      EXHF   =         0.00000000
  -V(xc)+E(xc)   XCENC  =       171.12226884
  PAW double counting   =      3582.23813443    -3586.39395518
  entropy T*S    EENTRO =        -0.00000000
  eigenvalues    EBANDS =      -618.94207012
  atomic energy  EATOM  =      1839.10786169
  Solvation  Ediel_sol  =       -65.05719107
  ---------------------------------------------------
  free energy    TOTEN  =       -79.32630749 eV

  energy without entropy =      -79.32630749  energy(sigma->0) =      -79.32630749


--------------------------------------------------------------------------------------------------------




--------------------------------------- Iteration      1(   9)  ---------------------------------------


    POTLOK:  cpu time    105.1018: real time    106.6910
    SETDIJ:  cpu time      0.0322: real time      0.0324
    EDDIAG:  cpu time      2.1448: real time      2.1650
  RMM-DIIS:  cpu time      7.3786: real time      7.4322
    ORTHCH:  cpu time      0.1099: real time      0.1150
       DOS:  cpu time      0.0002: real time      0.0002
    CHARGE:  cpu time      1.1206: real time      1.1321
    MIXING:  cpu time      0.1014: real time      0.1026
    --------------------------------------------
      LOOP:  cpu time    115.9895: real time    117.6705

 eigenvalue-minimisations  :   168
 total energy-change (2. order) :-0.6115076E+01  (-0.3217683E+00)
 number of electron      47.0000000 magnetization      13.4210957
 augmentation part        0.6446836 magnetization      12.4319923

 Broyden mixing:
  rms(total) = 0.33444E+00    rms(broyden)= 0.33441E+00
  rms(prec ) = 0.33873E+00
  weight for this iteration     100.00

 eigenvalues of (default mixing * dielectric matrix)
  average eigenvalue GAMMA=   1.2383
  2.1268  1.0707  1.0707  0.6849

 Free energy of the ion-electron system (eV)
  ---------------------------------------------------
  alpha Z        PSCENC =         0.15867211
  Ewald energy   TEWEN  =      4650.24902290
  -Hartree energ DENC   =     -6041.77434564
  -exchange      EXHF   =         0.00000000
  -V(xc)+E(xc)   XCENC  =       166.52215928
  PAW double counting   =      3915.17908515    -3919.28606336
  entropy T*S    EENTRO =        -0.00000000
  eigenvalues    EBANDS =      -616.57817063
  atomic energy  EATOM  =      1839.10786169
  Solvation  Ediel_sol  =       -79.01960468
  ---------------------------------------------------
  free energy    TOTEN  =       -85.44138320 eV

  energy without entropy =      -85.44138320  energy(sigma->0) =      -85.44138320


--------------------------------------------------------------------------------------------------------




--------------------------------------- Iteration      1(  10)  ---------------------------------------


    POTLOK:  cpu time    104.7832: real time    106.5260
    SETDIJ:  cpu time      0.0321: real time      0.0323
    EDDIAG:  cpu time      2.1684: real time      2.1900
  RMM-DIIS:  cpu time      7.3370: real time      7.3922
    ORTHCH:  cpu time      0.1098: real time      0.1141
       DOS:  cpu time      0.0009: real time      0.0009
    CHARGE:  cpu time      1.1277: real time      1.1392
    MIXING:  cpu time      0.1157: real time      0.1164
    --------------------------------------------
      LOOP:  cpu time    115.6748: real time    117.5113

 eigenvalue-minimisations  :   168
 total energy-change (2. order) :-0.5239593E+01  (-0.2212263E+00)
 number of electron      47.0000000 magnetization      12.7601141
 augmentation part        0.6282257 magnetization      11.7771826

 Broyden mixing:
  rms(total) = 0.21391E+00    rms(broyden)= 0.21389E+00
  rms(prec ) = 0.21743E+00
  weight for this iteration     100.00

 eigenvalues of (default mixing * dielectric matrix)
  average eigenvalue GAMMA=   1.2745
  2.5722  1.4487  0.8624  0.8624  0.6265

 Free energy of the ion-electron system (eV)
  ---------------------------------------------------
  alpha Z        PSCENC =         0.15867211
  Ewald energy   TEWEN  =      4650.24902290
  -Hartree energ DENC   =     -6031.69710590
  -exchange      EXHF   =         0.00000000
  -V(xc)+E(xc)   XCENC  =       162.50325897
  PAW double counting   =      4161.87841530    -4165.89835773
  entropy T*S    EENTRO =        -0.00000000
  eigenvalues    EBANDS =      -615.67082793
  atomic energy  EATOM  =      1839.10786169
  Solvation  Ediel_sol  =       -91.31191565
  ---------------------------------------------------
  free energy    TOTEN  =       -90.68097625 eV

  energy without entropy =      -90.68097625  energy(sigma->0) =      -90.68097625


--------------------------------------------------------------------------------------------------------




--------------------------------------- Iteration      1(  11)  ---------------------------------------


    POTLOK:  cpu time     99.4817: real time    100.9846
    SETDIJ:  cpu time      0.0318: real time      0.0321
    EDDIAG:  cpu time      2.2808: real time      2.3023
  RMM-DIIS:  cpu time      7.3550: real time      7.4089
    ORTHCH:  cpu time      0.1103: real time      0.1146
       DOS:  cpu time      0.0002: real time      0.0002
    CHARGE:  cpu time      1.1222: real time      1.1336
    MIXING:  cpu time      0.1129: real time      0.1136
    --------------------------------------------
      LOOP:  cpu time    110.4948: real time    112.0899

 eigenvalue-minimisations  :   169
 total energy-change (2. order) :-0.1812079E+01  (-0.7983491E-01)
 number of electron      47.0000000 magnetization      12.0058669
 augmentation part        0.6156485 magnetization      11.0362927

 Broyden mixing:
  rms(total) = 0.16726E+00    rms(broyden)= 0.16723E+00
  rms(prec ) = 0.17056E+00
  weight for this iteration     100.00

 eigenvalues of (default mixing * dielectric matrix)
  average eigenvalue GAMMA=   1.2766
  2.5059  1.8511  0.9435  0.9435  0.6647  0.7507

 Free energy of the ion-electron system (eV)
  ---------------------------------------------------
  alpha Z        PSCENC =         0.15867211
  Ewald energy   TEWEN  =      4650.24902290
  -Hartree energ DENC   =     -6020.46876063
  -exchange      EXHF   =         0.00000000
  -V(xc)+E(xc)   XCENC  =       160.89904645
  PAW double counting   =      4208.03030468    -4211.97802593
  entropy T*S    EENTRO =        -0.00000000
  eigenvalues    EBANDS =      -620.53727867
  atomic energy  EATOM  =      1839.10786169
  Solvation  Ediel_sol  =       -97.95389822
  ---------------------------------------------------
  free energy    TOTEN  =       -92.49305562 eV

  energy without entropy =      -92.49305562  energy(sigma->0) =      -92.49305562


--------------------------------------------------------------------------------------------------------




--------------------------------------- Iteration      1(  12)  ---------------------------------------


    POTLOK:  cpu time     98.3349: real time     99.8126
    SETDIJ:  cpu time      0.0320: real time      0.0323
    EDDIAG:  cpu time      2.1617: real time      2.1823
  RMM-DIIS:  cpu time      7.3981: real time      7.4549
    ORTHCH:  cpu time      0.1109: real time      0.1152
       DOS:  cpu time      0.0004: real time      0.0004
    CHARGE:  cpu time      1.1182: real time      1.1309
    MIXING:  cpu time      0.1215: real time      0.1223
    --------------------------------------------
      LOOP:  cpu time    109.2777: real time    110.8509

 eigenvalue-minimisations  :   169
 total energy-change (2. order) :-0.1291790E+01  (-0.3838454E-01)
 number of electron      47.0000000 magnetization      11.0112882
 augmentation part        0.6217490 magnetization      10.0443684

 Broyden mixing:
  rms(total) = 0.13080E+00    rms(broyden)= 0.13079E+00
  rms(prec ) = 0.13346E+00
  weight for this iteration     100.00

 eigenvalues of (default mixing * dielectric matrix)
  average eigenvalue GAMMA=   1.3128
  2.4062  2.4062  1.0907  0.9647  0.9647  0.7341  0.6226

 Free energy of the ion-electron system (eV)
  ---------------------------------------------------
  alpha Z        PSCENC =         0.15867211
  Ewald energy   TEWEN  =      4650.24902290
  -Hartree energ DENC   =     -6006.28831282
  -exchange      EXHF   =         0.00000000
  -V(xc)+E(xc)   XCENC  =       159.54574844
  PAW double counting   =      4172.94372161    -4176.83175028
  entropy T*S    EENTRO =        -0.00000000
  eigenvalues    EBANDS =      -628.61516816
  atomic energy  EATOM  =      1839.10786169
  Solvation  Ediel_sol  =      -104.05464132
  ---------------------------------------------------
  free energy    TOTEN  =       -93.78484584 eV

  energy without entropy =      -93.78484584  energy(sigma->0) =      -93.78484584


--------------------------------------------------------------------------------------------------------




--------------------------------------- Iteration      1(  13)  ---------------------------------------


    POTLOK:  cpu time     98.1991: real time     99.7043
    SETDIJ:  cpu time      0.0317: real time      0.0319
    EDDIAG:  cpu time      2.1264: real time      2.1465
  RMM-DIIS:  cpu time      7.5200: real time      7.5751
    ORTHCH:  cpu time      0.1098: real time      0.1141
       DOS:  cpu time      0.0006: real time      0.0006
    CHARGE:  cpu time      1.1221: real time      1.1339
    MIXING:  cpu time      0.1288: real time      0.1295
    --------------------------------------------
      LOOP:  cpu time    109.2385: real time    110.8358

 eigenvalue-minimisations  :   171
 total energy-change (2. order) :-0.1407715E+01  (-0.3640619E-01)
 number of electron      47.0000000 magnetization       9.6355543
 augmentation part        0.6221941 magnetization       8.6715095

 Broyden mixing:
  rms(total) = 0.97142E-01    rms(broyden)= 0.97138E-01
  rms(prec ) = 0.99252E-01
  weight for this iteration     100.00

 eigenvalues of (default mixing * dielectric matrix)
  average eigenvalue GAMMA=   1.4794
  3.5978  2.4424  1.7130  0.9553  0.9553  0.8657  0.6931  0.6127

 Free energy of the ion-electron system (eV)
  ---------------------------------------------------
  alpha Z        PSCENC =         0.15867211
  Ewald energy   TEWEN  =      4650.24902290
  -Hartree energ DENC   =     -5993.29205227
  -exchange      EXHF   =         0.00000000
  -V(xc)+E(xc)   XCENC  =       158.17826824
  PAW double counting   =      4145.06485624    -4148.94302581
  entropy T*S    EENTRO =        -0.00000000
  eigenvalues    EBANDS =      -633.66654304
  atomic energy  EATOM  =      1839.10786169
  Solvation  Ediel_sol  =      -112.04962050
  ---------------------------------------------------
  free energy    TOTEN  =       -95.19256045 eV

  energy without entropy =      -95.19256045  energy(sigma->0) =      -95.19256045


--------------------------------------------------------------------------------------------------------




--------------------------------------- Iteration      1(  14)  ---------------------------------------


    POTLOK:  cpu time     99.4689: real time    100.9687
    SETDIJ:  cpu time      0.0320: real time      0.0323
    EDDIAG:  cpu time      2.1425: real time      2.1636
  RMM-DIIS:  cpu time      7.4922: real time      7.5487
    ORTHCH:  cpu time      0.1076: real time      0.1118
       DOS:  cpu time      0.0013: real time      0.0013
    CHARGE:  cpu time      1.1243: real time      1.1361
    MIXING:  cpu time      0.1316: real time      0.1324
    --------------------------------------------
      LOOP:  cpu time    110.5005: real time    112.0950

 eigenvalue-minimisations  :   172
 total energy-change (2. order) :-0.1121218E+01  (-0.3635815E-01)
 number of electron      47.0000000 magnetization       8.6333354
 augmentation part        0.6151031 magnetization       7.6754865

 Broyden mixing:
  rms(total) = 0.62442E-01    rms(broyden)= 0.62429E-01
  rms(prec ) = 0.63653E-01
  weight for this iteration     100.00

 eigenvalues of (default mixing * dielectric matrix)
  average eigenvalue GAMMA=   1.6426
  5.5122  2.2311  1.8080  1.2916  0.9411  0.9411  0.7853  0.6543  0.6188

 Free energy of the ion-electron system (eV)
  ---------------------------------------------------
  alpha Z        PSCENC =         0.15867211
  Ewald energy   TEWEN  =      4650.24902290
  -Hartree energ DENC   =     -5978.68351555
  -exchange      EXHF   =         0.00000000
  -V(xc)+E(xc)   XCENC  =       157.04537808
  PAW double counting   =      4122.19984531    -4126.08730778
  entropy T*S    EENTRO =        -0.00000000
  eigenvalues    EBANDS =      -637.65076285
  atomic energy  EATOM  =      1839.10786169
  Solvation  Ediel_sol  =      -122.65297198
  ---------------------------------------------------
  free energy    TOTEN  =       -96.31377807 eV

  energy without entropy =      -96.31377807  energy(sigma->0) =      -96.31377807


--------------------------------------------------------------------------------------------------------




--------------------------------------- Iteration      1(  15)  ---------------------------------------


    POTLOK:  cpu time     96.8709: real time     98.3419
    SETDIJ:  cpu time      0.0316: real time      0.0318
    EDDIAG:  cpu time      2.1767: real time      2.1987
  RMM-DIIS:  cpu time      7.3815: real time      7.4387
    ORTHCH:  cpu time      0.1104: real time      0.1147
       DOS:  cpu time      0.0003: real time      0.0003
    CHARGE:  cpu time      1.1227: real time      1.1343
    MIXING:  cpu time      0.1465: real time      0.1475
    --------------------------------------------
      LOOP:  cpu time    107.8406: real time    109.4079

 eigenvalue-minimisations  :   168
 total energy-change (2. order) :-0.5077593E+00  (-0.1409197E-01)
 number of electron      47.0000000 magnetization       7.7453660
 augmentation part        0.6152061 magnetization       6.7892106

 Broyden mixing:
  rms(total) = 0.45298E-01    rms(broyden)= 0.45296E-01
  rms(prec ) = 0.45892E-01
  weight for this iteration     100.00

 eigenvalues of (default mixing * dielectric matrix)
  average eigenvalue GAMMA=   1.7206
  6.5674  2.1859  2.1859  1.4390  0.9294  0.9294  0.9544  0.7581  0.6281  0.6281

 Free energy of the ion-electron system (eV)
  ---------------------------------------------------
  alpha Z        PSCENC =         0.15867211
  Ewald energy   TEWEN  =      4650.24902290
  -Hartree energ DENC   =     -5969.24640731
  -exchange      EXHF   =         0.00000000
  -V(xc)+E(xc)   XCENC  =       156.47846080
  PAW double counting   =      4112.27193942    -4116.15853180
  entropy T*S    EENTRO =        -0.00000000
  eigenvalues    EBANDS =      -640.03063132
  atomic energy  EATOM  =      1839.10786169
  Solvation  Ediel_sol  =      -129.65192388
  ---------------------------------------------------
  free energy    TOTEN  =       -96.82153740 eV

  energy without entropy =      -96.82153740  energy(sigma->0) =      -96.82153740


--------------------------------------------------------------------------------------------------------




--------------------------------------- Iteration      1(  16)  ---------------------------------------


    POTLOK:  cpu time     96.1131: real time     97.7465
    SETDIJ:  cpu time      0.0316: real time      0.0318
    EDDIAG:  cpu time      2.1576: real time      2.1781
  RMM-DIIS:  cpu time      7.5428: real time      7.5978
    ORTHCH:  cpu time      0.1100: real time      0.1142
       DOS:  cpu time      0.0003: real time      0.0003
    CHARGE:  cpu time      1.1216: real time      1.1330
    MIXING:  cpu time      0.1499: real time      0.1509
    --------------------------------------------
      LOOP:  cpu time    107.2270: real time    108.9525

 eigenvalue-minimisations  :   171
 total energy-change (2. order) :-0.2396296E+00  (-0.5768438E-02)
 number of electron      47.0000000 magnetization       7.2251905
 augmentation part        0.6155858 magnetization       6.2694447

 Broyden mixing:
  rms(total) = 0.34836E-01    rms(broyden)= 0.34834E-01
  rms(prec ) = 0.35093E-01
  weight for this iteration     100.00

 eigenvalues of (default mixing * dielectric matrix)
  average eigenvalue GAMMA=   1.7661
  7.5262  2.2537  2.2537  1.6917  0.9482  0.9482  0.9625  0.8199  0.7380  0.6779
  0.6070

 Free energy of the ion-electron system (eV)
  ---------------------------------------------------
  alpha Z        PSCENC =         0.15867211
  Ewald energy   TEWEN  =      4650.24902290
  -Hartree energ DENC   =     -5964.38720136
  -exchange      EXHF   =         0.00000000
  -V(xc)+E(xc)   XCENC  =       156.23230752
  PAW double counting   =      4108.16815202    -4112.07004730
  entropy T*S    EENTRO =        -0.00000000
  eigenvalues    EBANDS =      -639.82435289
  atomic energy  EATOM  =      1839.10786169
  Solvation  Ediel_sol  =      -134.69558164
  ---------------------------------------------------
  free energy    TOTEN  =       -97.06116696 eV

  energy without entropy =      -97.06116696  energy(sigma->0) =      -97.06116696


--------------------------------------------------------------------------------------------------------




--------------------------------------- Iteration      1(  17)  ---------------------------------------


    POTLOK:  cpu time     90.4231: real time     91.8146
    SETDIJ:  cpu time      0.0337: real time      0.0339
    EDDIAG:  cpu time      2.1551: real time      2.1770
  RMM-DIIS:  cpu time      7.8119: real time      7.8712
    ORTHCH:  cpu time      0.1098: real time      0.1141
       DOS:  cpu time      0.0007: real time      0.0007
    CHARGE:  cpu time      1.1193: real time      1.1310
    MIXING:  cpu time      0.1583: real time      0.1594
    --------------------------------------------
      LOOP:  cpu time    101.8119: real time    103.3018

 eigenvalue-minimisations  :   179
 total energy-change (2. order) :-0.8853490E-01  (-0.1824557E-02)
 number of electron      47.0000000 magnetization       6.2952591
 augmentation part        0.6154575 magnetization       5.3404501

 Broyden mixing:
  rms(total) = 0.29759E-01    rms(broyden)= 0.29758E-01
  rms(prec ) = 0.29898E-01
  weight for this iteration     100.00

 eigenvalues of (default mixing * dielectric matrix)
  average eigenvalue GAMMA=   1.8270
  8.0677  2.7496  2.0648  2.0648  1.1742  1.1742  0.9227  0.9227  0.7953  0.7275
  0.6481  0.6123

 Free energy of the ion-electron system (eV)
  ---------------------------------------------------
  alpha Z        PSCENC =         0.15867211
  Ewald energy   TEWEN  =      4650.24902290
  -Hartree energ DENC   =     -5961.77180361
  -exchange      EXHF   =         0.00000000
  -V(xc)+E(xc)   XCENC  =       156.11882107
  PAW double counting   =      4103.17260923    -4107.07428048
  entropy T*S    EENTRO =        -0.00000000
  eigenvalues    EBANDS =      -640.18643662
  atomic energy  EATOM  =      1839.10786169
  Solvation  Ediel_sol  =      -136.92416814
  ---------------------------------------------------
  free energy    TOTEN  =       -97.14970186 eV

  energy without entropy =      -97.14970186  energy(sigma->0) =      -97.14970186


--------------------------------------------------------------------------------------------------------




--------------------------------------- Iteration      1(  18)  ---------------------------------------


    POTLOK:  cpu time     94.0997: real time     95.5159
    SETDIJ:  cpu time      0.0329: real time      0.0332
    EDDIAG:  cpu time      2.1444: real time      2.1653
  RMM-DIIS:  cpu time      7.3243: real time      7.3797
    ORTHCH:  cpu time      0.1095: real time      0.1138
       DOS:  cpu time      0.0009: real time      0.0009
    CHARGE:  cpu time      1.1245: real time      1.1362
    MIXING:  cpu time      0.1652: real time      0.1663
    --------------------------------------------
      LOOP:  cpu time    105.0014: real time    106.5114

 eigenvalue-minimisations  :   168
 total energy-change (2. order) :-0.8950101E-01  (-0.6362125E-03)
 number of electron      47.0000000 magnetization       5.7516667
 augmentation part        0.6153226 magnetization       4.7972417

 Broyden mixing:
  rms(total) = 0.24669E-01    rms(broyden)= 0.24668E-01
  rms(prec ) = 0.24709E-01
  weight for this iteration     100.00

 eigenvalues of (default mixing * dielectric matrix)
  average eigenvalue GAMMA=   1.8221
  8.4592  3.2424  2.1169  2.1169  1.3849  0.9378  0.9378  0.8738  0.8738  0.7887
  0.7316  0.6115  0.6115

 Free energy of the ion-electron system (eV)
  ---------------------------------------------------
  alpha Z        PSCENC =         0.15867211
  Ewald energy   TEWEN  =      4650.24902290
  -Hartree energ DENC   =     -5958.44078710
  -exchange      EXHF   =         0.00000000
  -V(xc)+E(xc)   XCENC  =       155.99856960
  PAW double counting   =      4106.20241539    -4110.09488595
  entropy T*S    EENTRO =        -0.00000000
  eigenvalues    EBANDS =      -640.61029851
  atomic energy  EATOM  =      1839.10786169
  Solvation  Ediel_sol  =      -139.80977298
  ---------------------------------------------------
  free energy    TOTEN  =       -97.23920287 eV

  energy without entropy =      -97.23920287  energy(sigma->0) =      -97.23920287


--------------------------------------------------------------------------------------------------------




--------------------------------------- Iteration      1(  19)  ---------------------------------------


    POTLOK:  cpu time     91.5933: real time     92.9729
    SETDIJ:  cpu time      0.0314: real time      0.0317
    EDDIAG:  cpu time      2.1380: real time      2.1585
  RMM-DIIS:  cpu time      7.2826: real time      7.3355
    ORTHCH:  cpu time      0.1102: real time      0.1145
       DOS:  cpu time      0.0003: real time      0.0002
    CHARGE:  cpu time      1.1171: real time      1.1285
    MIXING:  cpu time      0.1736: real time      0.1747
    --------------------------------------------
      LOOP:  cpu time    102.4465: real time    103.9166

 eigenvalue-minimisations  :   168
 total energy-change (2. order) :-0.1913369E-01  (-0.1225918E-03)
 number of electron      47.0000000 magnetization       5.1435253
 augmentation part        0.6152460 magnetization       4.1893375

 Broyden mixing:
  rms(total) = 0.19825E-01    rms(broyden)= 0.19825E-01
  rms(prec ) = 0.19842E-01
  weight for this iteration     100.00

 eigenvalues of (default mixing * dielectric matrix)
  average eigenvalue GAMMA=   1.9377
  9.4698  4.4211  2.0781  2.0781  1.6174  1.0554  1.0554  0.9349  0.9349  0.7760
  0.7760  0.6960  0.6172  0.6172

 Free energy of the ion-electron system (eV)
  ---------------------------------------------------
  alpha Z        PSCENC =         0.15867211
  Ewald energy   TEWEN  =      4650.24902290
  -Hartree energ DENC   =     -5957.42072110
  -exchange      EXHF   =         0.00000000
  -V(xc)+E(xc)   XCENC  =       155.98997621
  PAW double counting   =      4111.26093070    -4115.15687569
  entropy T*S    EENTRO =        -0.00000000
  eigenvalues    EBANDS =      -640.15274520
  atomic energy  EATOM  =      1839.10786169
  Solvation  Ediel_sol  =      -141.29445817
  ---------------------------------------------------
  free energy    TOTEN  =       -97.25833656 eV

  energy without entropy =      -97.25833656  energy(sigma->0) =      -97.25833656


--------------------------------------------------------------------------------------------------------




--------------------------------------- Iteration      1(  20)  ---------------------------------------


    POTLOK:  cpu time     90.2172: real time     91.5796
    SETDIJ:  cpu time      0.0318: real time      0.0320
    EDDIAG:  cpu time      2.1440: real time      2.1649
  RMM-DIIS:  cpu time      7.3196: real time      7.3760
    ORTHCH:  cpu time      0.1094: real time      0.1138
       DOS:  cpu time      0.0009: real time      0.0009
    CHARGE:  cpu time      1.1208: real time      1.1327
    MIXING:  cpu time      0.1862: real time      0.1874
    --------------------------------------------
      LOOP:  cpu time    101.1298: real time    102.5873

 eigenvalue-minimisations  :   168
 total energy-change (2. order) :-0.3246341E-01  (-0.5666592E-04)
 number of electron      47.0000000 magnetization       4.1056838
 augmentation part        0.6154184 magnetization       3.1515081

 Broyden mixing:
  rms(total) = 0.17447E-01    rms(broyden)= 0.17447E-01
  rms(prec ) = 0.17470E-01
  weight for this iteration     100.00

[...]
  RMM-DIIS:  cpu time      7.3061: real time      7.3593
    ORTHCH:  cpu time      0.1095: real time      0.1138
       DOS:  cpu time      0.0006: real time      0.0007
    CHARGE:  cpu time      1.1204: real time      1.1321
    MIXING:  cpu time      0.0964: real time      0.0969
    --------------------------------------------
      LOOP:  cpu time     93.1412: real time     94.4944

 eigenvalue-minimisations  :   168
 total energy-change (2. order) :-0.7301170E-05  (-0.1244687E-04)
 number of electron      46.9999998 magnetization       1.0000000
 augmentation part        0.6242252 magnetization       0.0467141

 Broyden mixing:
  rms(total) = 0.13175E-02    rms(broyden)= 0.13172E-02
  rms(prec ) = 0.13314E-02
  weight for this iteration     100.00

 eigenvalues of (default mixing * dielectric matrix)
  average eigenvalue GAMMA=   1.1399
  1.1399

 Free energy of the ion-electron system (eV)
  ---------------------------------------------------
  alpha Z        PSCENC =         0.15867211
  Ewald energy   TEWEN  =      4672.28158603
  -Hartree energ DENC   =     -5978.58681724
  -exchange      EXHF   =         0.00000000
  -V(xc)+E(xc)   XCENC  =       156.12098908
  PAW double counting   =      4201.42430924    -4205.37146614
  entropy T*S    EENTRO =        -0.00000000
  eigenvalues    EBANDS =      -641.04729844
  atomic energy  EATOM  =      1839.10786169
  Solvation  Ediel_sol  =      -141.60544861
  ---------------------------------------------------
  free energy    TOTEN  =       -97.51761227 eV

  energy without entropy =      -97.51761227  energy(sigma->0) =      -97.51761227


--------------------------------------------------------------------------------------------------------




--------------------------------------- Iteration     59(   3)  ---------------------------------------


    POTLOK:  cpu time     80.9645: real time     82.1729
    SETDIJ:  cpu time      0.0321: real time      0.0324
    EDDIAG:  cpu time      2.1327: real time      2.1532
  RMM-DIIS:  cpu time      6.1265: real time      6.1705
    ORTHCH:  cpu time      0.1097: real time      0.1142
       DOS:  cpu time      0.0005: real time      0.0005
    --------------------------------------------
      LOOP:  cpu time     89.3661: real time     90.6436

 eigenvalue-minimisations  :   132
 total energy-change (2. order) :-0.6901495E-05  (-0.2188093E-05)
 number of electron      46.9999998 magnetization       1.0000000
 augmentation part        0.6242252 magnetization       0.0467141

 Free energy of the ion-electron system (eV)
  ---------------------------------------------------
  alpha Z        PSCENC =         0.15867211
  Ewald energy   TEWEN  =      4672.28158603
  -Hartree energ DENC   =     -5978.58733296
  -exchange      EXHF   =         0.00000000
  -V(xc)+E(xc)   XCENC  =       156.12092673
  PAW double counting   =      4201.49472408    -4205.44175164
  entropy T*S    EENTRO =        -0.00000000
  eigenvalues    EBANDS =      -641.04736845
  atomic energy  EATOM  =      1839.10786169
  Solvation  Ediel_sol  =      -141.60493676
  ---------------------------------------------------
  free energy    TOTEN  =       -97.51761918 eV

  energy without entropy =      -97.51761918  energy(sigma->0) =      -97.51761918


--------------------------------------------------------------------------------------------------------




 average (electrostatic) potential at core
  the test charge radii are     0.6991  0.7215  0.9698  0.5201
  (the norm of the test charge is              1.0000)
       1 -60.9390       2 -59.9407       3 -59.8332       4 -61.6432       5 -59.8552
       6 -60.0175       7 -60.1446       8 -82.7838       9 -97.8477      10 -42.8888
      11 -42.9450      12 -42.4709      13 -42.5379      14 -42.5390      15 -42.8180
      16 -42.8719      17 -44.0038
 
 
 
 E-fermi :  -5.7802     XC(G=0):  -0.0461     alpha+bet : -0.0187

 Fermi energy:        -5.7802380335

 spin component 1

 k-point     1 :       0.0000    0.0000    0.0000
  band No.  band energies     occupation 
      1     -28.1602      1.00000
      2     -22.6691      1.00000
      3     -20.9186      1.00000
      4     -19.7494      1.00000
      5     -19.0223      1.00000
      6     -17.5991      1.00000
      7     -16.1232      1.00000
      8     -15.3266      1.00000
      9     -14.0103      1.00000
     10     -13.1945      1.00000
     11     -12.5342      1.00000
     12     -12.3012      1.00000
     13     -11.6046      1.00000
     14     -11.2820      1.00000
     15     -11.0041      1.00000
     16     -10.5618      1.00000
     17     -10.4027      1.00000
     18      -9.6039      1.00000
     19      -9.4623      1.00000
     20      -9.3564      1.00000
     21      -8.6351      1.00000
     22      -7.9149      1.00000
     23      -7.5290      1.00000
     24      -6.0948      1.00000
     25      -2.3208      0.00000
     26      -2.1833      0.00000
     27      -1.1266      0.00000
     28      -0.4097      0.00000
     29      -0.2521      0.00000
     30      -0.0655      0.00000
     31      -0.0054      0.00000
     32       0.0555      0.00000
     33       0.0655      0.00000
     34       0.0795      0.00000
     35       0.0852      0.00000
     36       0.0913      0.00000
     37       0.1047      0.00000
     38       0.1234      0.00000
     39       0.1265      0.00000
     40       0.1631      0.00000
     41       0.1691      0.00000
     42       0.1719      0.00000
 Fermi energy:        -5.7802380335

 spin component 2

 k-point     1 :       0.0000    0.0000    0.0000
  band No.  band energies     occupation 
      1     -27.9813      1.00000
      2     -22.5276      1.00000
      3     -20.7561      1.00000
      4     -19.6912      1.00000
      5     -18.9193      1.00000
      6     -17.4468      1.00000
      7     -16.0393      1.00000
      8     -15.2302      1.00000
      9     -13.9537      1.00000
     10     -13.1478      1.00000
     11     -12.4597      1.00000
     12     -12.0425      1.00000
     13     -11.5518      1.00000
     14     -11.2575      1.00000
     15     -10.9508      1.00000
     16     -10.3639      1.00000
     17     -10.2781      1.00000
     18      -9.5560      1.00000
     19      -9.2574      1.00000
     20      -9.1332      1.00000
     21      -8.5687      1.00000
     22      -7.5061      1.00000
     23      -7.3682      1.00000
     24      -5.5372      0.00000
     25      -2.0474      0.00000
     26      -1.8123      0.00000
     27      -1.0570      0.00000
     28      -0.3772      0.00000
     29      -0.1896      0.00000
     30      -0.0509      0.00000
     31      -0.0048      0.00000
     32       0.0625      0.00000
     33       0.0720      0.00000
     34       0.0796      0.00000
     35       0.0887      0.00000
     36       0.0921      0.00000
     37       0.1073      0.00000
     38       0.1336      0.00000
     39       0.1390      0.00000
     40       0.1658      0.00000
     41       0.1699      0.00000
     42       0.1726      0.00000


--------------------------------------------------------------------------------------------------------


 soft charge-density along one line, spin component           1
         0         1         2         3         4         5         6         7         8         9
 total charge-density along one line
 
 soft charge-density along one line, spin component           2
         0         1         2         3         4         5         6         7         8         9
 total charge-density along one line
 
 pseudopotential strength for first ion, spin component:           1
 10.400  13.834  -0.001  -0.000   0.003   0.002   0.001  -0.008
 13.834  18.402  -0.001  -0.000   0.004   0.003   0.001  -0.011
 -0.001  -0.001  -4.494  -0.000   0.001   8.790   0.000  -0.002
 -0.000  -0.000  -0.000  -4.507  -0.001   0.000   8.817   0.002
  0.003   0.004   0.001  -0.001  -4.499  -0.002   0.002   8.800
  0.002   0.003   8.790   0.000  -0.002 -19.338  -0.000   0.004
  0.001   0.001   0.000   8.817   0.002  -0.000 -19.396  -0.004
 -0.008  -0.011  -0.002   0.002   8.800   0.004  -0.004 -19.359
 pseudopotential strength for first ion, spin component:           2
 10.365  13.787  -0.001  -0.000   0.003   0.002   0.001  -0.008
 13.787  18.338  -0.001  -0.000   0.004   0.003   0.001  -0.011
 -0.001  -0.001  -4.495  -0.000   0.001   8.799   0.000  -0.002
 -0.000  -0.000  -0.000  -4.474   0.002   0.000   8.766  -0.004
  0.003   0.004   0.001   0.002  -4.499  -0.002  -0.004   8.808
  0.002   0.003   8.799   0.000  -0.002 -19.368  -0.001   0.004
  0.001   0.001   0.000   8.766  -0.004  -0.001 -19.320   0.006
 -0.008  -0.011  -0.002  -0.004   8.808   0.004   0.006 -19.389
 total augmentation occupancy for first ion, spin component:           1
  7.297  -3.127   0.000   0.017  -0.214  -0.002   0.002  -0.026
 -3.127   1.412   0.009  -0.007   0.089   0.002  -0.001   0.010
  0.000   0.009   1.828   0.000   0.019   0.159   0.000   0.000
  0.017  -0.007   0.000   1.122  -0.042   0.000   0.062  -0.007
 -0.214   0.089   0.019  -0.042   1.581   0.000  -0.007   0.138
 -0.002   0.002   0.159   0.000   0.000   0.015   0.000  -0.000
  0.002  -0.001   0.000   0.062  -0.007   0.000   0.004  -0.001
 -0.026   0.010   0.000  -0.007   0.138  -0.000  -0.001   0.014
 total augmentation occupancy for first ion, spin component:           2
  0.015  -0.003  -0.000   0.001  -0.009  -0.000   0.000  -0.002
 -0.003   0.001   0.000  -0.001   0.006   0.000  -0.000   0.001
 -0.000   0.000   0.002  -0.000  -0.000   0.000  -0.000   0.000
  0.001  -0.001  -0.000   0.205   0.020  -0.000   0.002   0.000
 -0.009   0.006  -0.000   0.020   0.002   0.000   0.000   0.000
 -0.000   0.000   0.000  -0.000   0.000   0.000  -0.000   0.000
  0.000  -0.000  -0.000   0.002   0.000  -0.000  -0.000  -0.000
 -0.002   0.001   0.000   0.000   0.000   0.000  -0.000   0.000


------------------------ aborting loop because EDIFF is reached ----------------------------------------


    CHARGE:  cpu time      1.1173: real time      1.1287
    FORLOC:  cpu time      0.2707: real time      0.2718
    FORNL :  cpu time      3.1411: real time      3.1642
    STRESS:  cpu time      9.5710: real time      9.6425
    FORCOR:  cpu time      4.4354: real time      4.4900
    FORHAR:  cpu time      0.6741: real time      0.6821
    MIXING:  cpu time      0.0933: real time      0.0939
    OFIELD:  cpu time      0.0001: real time      0.0001

 ---------------------------------------------------------------------------------------------

         DFTD3 V3.0 Rev 1        
 Edisp (eV)   -0.18800

 E6    (eV) :    -0.0744
 E8    (eV) :    -0.1136
 % E8        : 60.43
    FORVDW:  cpu time      0.0056: real time      0.0057

  FORCE on cell =-STRESS in cart. coord.  units (eV):
  Direction    XX          YY          ZZ          XY          YZ          ZX
  --------------------------------------------------------------------------------------
  Alpha Z     0.15867     0.15867     0.15867
  Ewald    3282.41790  1654.81993  -264.95660   160.12609     3.04040  -226.62185
  Hartree  3232.18477  1948.69761   797.70600   108.40553     2.44525  -152.83537
  E(xc)    -175.95621  -176.69332  -180.56648     0.10573     0.00829    -0.31154
  Local   -7009.76559 -4120.99611 -1123.21284  -259.50600    -5.89110   373.11992
  n-local     4.42969     2.36486     3.98906     1.56782    -0.06882    -0.02157
  augment   -12.90158   -12.10234   -11.99828    -0.10193    -0.04315    -0.01953
  Kinetic   679.94476   704.59074   777.46769    -9.71932     0.41278     6.51118
  Fock        0.00000     0.00000     0.00000     0.00000     0.00000     0.00000
  vdW         0.00008     0.05158     0.01183    -0.00767     0.00090    -0.00031
  -------------------------------------------------------------------------------------
  Total       0.51249     0.89162    -1.40096     0.87026    -0.09544    -0.17907
  in kB       0.01283     0.02232    -0.03507     0.02179    -0.00239    -0.00448
  external pressure =        0.00 kB  Pullay stress =        0.00 kB


 VOLUME and BASIS-vectors are now :
 -----------------------------------------------------------------------------
  energy-cutoff  :      500.00
  volume of cell :    64000.00
      direct lattice vectors                 reciprocal lattice vectors
    40.000000000  0.000000000  0.000000000     0.025000000  0.000000000  0.000000000
     0.000000000 40.000000000  0.000000000     0.000000000  0.025000000  0.000000000
     0.000000000  0.000000000 40.000000000     0.000000000  0.000000000  0.025000000

  length of vectors
    40.000000000 40.000000000 40.000000000     0.025000000  0.025000000  0.025000000


 FORCES acting on ions
    electron-ion (+dipol)            ewald-force                    non-local-force                 convergence-correction
 -----------------------------------------------------------------------------------------------
   -.130E+03 0.788E+01 0.866E+01   0.127E+03 -.731E+01 -.837E+01   0.275E+01 -.772E+00 -.245E+00   0.115E-02 0.505E-03 0.725E-03
   -.108E+03 -.169E+03 0.504E+01   0.108E+03 0.172E+03 -.496E+01   -.849E+00 -.298E+01 0.190E-02   0.408E-03 0.535E-03 0.329E-02
   0.304E+02 -.197E+03 -.634E+01   -.314E+02 0.200E+03 0.649E+01   0.516E+00 -.312E+01 -.105E+00   0.121E-02 0.151E-02 0.216E-02
   -.213E+01 -.128E+02 -.326E+01   0.891E+01 0.123E+02 0.291E+01   -.715E+01 0.106E+01 0.389E+00   -.768E-03 0.664E-03 0.768E-03
   0.447E+02 0.177E+03 -.579E+01   -.453E+02 -.179E+03 0.589E+01   0.771E+00 0.307E+01 -.805E-01   0.183E-02 -.769E-04 0.128E-02
   -.847E+02 0.179E+03 0.358E+01   0.848E+02 -.181E+03 -.353E+01   -.282E+00 0.292E+01 -.335E-01   -.897E-03 0.736E-03 0.279E-02
   0.197E+03 0.111E+03 -.587E+01   -.204E+03 -.117E+03 0.598E+01   0.580E+01 0.618E+01 -.621E-01   -.119E-02 0.718E-03 -.278E-02
   0.241E+03 -.177E+03 -.176E+02   -.266E+03 0.217E+03 0.196E+02   0.230E+02 -.381E+02 -.188E+01   0.822E-02 -.331E-03 -.608E-02
   -.288E+03 0.710E+02 0.245E+02   0.291E+03 -.774E+02 -.248E+02   -.270E+01 0.501E+01 0.250E+00   -.238E-02 -.113E-02 -.329E-02
   -.340E+02 0.817E+02 0.177E+01   0.364E+02 -.870E+02 -.192E+01   -.250E+01 0.547E+01 0.151E+00   -.112E-03 -.231E-03 0.708E-03
   0.312E+02 0.819E+02 -.327E+01   -.344E+02 -.867E+02 0.352E+01   0.329E+01 0.504E+01 -.265E+00   0.102E-03 -.644E-04 -.130E-04
   0.847E+02 -.147E+02 -.298E+01   -.902E+02 0.172E+02 0.319E+01   0.548E+01 -.240E+01 -.199E+00   0.130E-03 0.493E-04 -.532E-03
   0.284E+02 0.504E+02 0.581E+02   -.281E+02 -.534E+02 -.629E+02   -.518E+00 0.319E+01 0.488E+01   -.659E-04 0.223E-03 -.288E-03
   0.246E+02 0.521E+02 -.586E+02   -.240E+02 -.553E+02 0.633E+02   -.796E+00 0.335E+01 -.473E+01   0.226E-03 -.194E-03 -.960E-04
   0.271E+02 -.863E+02 -.327E+01   -.299E+02 0.916E+02 0.352E+01   0.266E+01 -.538E+01 -.254E+00   0.476E-03 0.262E-03 0.413E-03
   -.448E+02 -.759E+02 0.211E+01   0.478E+02 0.807E+02 -.226E+01   -.336E+01 -.499E+01 0.177E+00   0.200E-03 0.144E-03 0.786E-03
   -.479E+02 -.498E+02 0.550E+01   0.491E+02 0.538E+02 -.568E+01   -.133E+01 -.451E+01 0.222E+00   -.250E-03 0.179E-03 -.768E-03
 -----------------------------------------------------------------------------------------------
   -.248E+02 0.270E+02 0.176E+01   0.213E-13 0.284E-13 -.711E-14   0.248E+02 -.270E+02 -.178E+01   0.829E-02 0.350E-02 -.923E-03
 
 
 POSITION                                       TOTAL-FORCE (eV/Angst)
 -----------------------------------------------------------------------------------
     22.05933     20.06318     19.87715         0.004949      0.001869     -0.004360
     21.45658     21.35316     19.93512        -0.006566     -0.008801      0.002285
     20.09274     21.46167     20.03472        -0.001865     -0.002717     -0.004962
     19.28399     20.28825     20.07285        -0.017002      0.002567     -0.006629
     19.87835     18.99850     20.03877        -0.008512      0.003838      0.007416
     21.24685     18.89294     19.94440         0.001738     -0.004726     -0.001522
     17.04789     19.38522     20.14675         0.000508     -0.009092      0.004371
     17.97303     20.50660     20.13740         0.000544      0.007525      0.004835
     23.74926     19.82951     19.72018         0.002616      0.001047     -0.000069
     21.71312     17.90835     19.91549         0.007168     -0.002684     -0.003731
     19.26801     18.09986     20.08679         0.001990     -0.008531     -0.009013
     16.05468     19.83861     20.18330         0.013530      0.004968      0.003056
     17.16781     18.79476     19.22988         0.001937      0.002582     -0.000001
     17.21983     18.76470     21.03498         0.002013      0.003318      0.007659
     19.60448     22.43428     20.08064        -0.007395      0.001298     -0.006969
     22.07683     22.24745     19.90108         0.002273      0.006471     -0.008334
     24.10713     21.13299     19.66042         0.002073      0.001066      0.015969
 -----------------------------------------------------------------------------------
    total drift:                               -0.011238      0.015463     -0.026671


--------------------------------------------------------------------------------------------------------



  FREE ENERGIE OF THE ION-ELECTRON SYSTEM (eV)
  ---------------------------------------------------
  free  energy   TOTEN  =       -97.70561683 eV

  energy  without entropy=      -97.70561683  energy(sigma->0) =      -97.70561683
 
 d Force = 0.6064221E-04[ 0.382E-04, 0.831E-04]  d Energy = 0.6954691E-04-0.890E-05
 d Force =-0.2328916E-01[-0.232E-01,-0.234E-01]  d Ewald  =-0.2328915E-01-0.112E-07


--------------------------------------------------------------------------------------------------------


    POTLOK:  cpu time     78.4171: real time     79.5909


--------------------------------------------------------------------------------------------------------


 stress matrix after NEB project (eV)
      0.51249      0.87026     -0.17907
      0.87026      0.89162     -0.09544
     -0.17907     -0.09544     -1.40096
  FORCES: max atom, RMS     0.018428    0.010632
  FORCE total and by dimension    0.043836    0.017002
  Stress total and by dimension    2.148804    1.400957
 Conjugate gradient step on ions:
 trial-energy change:   -0.000070  1 .order   -0.000061   -0.000083   -0.000038
  (g-gl).g = 0.208E-03      g.g   = 0.210E-03  gl.gl    = 0.329E-03
 g(Force)  = 0.210E-03   g(Stress)= 0.000E+00 ortho     = 0.275E-04
 gamma     =   0.63382
 trial     =   0.36451
 opt step  =   0.67475  (harmonic =   0.67475) maximal distance =0.00259329
 next E    =   -97.705624   (d E  =  -0.00008)


--------------------------------------------------------------------------------------------------------


  
 reached required accuracy - stopping structural energy minimisation
 writing wavefunctions
     LOOP+:  cpu time    400.2199: real time    406.9700
    4ORBIT:  cpu time      0.0000: real time      0.0000

 total amount of memory used by VASP MPI-rank0   432074. kBytes
=======================================================================

   base      :      30000. kBytes
   nonlr-proj:        891. kBytes
   fftplans  :      96958. kBytes
   grid      :     281468. kBytes
   one-center:          6. kBytes
   wavefun   :      22751. kBytes
 
  
  
 General timing and accounting informations for this job:
 ========================================================
  
                  Total CPU time used (sec):    39729.828
                            User time (sec):    38380.641
                          System time (sec):     1349.186
                         Elapsed time (sec):    40316.236
  
                   Maximum memory used (kb):     1579880.
                   Average memory used (kb):          N/A
  
                          Minor page faults:     12511474
                          Major page faults:         1065
                 Voluntary context switches:       524965
