 vasp.6.3.2 27Jun22 (build Oct 25 2024 11:36:28) complex                        
  
 executed on             LinuxIFC date 2025.01.03  15:57:52
 running on   80 total cores
 distrk:  each k-point on   80 cores,    1 groups
 distr:  one band on NCORE=  10 cores,    8 groups


--------------------------------------------------------------------------------------------------------


 INCAR:
   SYSTEM = 146_ox
   ISTART = 1
   ICHARG = 2
   INIWAV = 1
   METAGGA = R2SCAN
   LASPH = .TRUE.
   NELM = 100
   ALGO = fast   	
   ISPIN = 2
   EDIFF = 1E-05
   ISMEAR = 0
   SIGMA = 0.05
   PREC = accurate
   ENCUT = 500
   LREAL = auto  	
   LWAVE = .TRUE.
   LCHARG = .FALSE.
   LAECHG = .FALSE.
   LVHAR = .FALSE.
   LVTOT = .FALSE.
   EDIFFG = -0.02
   IBRION = 2
   NSW = 500
   ISIF = 2
   POTIM = 0.5
   IVDW = 12
   VDW_A1 = 0.49484001
   VDW_S8 = 0.78981345
   VDW_A2 = 5.73083694
   LPLANE = .TRUE.
   NCORE = 10
   LSCALU = .FALSE.
   NSIM = 4
   LSOL = .TRUE.
   ISOL = 2
   EPSILON_INF = 1.8069
   N_MOL = 0.0115
   P_MOL = 0.82
   R_SOLV = 2.1900
   EB_K = 35.6880

 POTCAR:    PAW_PBE C 08Apr2002                   
 POTCAR:    PAW_PBE O 08Apr2002                   
 POTCAR:    PAW_PBE H 15Jun2001                   
 -----------------------------------------------------------------------------
|                                                                             |
|           W    W    AA    RRRRR   N    N  II  N    N   GGGG   !!!           |
|           W    W   A  A   R    R  NN   N  II  NN   N  G    G  !!!           |
|           W    W  A    A  R    R  N N  N  II  N N  N  G       !!!           |
|           W WW W  AAAAAA  RRRRR   N  N N  II  N  N N  G  GGG   !            |
|           WW  WW  A    A  R   R   N   NN  II  N   NN  G    G                |
|           W    W  A    A  R    R  N    N  II  N    N   GGGG   !!!           |
|                                                                             |
|     You use a magnetic or noncollinear calculation, but did not specify     |
|     the initial magnetic moment with the MAGMOM tag. Note that a            |
|     default of 1 will be used for all atoms. This ferromagnetic setup       |
|     may break the symmetry of the crystal, in particular it may rule        |
|     out finding an antiferromagnetic solution. Thence, we recommend         |
|     setting the initial magnetic moment manually or verifying carefully     |
|     that this magnetic setup is desired.                                    |
|                                                                             |
 -----------------------------------------------------------------------------

 POTCAR:    PAW_PBE C 08Apr2002                   
   SHA256 =  253f7b50bb8d59471dbedb8285d89021f4a42ed1a2c5d38a03a736e69125dd95 C/POTCAR              
   COPYR  = (c) Copyright 08Apr2002 Georg Kresse                                                    
   COPYR  = This file is part of the software VASP. Any use, copying, and all other rights are regul
   COPYR  = If you do not have a valid VASP license, you may not use, copy or distribute this file. 
   VRHFIN =C: s2p2                                                                                  
   LEXCH  = PE                                                                                      
   EATOM  =   147.1560 eV,   10.8157 Ry                                                             
                                                                                                    
   TITEL  = PAW_PBE C 08Apr2002                                                                     
   LULTRA =        F    use ultrasoft PP ?                                                          
   IUNSCR =        1    unscreen: 0-lin 1-nonlin 2-no                                               
   RPACOR =    1.200    partial core radius                                                         
   POMASS =   12.011; ZVAL   =    4.000    mass and valenz                                          
   RCORE  =    1.500    outmost cutoff radius                                                       
   RWIGS  =    1.630; RWIGS  =    0.863    wigner-seitz radius (au A)                               
   ENMAX  =  400.000; ENMIN  =  300.000 eV                                                          
   ICORE  =        2    local potential                                                             
   LCOR   =        T    correct aug charges                                                         
   LPAW   =        T    paw PP                                                                      
   EAUG   =  644.873                                                                                
   DEXC   =    0.000                                                                                
   RMAX   =    1.529    core radius for proj-oper                                                   
   RAUG   =    1.300    factor for augmentation sphere                                              
   RDEP   =    1.501    radius for radial grids                                                     
   RDEPT  =    1.300    core radius for aug-charge                                                  
                                                                                                    
   Atomic configuration                                                                             
    4 entries                                                                                       
     n  l   j            E        occ.                                                              
     1  0  0.50      -273.3789   2.0000                                                             
     2  0  0.50       -13.7508   2.0000                                                             
     2  1  0.50        -5.2854   2.0000                                                             
     3  2  1.50        -5.4423   0.0000                                                             
   Description                                                                                      
     l       E           TYP  RCUT    TYP  RCUT                                                     
     0    -13.7508458     23  1.200                                                                 
     0     -8.2022199     23  1.200                                                                 
     1     -5.2854383     23  1.500                                                                 
     1     34.0145650     23  1.500                                                                 
     2     -5.4423304      7  1.500                                                                 
  local pseudopotential read in
  partial core-charges read in
  partial kinetic energy density read in
  atomic valenz-charges read in
  non local Contribution for L=           0  read in
    real space projection operators read in
  non local Contribution for L=           0  read in
    real space projection operators read in
  non local Contribution for L=           1  read in
    real space projection operators read in
  non local Contribution for L=           1  read in
    real space projection operators read in
    PAW grid and wavefunctions read in
 
   number of l-projection  operators is LMAX  =           4
   number of lm-projection operators is LMMAX =           8
 
 POTCAR:    PAW_PBE O 08Apr2002                   
   SHA256 =  818f92134a0a090dccd8ba1447fa70422a3b330e708bb4f08108d8ae51209ddf O/POTCAR              
   COPYR  = (c) Copyright 08Apr2002 Georg Kresse                                                    
   COPYR  = This file is part of the software VASP. Any use, copying, and all other rights are regul
   COPYR  = If you do not have a valid VASP license, you may not use, copy or distribute this file. 
   VRHFIN =O: s2p4                                                                                  
   LEXCH  = PE                                                                                      
   EATOM  =   432.3788 eV,   31.7789 Ry                                                             
                                                                                                    
   TITEL  = PAW_PBE O 08Apr2002                                                                     
   LULTRA =        F    use ultrasoft PP ?                                                          
   IUNSCR =        1    unscreen: 0-lin 1-nonlin 2-no                                               
   RPACOR =    1.200    partial core radius                                                         
   POMASS =   16.000; ZVAL   =    6.000    mass and valenz                                          
   RCORE  =    1.520    outmost cutoff radius                                                       
   RWIGS  =    1.550; RWIGS  =    0.820    wigner-seitz radius (au A)                               
   ENMAX  =  400.000; ENMIN  =  300.000 eV                                                          
   ICORE  =        2    local potential                                                             
   LCOR   =        T    correct aug charges                                                         
   LPAW   =        T    paw PP                                                                      
   EAUG   =  605.392                                                                                
   DEXC   =    0.000                                                                                
   RMAX   =    1.553    core radius for proj-oper                                                   
   RAUG   =    1.300    factor for augmentation sphere                                              
   RDEP   =    1.550    radius for radial grids                                                     
   RDEPT  =    1.329    core radius for aug-charge                                                  
                                                                                                    
   Atomic configuration                                                                             
    4 entries                                                                                       
     n  l   j            E        occ.                                                              
     1  0  0.50      -514.6923   2.0000                                                             
     2  0  0.50       -23.9615   2.0000                                                             
     2  1  0.50        -9.0305   4.0000                                                             
     3  2  1.50        -9.5241   0.0000                                                             
   Description                                                                                      
     l       E           TYP  RCUT    TYP  RCUT                                                     
     0    -23.9615318     23  1.200                                                                 
     0     -9.5240782     23  1.200                                                                 
     1     -9.0304911     23  1.520                                                                 
     1      8.1634956     23  1.520                                                                 
     2     -9.5240782      7  1.500                                                                 
  local pseudopotential read in
  partial core-charges read in
  partial kinetic energy density read in
  kinetic energy density of atom read in
  atomic valenz-charges read in
  non local Contribution for L=           0  read in
    real space projection operators read in
  non local Contribution for L=           0  read in
    real space projection operators read in
  non local Contribution for L=           1  read in
    real space projection operators read in
  non local Contribution for L=           1  read in
    real space projection operators read in
    PAW grid and wavefunctions read in
 
   number of l-projection  operators is LMAX  =           4
   number of lm-projection operators is LMMAX =           8
 
 POTCAR:    PAW_PBE H 15Jun2001                   
   SHA256 =  030f79b5d3ab3cf0e668861823c8fb652ff669f3e15e46930bd03bfd63a607b6 H/POTCAR              
   COPYR  = (c) Copyright 15Jun2001 Georg Kresse                                                    
   COPYR  = This file is part of the software VASP. Any use, copying, and all other rights are regul
   COPYR  = If you do not have a valid VASP license, you may not use, copy or distribute this file. 
   VRHFIN =H: ultrasoft test                                                                        
   LEXCH  = PE                                                                                      
   EATOM  =    12.4884 eV,    0.9179 Ry                                                             
                                                                                                    
   TITEL  = PAW_PBE H 15Jun2001                                                                     
   LULTRA =        F    use ultrasoft PP ?                                                          
   IUNSCR =        0    unscreen: 0-lin 1-nonlin 2-no                                               
   RPACOR =    0.000    partial core radius                                                         
   POMASS =    1.000; ZVAL   =    1.000    mass and valenz                                          
   RCORE  =    1.100    outmost cutoff radius                                                       
   RWIGS  =    0.700; RWIGS  =    0.370    wigner-seitz radius (au A)                               
   ENMAX  =  250.000; ENMIN  =  200.000 eV                                                          
   RCLOC  =    0.701    cutoff for local pot                                                        
   LCOR   =        T    correct aug charges                                                         
   LPAW   =        T    paw PP                                                                      
   EAUG   =  400.000                                                                                
   RMAX   =    1.123    core radius for proj-oper                                                   
   RAUG   =    1.200    factor for augmentation sphere                                              
   RDEP   =    1.112    radius for radial grids                                                     
   RDEPT  =    0.926    core radius for aug-charge                                                  
                                                                                                    
   Atomic configuration                                                                             
    2 entries                                                                                       
     n  l   j            E        occ.                                                              
     1  0  0.50        -6.4927   1.0000                                                             
     2  1  0.50        -3.4015   0.0000                                                             
   Description                                                                                      
     l       E           TYP  RCUT    TYP  RCUT                                                     
     0     -6.4927494     23  1.100                                                                 
     0      6.8029130     23  1.100                                                                 
     1     -4.0817478     23  1.100                                                                 
  local pseudopotential read in
  atomic valenz-charges read in
  non local Contribution for L=           0  read in
    real space projection operators read in
  non local Contribution for L=           0  read in
    real space projection operators read in
  non local Contribution for L=           1  read in
    real space projection operators read in
    PAW grid and wavefunctions read in
 
   number of l-projection  operators is LMAX  =           3
   number of lm-projection operators is LMMAX =           5
 
 Optimization of the real space projectors (new method)

 maximal supplied QI-value         = 25.13
 optimisation between [QCUT,QGAM] = [ 11.31, 22.87] = [ 35.82,146.48] Ry 
 Optimized for a Real-space Cutoff    1.03 Angstroem

   l    n(q)    QCUT    max X(q) W(low)/X(q) W(high)/X(q)  e(spline) 
   0      7    11.310   115.676    0.20E-03    0.90E-03    0.20E-06
   0      7    11.310    87.132    0.20E-03    0.89E-03    0.19E-06
   1      6    11.310     4.429    0.16E-03    0.28E-03    0.12E-06
   1      6    11.310     2.733    0.12E-03    0.21E-03    0.99E-07
 Optimization of the real space projectors (new method)

 maximal supplied QI-value         = 24.76
 optimisation between [QCUT,QGAM] = [ 11.39, 22.77] = [ 36.31,145.25] Ry 
 Optimized for a Real-space Cutoff    1.10 Angstroem

   l    n(q)    QCUT    max X(q) W(low)/X(q) W(high)/X(q)  e(spline) 
   0      7    11.387    20.381    0.22E-03    0.48E-03    0.18E-06
   0      7    11.387    15.268    0.22E-03    0.52E-03    0.19E-06
   1      7    11.387     5.964    0.22E-03    0.73E-03    0.24E-06
   1      7    11.387     5.382    0.19E-03    0.60E-03    0.21E-06
 Optimization of the real space projectors (new method)

 maximal supplied QI-value         = 34.20
 optimisation between [QCUT,QGAM] = [ 11.29, 22.57] = [ 35.68,142.71] Ry 
 Optimized for a Real-space Cutoff    1.20 Angstroem

   l    n(q)    QCUT    max X(q) W(low)/X(q) W(high)/X(q)  e(spline) 
   0      8    11.287    19.460    0.22E-03    0.50E-03    0.19E-06
   0      8    11.287    12.209    0.21E-03    0.48E-03    0.18E-06
   1      8    11.287     4.655    0.21E-03    0.11E-04    0.26E-06
  PAW_PBE C 08Apr2002                   :
 energy of atom  1       EATOM= -147.1560
 kinetic energy error for atom=    0.0076 (will be added to EATOM!!)
  PAW_PBE O 08Apr2002                   :
 energy of atom  2       EATOM= -432.3788
 kinetic energy error for atom=    0.0224 (will be added to EATOM!!)
  PAW_PBE H 15Jun2001                   :
 energy of atom  3       EATOM=  -12.4884
 kinetic energy error for atom=    0.0020 (will be added to EATOM!!)
 
 
 POSCAR: C O H
  positions in direct lattice
  velocities in cartesian coordinates

 METAGGA = R2SCA    LMAXTAU =  6    LMIXTAU =  F

 exchange correlation table for  LEXCH =        8
   RHO(1)=    0.500       N(1)  =     2000
   RHO(2)=  100.500       N(2)  =     4000
 
 POSCAR: C O H
  positions in direct lattice
  velocities in cartesian coordinates
 
 POSCAR: C O H
  positions in direct lattice
  velocities in cartesian coordinates
 


--------------------------------------------------------------------------------------------------------


 ion  position               nearest neighbor table
   1  0.457  0.534  0.492-  27 1.08   6 1.38   2 1.40
   2  0.439  0.505  0.499-   3 1.40   1 1.40  13 1.49
   3  0.456  0.475  0.506-  23 1.08   4 1.39   2 1.40
   4  0.491  0.475  0.506-  22 1.08   3 1.39   5 1.40
   5  0.509  0.504  0.499-   4 1.40   6 1.40   7 1.47
   6  0.491  0.534  0.492-  16 1.08   1 1.38   5 1.40
   7  0.546  0.504  0.499-   8 1.40  12 1.40   5 1.47
   8  0.564  0.476  0.487-  21 1.08   9 1.39   7 1.40
   9  0.599  0.476  0.487-  20 1.08   8 1.39  10 1.39
  10  0.616  0.504  0.499-  19 1.08  11 1.39   9 1.39
  11  0.599  0.531  0.511-  18 1.08  12 1.39  10 1.39
  12  0.564  0.532  0.511-  17 1.08  11 1.39   7 1.40
  13  0.402  0.506  0.499-  15 1.23   2 1.49  14 1.50
  14  0.382  0.475  0.507-  24 1.09  26 1.09  25 1.09  13 1.50
  15  0.387  0.532  0.492-  13 1.23
  16  0.505  0.556  0.486-   6 1.08
  17  0.551  0.553  0.521-  12 1.08
  18  0.612  0.553  0.520-  11 1.08
  19  0.643  0.504  0.499-  10 1.08
  20  0.612  0.455  0.477-   9 1.08
  21  0.550  0.455  0.477-   8 1.08
  22  0.504  0.452  0.512-   4 1.08
  23  0.443  0.452  0.512-   3 1.08
  24  0.356  0.480  0.505-  14 1.09
  25  0.388  0.455  0.489-  14 1.09
  26  0.389  0.465  0.531-  14 1.09
  27  0.443  0.557  0.486-   1 1.08
 
  LATTYP: Found a simple cubic cell.
 ALAT       =    40.0000000000
  
  Lattice vectors:
  
 A1 = (  40.0000000000,   0.0000000000,   0.0000000000)
 A2 = (   0.0000000000,  40.0000000000,   0.0000000000)
 A3 = (   0.0000000000,   0.0000000000,  40.0000000000)


Analysis of symmetry for initial positions (statically):
=====================================================================
 Subroutine PRICEL returns:
 Original cell was already a primitive cell.
 

 Routine SETGRP: Setting up the symmetry group for a 
 simple cubic supercell.


 Subroutine GETGRP returns: Found  1 space group operations
 (whereof  1 operations were pure point group operations)
 out of a pool of 48 trial point group operations.


The static configuration has the point symmetry C_1 .


Analysis of symmetry for dynamics (positions and initial velocities):
=====================================================================
 Subroutine PRICEL returns:
 Original cell was already a primitive cell.
 

 Routine SETGRP: Setting up the symmetry group for a 
 simple cubic supercell.


 Subroutine GETGRP returns: Found  1 space group operations
 (whereof  1 operations were pure point group operations)
 out of a pool of 48 trial point group operations.


The dynamic configuration has the point symmetry C_1 .


Analysis of constrained symmetry for selective dynamics:
=====================================================================
 Subroutine PRICEL returns:
 Original cell was already a primitive cell.
 

 Routine SETGRP: Setting up the symmetry group for a 
 simple cubic supercell.


 Subroutine GETGRP returns: Found  1 space group operations
 (whereof  1 operations were pure point group operations)
 out of a pool of 48 trial point group operations.


The constrained configuration has the point symmetry C_1 .


Analysis of structural, dynamic, and magnetic symmetry:
=====================================================================
 Subroutine PRICEL returns:
 Original cell was already a primitive cell.
 

 Routine SETGRP: Setting up the symmetry group for a 
 simple cubic supercell.


 Subroutine GETGRP returns: Found  1 space group operations
 (whereof  1 operations were pure point group operations)
 out of a pool of 48 trial point group operations.


The overall configuration has the point symmetry C_1 .


 Subroutine INISYM returns: Found  1 space group operations
 (whereof  1 operations are pure point group operations),
 and found     1 'primitive' translations


----------------------------------------------------------------------------------------

                                     Primitive cell                                     

  volume of cell :   64000.0000

  direct lattice vectors                    reciprocal lattice vectors
    40.000000000  0.000000000  0.000000000     0.025000000  0.000000000  0.000000000
     0.000000000 40.000000000  0.000000000     0.000000000  0.025000000  0.000000000
     0.000000000  0.000000000 40.000000000     0.000000000  0.000000000  0.025000000

  length of vectors
    40.000000000 40.000000000 40.000000000     0.025000000  0.025000000  0.025000000

  position of ions in fractional coordinates (direct lattice)
     0.456858073  0.533825131  0.491826720
     0.438781175  0.504660094  0.498908558
     0.456407696  0.475235870  0.505940816
     0.491085442  0.475026695  0.505842987
     0.509240269  0.504192989  0.498902379
     0.491432175  0.533643883  0.491907600
     0.546110905  0.503999196  0.498921482
     0.563922966  0.476240776  0.487082912
     0.598675545  0.476202453  0.486940296
     0.616294655  0.503788154  0.498823113
     0.598896984  0.531478972  0.510778433
     0.564144101  0.531646135  0.510712513
     0.401643999  0.505960252  0.498810771
     0.382244201  0.474704234  0.506602060
     0.386955089  0.532292825  0.492473547
     0.504918499  0.556354889  0.485865488
     0.550848814  0.553153403  0.520508796
     0.612405402  0.552975710  0.520323168
     0.643393573  0.503701247  0.498752917
     0.612020113  0.454638935  0.477322908
     0.550469089  0.454838100  0.477274007
     0.504263782  0.452131227  0.511878712
     0.443156943  0.452341727  0.511777714
     0.355641664  0.480216449  0.505438684
     0.388311040  0.454877090  0.488797032
     0.388613826  0.465326030  0.531467820
     0.443263981  0.556548536  0.486119566

  ion indices of the primitive-cell ions
   primitive index   ion index
                 1           1
                 2           2
                 3           3
                 4           4
                 5           5
                 6           6
                 7           7
                 8           8
                 9           9
                10          10
                11          11
                12          12
                13          13
                14          14
                15          15
                16          16
                17          17
                18          18
                19          19
                20          20
                21          21
                22          22
                23          23
                24          24
                25          25
                26          26
                27          27

----------------------------------------------------------------------------------------

 
 
 KPOINTS: K-Point Grid                            

Automatic generation of k-mesh.
 Grid dimensions read from file:
 generate k-points for:    1    1    1

 Generating k-lattice:

  Cartesian coordinates                     Fractional coordinates (reciprocal lattice)
     0.025000000  0.000000000  0.000000000     1.000000000  0.000000000  0.000000000
     0.000000000  0.025000000  0.000000000     0.000000000  1.000000000  0.000000000
     0.000000000  0.000000000  0.025000000     0.000000000  0.000000000  1.000000000

  Length of vectors
     0.025000000  0.025000000  0.025000000

  Shift w.r.t. Gamma in fractional coordinates (k-lattice)
     0.000000000  0.000000000  0.000000000

 
 Subroutine IBZKPT returns following result:
 ===========================================
 
 Found      1 irreducible k-points:
 
 Following reciprocal coordinates:
            Coordinates               Weight
  0.000000  0.000000  0.000000      1.000000
 
 Following cartesian coordinates:
            Coordinates               Weight
  0.000000  0.000000  0.000000      1.000000
 


--------------------------------------------------------------------------------------------------------




 Dimension of arrays:
   k-points           NKPTS =      1   k-points in BZ     NKDIM =      1   number of bands    NBANDS=     72
   number of dos      NEDOS =    301   number of ions     NIONS =     27
   non local maximal  LDIM  =      4   non local SUM 2l+1 LMDIM =      8
   total plane-waves  NPLWV = ******
   max r-space proj   IRMAX =   2915   max aug-charges    IRDMAX=   5350
   dimension x,y,z NGX =   294 NGY =  294 NGZ =  294
   dimension x,y,z NGXF=   588 NGYF=  588 NGZF=  588
   support grid    NGXF=   588 NGYF=  588 NGZF=  588
   ions per type =              14   1  12
   NGX,Y,Z   is equivalent  to a cutoff of  12.22, 12.22, 12.22 a.u.
   NGXF,Y,Z  is equivalent  to a cutoff of  24.44, 24.44, 24.44 a.u.

 SYSTEM =  146_ox                                  
 POSCAR =  C O H                                   

 Startparameter for this run:
   NWRITE =      2    write-flag & timer
   PREC   = accura    normal or accurate (medium, high low for compatibility)
   ISTART =      1    job   : 0-new  1-cont  2-samecut
   ICHARG =      2    charge: 1-file 2-atom 10-const
   ISPIN  =      2    spin polarized calculation?
   LNONCOLLINEAR =      F non collinear calculations
   LSORBIT =      F    spin-orbit coupling
   INIWAV =      1    electr: 0-lowe 1-rand  2-diag
   LASPH  =      T    aspherical Exc in radial PAW
 Electronic Relaxation 1
   ENCUT  =  500.0 eV  36.75 Ry    6.06 a.u.  72.93 72.93 72.93*2*pi/ulx,y,z
   ENINI  =  500.0     initial cutoff
   ENAUG  =  644.9 eV  augmentation charge cutoff
   NELM   =    100;   NELMIN=  2; NELMDL=  0     # of ELM steps 
   EDIFF  = 0.1E-04   stopping-criterion for ELM
   LREAL  =      T    real-space projection
   NLSPLINE    = F    spline interpolate recip. space projectors
   LCOMPAT=      F    compatible to vasp.4.4
   GGA_COMPAT  = T    GGA compatible to vasp.4.4-vasp.4.6
   LMAXPAW     = -100 max onsite density
   LMAXMIX     =    2 max onsite mixed and CHGCAR
   VOSKOWN=      0    Vosko Wilk Nusair interpolation
   ROPT   =   -0.00025  -0.00025  -0.00025
 Ionic relaxation
   EDIFFG = -.2E-01   stopping-criterion for IOM
   NSW    =    500    number of steps for IOM
   NBLOCK =      1;   KBLOCK =    500    inner block; outer block 
   IBRION =      2    ionic relax: 0-MD 1-quasi-New 2-CG
   NFREE  =      1    steps in history (QN), initial steepest desc. (CG)
   ISIF   =      2    stress and relaxation
   IWAVPR =     11    prediction:  0-non 1-charg 2-wave 3-comb
   ISYM   =      2    0-nonsym 1-usesym 2-fastsym
   LCORR  =      T    Harris-Foulkes like correction to forces

   POTIM  = 0.5000    time-step for ionic-motion
   TEIN   =    0.0    initial temperature
   TEBEG  =    0.0;   TEEND  =   0.0 temperature during run
   SMASS  =  -3.00    Nose mass-parameter (am)
   estimated Nose-frequenzy (Omega)   =  0.10E-29 period in steps = 0.13E+47 mass=  -0.366E-25a.u.
   SCALEE = 1.0000    scale energy and forces
   NPACO  =    256;   APACO  = 10.0  distance and # of slots for P.C.
   PSTRESS=    0.0 pullay stress

  Mass of Ions in am
   POMASS =  12.01 16.00  1.00
  Ionic Valenz
   ZVAL   =   4.00  6.00  1.00
  Atomic Wigner-Seitz radii
   RWIGS  =  -1.00 -1.00 -1.00
  virtual crystal weights 
   VCA    =   1.00  1.00  1.00
   NELECT =      74.0000    total number of electrons
   NUPDOWN=      -1.0000    fix difference up-down

 DOS related values:
   EMIN   =  10.00;   EMAX   =-10.00  energy-range for DOS
   EFERMI =   0.00
   ISMEAR =     0;   SIGMA  =   0.05  broadening in eV -4-tet -1-fermi 0-gaus

 Electronic relaxation 2 (details)
   IALGO  =     68    algorithm
   LDIAG  =      T    sub-space diagonalisation (order eigenvalues)
   LSUBROT=      F    optimize rotation matrix (better conditioning)
   TURBO    =      0    0=normal 1=particle mesh
   IRESTART =      0    0=no restart 2=restart with 2 vectors
   NREBOOT  =      0    no. of reboots
   NMIN     =      0    reboot dimension
   EREF     =   0.00    reference energy to select bands
   IMIX   =      4    mixing-type and parameters
     AMIX     =   0.40;   BMIX     =  1.00
     AMIX_MAG =   1.60;   BMIX_MAG =  1.00
     AMIN     =   0.10
     WC   =   100.;   INIMIX=   1;  MIXPRE=   1;  MAXMIX= -45

 Intra band minimization:
   WEIMIN = 0.0010     energy-eigenvalue tresh-hold
   EBREAK =  0.35E-07  absolut break condition
   DEPER  =   0.30     relativ break condition  

   TIME   =   0.40     timestep for ELM

  volume/ion in A,a.u.               =    2370.37     15996.05
  Fermi-wavevector in a.u.,A,eV,Ry     =   0.171827  0.324706  0.401707  0.029525
  Thomas-Fermi vector in A             =   0.883893
 
 Write flags
   LWAVE        =      T    write WAVECAR
   LDOWNSAMPLE  =      F    k-point downsampling of WAVECAR
   LCHARG       =      F    write CHGCAR
   LVTOT        =      F    write LOCPOT, total local potential
   LVHAR        =      F    write LOCPOT, Hartree potential only
   LELF         =      F    write electronic localiz. function (ELF)
   LORBIT       =      0    0 simple, 1 ext, 2 COOP (PROOUT), +10 PAW based schemes


 Dipole corrections
   LMONO  =      F    monopole corrections only (constant potential shift)
   LDIPOL =      F    correct potential (dipole corrections)
   IDIPOL =      0    1-x, 2-y, 3-z, 4-all directions 
   EPSILON=  1.0000000 bulk dielectric constant

 Exchange correlation treatment:
   GGA     =    --    GGA type
   LEXCH   =     8    internal setting for exchange type
   LIBXC   =     F    Libxc                    
   VOSKOWN =     0    Vosko Wilk Nusair interpolation
   LHFCALC =     F    Hartree Fock is set to
   LHFONE  =     F    Hartree Fock one center treatment
   AEXX    =    0.0000 exact exchange contribution

 Linear response parameters
   LEPSILON=     F    determine dielectric tensor
   LRPA    =     F    only Hartree local field effects (RPA)
   LNABLA  =     F    use nabla operator in PAW spheres
   LVEL    =     F    velocity operator in full k-point grid
   CSHIFT  =0.1000    complex shift for real part using Kramers Kronig
   OMEGAMAX=  -1.0    maximum frequency
   DEG_THRESHOLD= 0.2000000E-02 threshold for treating states as degnerate
   RTIME   =   -0.100 relaxation time in fs
  (WPLASMAI=    0.000 imaginary part of plasma frequency in eV, 0.658/RTIME)
   DFIELD  = 0.0000000 0.0000000 0.0000000 field for delta impulse in time
 
  Optional k-point grid parameters
   LKPOINTS_OPT  =     F    use optional k-point grid
   KPOINTS_OPT_MODE=     1    mode for optional k-point grid
 
 Orbital magnetization related:
   ORBITALMAG=     F  switch on orbital magnetization
   LCHIMAG   =     F  perturbation theory with respect to B field
   DQ        =  0.001000  dq finite difference perturbation B field
   LLRAUG    =     F  two centre corrections for induced B field

 Solvation model:
   LSOL             =     T         switch on solvation model
   LSOL_SCF         =     T         include solvation in SCF
   ISOL             =     2         solvation model type
   EFERMI_ref       =  0.000000         reference Fermi level
   capacitance_init =  1.000000         initial capacitance
 Nonlinear solvation model:
   LNLDIEL     =     T         switch on non-linear dielectric mode
   LNLION      =     T         switch on non-linear ionic mode
   LNLTEST     =     F         test non-linear model in linear regime
   I_NLOC_SOL  =     1         type of nonlocal dielectric response
   NC_K        =  0.015000     cutoff charge density for cavities (1/Angstrom**3)
   TAU         =  0.000879     cavity formation energy (eV/Angstrom**2)
   SIGMA_K     =  0.600000     cavity width
   A_K         =  0.125000     smoothing length (Angstrom)
   R_SOLV      =  2.190000     solvent radius (Angstrom)
   R_CAV       =  0.000000     cavity radius (Angstrom)
   R_DIEL      =  1.000000     dielectric radius (Angstrom)
   R_ION       =  0.000000     ionic radius (Angstrom)
   R_B         =  0.000000     bound charge radius (Angstrom)
   SOLTEMP     =298.000000     solvent temperature (K)
   EB_K        = 35.688000     relative permittivity of the bulk solvent
   EPSILON_INF =  1.806900     optical relative permittivity of bulk solvent
   N_MOL       =  0.011500     molar density of solvent (1/Angstrom**3)
   P_MOL       =  0.820000     solvent dipole moment (e*Angstrom)
   C_MOLAR     =  0.000000     electrolyte concentration (mol/L)
   LAMBDA_D_K  =  0.000000     Debye length (Angstrom)
   ZION        =  1.000000     charge of ions in electrolyte (e)
   D_ION       = -1.000000     minimum ion packing diameter (Angstrom)



--------------------------------------------------------------------------------------------------------


 conjugate gradient relaxation of ions
   using selective dynamics as specified on POSCAR
 charge density and potential will be updated during run
 spin polarized calculation
 RMM-DIIS sequential band-by-band and
  variant of blocked Davidson during initial phase
 perform sub-space diagonalisation
    before iterative eigenvector-optimisation
 modified Broyden-mixing scheme, WC =      100.0
 initial mixing is a Kerker type mixing with AMIX =  0.4000 and BMIX =      1.0000
 Hartree-type preconditioning will be used
 using additional bands           35
 real space projection scheme for non local part
 use partial core corrections
 calculate Harris-corrections to forces 
   (improved forces if not selfconsistent)
 use gradient corrections 
 use of overlap-Matrix (Vanderbilt PP)
 Gauss-broadening in eV      SIGMA  =   0.05


--------------------------------------------------------------------------------------------------------


  energy-cutoff  :      500.00
  volume of cell :    64000.00
      direct lattice vectors                 reciprocal lattice vectors
    40.000000000  0.000000000  0.000000000     0.025000000  0.000000000  0.000000000
     0.000000000 40.000000000  0.000000000     0.000000000  0.025000000  0.000000000
     0.000000000  0.000000000 40.000000000     0.000000000  0.000000000  0.025000000

  length of vectors
    40.000000000 40.000000000 40.000000000     0.025000000  0.025000000  0.025000000


 
 old parameters found on file WAVECAR:
  energy-cutoff  :      500.00
  volume of cell :    64000.00
      direct lattice vectors                 reciprocal lattice vectors
    40.000000000  0.000000000  0.000000000     0.025000000  0.000000000  0.000000000
     0.000000000 40.000000000  0.000000000     0.000000000  0.025000000  0.000000000
     0.000000000  0.000000000 40.000000000     0.000000000  0.000000000  0.025000000

  length of vectors

 
 k-points in units of 2pi/SCALE and weight: K-Point Grid                            
   0.00000000  0.00000000  0.00000000       1.000
 
 k-points in reciprocal lattice and weights: K-Point Grid                            
   0.00000000  0.00000000  0.00000000       1.000
 
 position of ions in fractional coordinates (direct lattice) 
   0.45685807  0.53382513  0.49182672
   0.43878117  0.50466009  0.49890856
   0.45640770  0.47523587  0.50594082
   0.49108544  0.47502669  0.50584299
   0.50924027  0.50419299  0.49890238
   0.49143217  0.53364388  0.49190760
   0.54611091  0.50399920  0.49892148
   0.56392297  0.47624078  0.48708291
   0.59867555  0.47620245  0.48694030
   0.61629465  0.50378815  0.49882311
   0.59889698  0.53147897  0.51077843
   0.56414410  0.53164613  0.51071251
   0.40164400  0.50596025  0.49881077
   0.38224420  0.47470423  0.50660206
   0.38695509  0.53229283  0.49247355
   0.50491850  0.55635489  0.48586549
   0.55084881  0.55315340  0.52050880
   0.61240540  0.55297571  0.52032317
   0.64339357  0.50370125  0.49875292
   0.61202011  0.45463894  0.47732291
   0.55046909  0.45483810  0.47727401
   0.50426378  0.45213123  0.51187871
   0.44315694  0.45234173  0.51177771
   0.35564166  0.48021645  0.50543868
   0.38831104  0.45487709  0.48879703
   0.38861383  0.46532603  0.53146782
   0.44326398  0.55654854  0.48611957
 
 position of ions in cartesian coordinates  (Angst):
  18.27432290 21.35300524 19.67306880
  17.55124699 20.18640378 19.95634233
  18.25630782 19.00943479 20.23763265
  19.64341770 19.00106778 20.23371949
  20.36961075 20.16771956 19.95609515
  19.65728699 21.34575533 19.67630401
  21.84443621 20.15996785 19.95685929
  22.55691864 19.04963102 19.48331648
  23.94702181 19.04809812 19.47761184
  24.65178619 20.15152617 19.95292451
  23.95587935 21.25915886 20.43113730
  22.56576405 21.26584538 20.42850051
  16.06575997 20.23841007 19.95243084
  15.28976806 18.98816936 20.26408241
  15.47820357 21.29171300 19.69894188
  20.19673997 22.25419555 19.43461952
  22.03395256 22.12613612 20.82035183
  24.49621608 22.11902841 20.81292672
  25.73574290 20.14804987 19.95011667
  24.48080452 18.18555740 19.09291630
  22.01876354 18.19352400 19.09096028
  20.17055128 18.08524907 20.47514848
  17.72627771 18.09366908 20.47110858
  14.22566656 19.20865798 20.21754736
  15.53244158 18.19508359 19.55188130
  15.54455304 18.61304118 21.25871281
  17.73055925 22.26194142 19.44478265
 


--------------------------------------------------------------------------------------------------------


 k-point   1 :   0.0000 0.0000 0.0000  plane waves: 1624525

 maximum and minimum number of plane-waves per node :    162473   162437

 maximum number of plane-waves:   1624525
 maximum index in each direction: 
   IXMAX=   72   IYMAX=   72   IZMAX=   72
   IXMIN=  -72   IYMIN=  -72   IZMIN=  -72


 real space projection operators:
  total allocation   :       2998.81 KBytes
  max/ min on nodes  :        307.87        293.48


 parallel 3D FFT for wavefunctions:
    minimum data exchange during FFTs selected (reduces bandwidth)
 parallel 3D FFT for charge:
    minimum data exchange during FFTs selected (reduces bandwidth)


 total amount of memory used by VASP MPI-rank0   908374. kBytes
=======================================================================

   base      :      30000. kBytes
   nonlr-proj:       1695. kBytes
   fftplans  :     167689. kBytes
   grid      :     662171. kBytes
   one-center:         18. kBytes
   wavefun   :      46801. kBytes
 
     INWAV:  cpu time     10.8469: real time     10.8847
 Broyden mixing: mesh for mixing (old mesh)
   NGX =145   NGY =145   NGZ =145
  (NGX  =588   NGY  =588   NGZ  =588)
  gives a total of ****** points

 initial charge density was supplied:
 charge density of overlapping atoms calculated
 number of electron      74.0000000 magnetization      27.0000000
 keeping initial charge density in first step


--------------------------------------------------------------------------------------------------------


 Maximum index for non-local projection operator          319
 Maximum index for augmentation-charges          327 (set IRDMAX)


--------------------------------------------------------------------------------------------------------


 First call to EWALD:  gamma=   0.044
 Maximum number of real-space cells 3x 3x 3
 Maximum number of reciprocal cells 3x 3x 3

    FEWALD:  cpu time      0.0036: real time      0.0036


--------------------------------------- Iteration      1(   1)  ---------------------------------------


    POTLOK:  cpu time      7.8405: real time      7.8605
    SETDIJ:  cpu time      0.3349: real time      0.3356
     EDDAV:  cpu time     63.2994: real time     63.4411
       DOS:  cpu time      0.0009: real time      0.0009
    CHARGE:  cpu time      6.8602: real time      6.8743
    MIXING:  cpu time      0.1844: real time      0.1845
    --------------------------------------------
      LOOP:  cpu time     78.5204: real time     78.6970

 eigenvalue-minimisations  :   408
 total energy-change (2. order) :-0.1873041E+03  (-0.1039603E+02)
 number of electron      74.0000000 magnetization      25.9597499
 augmentation part        2.3384612 magnetization      26.0024016

 Broyden mixing:
  rms(total) = 0.33206E+01    rms(broyden)= 0.33203E+01
  rms(prec ) = 0.33520E+01
  weight for this iteration     100.00

 Free energy of the ion-electron system (eV)
  ---------------------------------------------------
  alpha Z        PSCENC =         0.39301700
  Ewald energy   TEWEN  =      8923.49529998
  -Hartree energ DENC   =    -10693.25054365
  -exchange      EXHF   =         0.00000000
  -V(xc)+E(xc)   XCENC  =       289.00253287
  PAW double counting   =      1841.63069808    -1873.65361449
  entropy T*S    EENTRO =        -0.00000000
  eigenvalues    EBANDS =     -1317.19300667
  atomic energy  EATOM  =      2642.27149654
  Solvation  Ecorr_sol  =         0.00000000
  ---------------------------------------------------
  free energy    TOTEN  =      -187.30412035 eV

  energy without entropy =     -187.30412035  energy(sigma->0) =     -187.30412035


--------------------------------------------------------------------------------------------------------




--------------------------------------- Iteration      1(   2)  ---------------------------------------


    --------------------------------------------
      INIT:  cpu time      0.2024: real time      0.2025
  FINALIZE:  cpu time     17.0661: real time     17.0901
    --------------------------------------------
    POTLOK:  cpu time     25.0951: real time     25.1455
    SETDIJ:  cpu time      0.3365: real time      0.3372
    EDDIAG:  cpu time     12.2522: real time     12.2779
  RMM-DIIS:  cpu time     69.0468: real time     69.1936
    ORTHCH:  cpu time      0.1903: real time      0.1907
       DOS:  cpu time      0.0017: real time      0.0017
    CHARGE:  cpu time      6.8162: real time      6.8303
    MIXING:  cpu time      0.1511: real time      0.1513
    --------------------------------------------
      LOOP:  cpu time    113.8900: real time    114.1282

 eigenvalue-minimisations  :   288
 total energy-change (2. order) : 0.2753958E+02  (-0.1076556E+02)
 number of electron      73.9999999 magnetization      24.8176258
 augmentation part        2.2988195 magnetization      24.7274478

 Broyden mixing:
  rms(total) = 0.16347E+01    rms(broyden)= 0.16346E+01
  rms(prec ) = 0.16580E+01
  weight for this iteration     100.00

 eigenvalues of (default mixing * dielectric matrix)
  average eigenvalue GAMMA=   0.9652
  0.9652

 Free energy of the ion-electron system (eV)
  ---------------------------------------------------
  alpha Z        PSCENC =         0.39301700
  Ewald energy   TEWEN  =      8923.49529998
  -Hartree energ DENC   =    -10834.48120814
  -exchange      EXHF   =         0.00000000
  -V(xc)+E(xc)   XCENC  =       315.19553829
  PAW double counting   =      3274.06596589    -3307.68513592
  entropy T*S    EENTRO =        -0.00000000
  eigenvalues    EBANDS =     -1166.83560047
  atomic energy  EATOM  =      2642.27149654
  Solvation  Ecorr_sol  =        -6.18391721
  ---------------------------------------------------
  free energy    TOTEN  =      -159.76454406 eV

  energy without entropy =     -159.76454406  energy(sigma->0) =     -159.76454406


--------------------------------------------------------------------------------------------------------




--------------------------------------- Iteration      1(   3)  ---------------------------------------


    --------------------------------------------
      INIT:  cpu time      0.2031: real time      0.2031
  FINALIZE:  cpu time     20.1055: real time     20.1366
    --------------------------------------------
    POTLOK:  cpu time     28.1781: real time     28.2337
    SETDIJ:  cpu time      0.3361: real time      0.3367
    EDDIAG:  cpu time     12.2263: real time     12.2518
  RMM-DIIS:  cpu time     71.7724: real time     71.9279
    ORTHCH:  cpu time      0.1957: real time      0.1962
       DOS:  cpu time      0.0004: real time      0.0004
    CHARGE:  cpu time      6.8543: real time      6.8688
    MIXING:  cpu time      0.1338: real time      0.1338
    --------------------------------------------
      LOOP:  cpu time    119.6971: real time    119.9492

 eigenvalue-minimisations  :   300
 total energy-change (2. order) :-0.2635323E+02  (-0.4104841E+01)
 number of electron      73.9999999 magnetization      23.3655433
 augmentation part        2.2544134 magnetization      23.2495056

 Broyden mixing:
  rms(total) = 0.10101E+01    rms(broyden)= 0.10100E+01
  rms(prec ) = 0.10193E+01
  weight for this iteration     100.00

 eigenvalues of (default mixing * dielectric matrix)
  average eigenvalue GAMMA=   1.1488
  0.7992  1.4985

 Free energy of the ion-electron system (eV)
  ---------------------------------------------------
  alpha Z        PSCENC =         0.39301700
  Ewald energy   TEWEN  =      8923.49529998
  -Hartree energ DENC   =    -10940.31700965
  -exchange      EXHF   =         0.00000000
  -V(xc)+E(xc)   XCENC  =       299.25290032
  PAW double counting   =      4603.61512337    -4638.07542241
  entropy T*S    EENTRO =        -0.00000000
  eigenvalues    EBANDS =     -1065.64975161
  atomic energy  EATOM  =      2642.27149654
  Solvation  Ecorr_sol  =       -11.10343169
  ---------------------------------------------------
  free energy    TOTEN  =      -186.11777816 eV

  energy without entropy =     -186.11777816  energy(sigma->0) =     -186.11777816


--------------------------------------------------------------------------------------------------------




--------------------------------------- Iteration      1(   4)  ---------------------------------------


    --------------------------------------------
      INIT:  cpu time      0.2036: real time      0.2036
  FINALIZE:  cpu time     20.1195: real time     20.1503
    --------------------------------------------
    POTLOK:  cpu time     28.1605: real time     28.2138
    SETDIJ:  cpu time      0.3365: real time      0.3372
    EDDIAG:  cpu time     12.2775: real time     12.3050
  RMM-DIIS:  cpu time     81.1802: real time     81.3554
    ORTHCH:  cpu time      0.1867: real time      0.1872
       DOS:  cpu time      0.0007: real time      0.0007
    CHARGE:  cpu time      6.8472: real time      6.8615
    MIXING:  cpu time      0.1398: real time      0.1398
    --------------------------------------------
      LOOP:  cpu time    129.1292: real time    129.4007

 eigenvalue-minimisations  :   343
 total energy-change (2. order) :-0.9022959E+01  (-0.2012615E+01)
 number of electron      73.9999999 magnetization      22.0998847
 augmentation part        2.2001136 magnetization      21.9993140

 Broyden mixing:
  rms(total) = 0.66422E+00    rms(broyden)= 0.66416E+00
  rms(prec ) = 0.66846E+00
  weight for this iteration     100.00

 eigenvalues of (default mixing * dielectric matrix)
  average eigenvalue GAMMA=   1.2325
  1.8787  1.1156  0.7032

 Free energy of the ion-electron system (eV)
  ---------------------------------------------------
  alpha Z        PSCENC =         0.39301700
  Ewald energy   TEWEN  =      8923.49529998
  -Hartree energ DENC   =    -11018.11978316
  -exchange      EXHF   =         0.00000000
  -V(xc)+E(xc)   XCENC  =       296.90977339
  PAW double counting   =      5905.42761111    -5940.02363287
  entropy T*S    EENTRO =        -0.00000000
  eigenvalues    EBANDS =      -990.29739291
  atomic energy  EATOM  =      2642.27149654
  Solvation  Ecorr_sol  =       -15.19712666
  ---------------------------------------------------
  free energy    TOTEN  =      -195.14073759 eV

  energy without entropy =     -195.14073759  energy(sigma->0) =     -195.14073759


--------------------------------------------------------------------------------------------------------




--------------------------------------- Iteration      1(   5)  ---------------------------------------


    --------------------------------------------
      INIT:  cpu time      0.2029: real time      0.2029
  FINALIZE:  cpu time     22.3913: real time     22.4260
    --------------------------------------------
    POTLOK:  cpu time     30.3907: real time     30.4503
    SETDIJ:  cpu time      0.3367: real time      0.3374
    EDDIAG:  cpu time     12.2404: real time     12.2666
  RMM-DIIS:  cpu time     89.1764: real time     89.3686
    ORTHCH:  cpu time      0.1907: real time      0.1912
       DOS:  cpu time      0.0009: real time      0.0009
    CHARGE:  cpu time      6.8509: real time      6.8646
    MIXING:  cpu time      0.1438: real time      0.1439
    --------------------------------------------
      LOOP:  cpu time    139.3305: real time    139.6235

 eigenvalue-minimisations  :   396
 total energy-change (2. order) :-0.3871680E+01  (-0.4904947E+00)
 number of electron      74.0000000 magnetization      20.0930294
 augmentation part        2.1841272 magnetization      20.0178550

 Broyden mixing:
  rms(total) = 0.45142E+00    rms(broyden)= 0.45139E+00
  rms(prec ) = 0.45413E+00
  weight for this iteration     100.00

 eigenvalues of (default mixing * dielectric matrix)
  average eigenvalue GAMMA=   1.4064
  2.3474  1.7324  0.8737  0.6721

 Free energy of the ion-electron system (eV)
  ---------------------------------------------------
  alpha Z        PSCENC =         0.39301700
  Ewald energy   TEWEN  =      8923.49529998
  -Hartree energ DENC   =    -11031.19193605
  -exchange      EXHF   =         0.00000000
  -V(xc)+E(xc)   XCENC  =       294.64193570
  PAW double counting   =      6433.59457410    -6467.96979611
  entropy T*S    EENTRO =        -0.00000000
  eigenvalues    EBANDS =      -978.51481641
  atomic energy  EATOM  =      2642.27149654
  Solvation  Ecorr_sol  =       -15.73219214
  ---------------------------------------------------
  free energy    TOTEN  =      -199.01241740 eV

  energy without entropy =     -199.01241740  energy(sigma->0) =     -199.01241740


--------------------------------------------------------------------------------------------------------




--------------------------------------- Iteration      1(   6)  ---------------------------------------


    --------------------------------------------
      INIT:  cpu time      0.2073: real time      0.2073
  FINALIZE:  cpu time     22.3323: real time     22.3661
    --------------------------------------------
    POTLOK:  cpu time     30.3539: real time     30.4102
    SETDIJ:  cpu time      0.3365: real time      0.3372
    EDDIAG:  cpu time     12.2636: real time     12.2916
  RMM-DIIS:  cpu time     87.2773: real time     87.4668
    ORTHCH:  cpu time      0.1903: real time      0.1909
       DOS:  cpu time      0.0010: real time      0.0010
    CHARGE:  cpu time      6.8702: real time      6.8850
    MIXING:  cpu time      0.1434: real time      0.1435
    --------------------------------------------
      LOOP:  cpu time    137.4361: real time    137.7260

 eigenvalue-minimisations  :   391
 total energy-change (2. order) :-0.3724615E+01  (-0.3231799E+00)
 number of electron      74.0000000 magnetization      19.1322002
 augmentation part        2.1836437 magnetization      19.0761308

 Broyden mixing:
  rms(total) = 0.26580E+00    rms(broyden)= 0.26579E+00
  rms(prec ) = 0.26684E+00
  weight for this iteration     100.00

 eigenvalues of (default mixing * dielectric matrix)
  average eigenvalue GAMMA=   1.4164
  2.8436  1.6895  1.1138  0.7806  0.6547

 Free energy of the ion-electron system (eV)
  ---------------------------------------------------
  alpha Z        PSCENC =         0.39301700
  Ewald energy   TEWEN  =      8923.49529998
  -Hartree energ DENC   =    -11037.58684307
  -exchange      EXHF   =         0.00000000
  -V(xc)+E(xc)   XCENC  =       291.84537108
  PAW double counting   =      6912.76273771    -6946.68069645
  entropy T*S    EENTRO =        -0.00000000
  eigenvalues    EBANDS =      -975.44965304
  atomic energy  EATOM  =      2642.27149654
  Solvation  Ecorr_sol  =       -13.78776231
  ---------------------------------------------------
  free energy    TOTEN  =      -202.73703258 eV

  energy without entropy =     -202.73703258  energy(sigma->0) =     -202.73703258


--------------------------------------------------------------------------------------------------------




--------------------------------------- Iteration      1(   7)  ---------------------------------------


    --------------------------------------------
      INIT:  cpu time      0.2106: real time      0.2106
  FINALIZE:  cpu time     23.4399: real time     23.4763
    --------------------------------------------
    POTLOK:  cpu time     31.5136: real time     31.5728
    SETDIJ:  cpu time      0.3357: real time      0.3364
    EDDIAG:  cpu time     12.3673: real time     12.3936
  RMM-DIIS:  cpu time     95.9860: real time     96.1924
    ORTHCH:  cpu time      0.1912: real time      0.1917
       DOS:  cpu time      0.0011: real time      0.0011
    CHARGE:  cpu time      6.8485: real time      6.8624
    MIXING:  cpu time      0.1357: real time      0.1358
    --------------------------------------------
      LOOP:  cpu time    147.3790: real time    147.6862

 eigenvalue-minimisations  :   436
 total energy-change (2. order) : 0.3977465E+00  (-0.1000105E+00)
 number of electron      74.0000000 magnetization      17.6063681
 augmentation part        2.1755134 magnetization      17.5588784

 Broyden mixing:
  rms(total) = 0.22486E+00    rms(broyden)= 0.22486E+00
  rms(prec ) = 0.22571E+00
  weight for this iteration     100.00

 eigenvalues of (default mixing * dielectric matrix)
  average eigenvalue GAMMA=   1.3488
  2.9231  1.7938  1.0110  1.0110  0.7081  0.6458

 Free energy of the ion-electron system (eV)
  ---------------------------------------------------
  alpha Z        PSCENC =         0.39301700
  Ewald energy   TEWEN  =      8923.49529998
  -Hartree energ DENC   =    -11045.72758511
  -exchange      EXHF   =         0.00000000
  -V(xc)+E(xc)   XCENC  =       292.71966087
  PAW double counting   =      6984.04761029    -7017.97648188
  entropy T*S    EENTRO =        -0.00000000
  eigenvalues    EBANDS =      -969.71081416
  atomic energy  EATOM  =      2642.27149654
  Solvation  Ecorr_sol  =       -11.85148956
  ---------------------------------------------------
  free energy    TOTEN  =      -202.33928605 eV

  energy without entropy =     -202.33928605  energy(sigma->0) =     -202.33928605


--------------------------------------------------------------------------------------------------------




--------------------------------------- Iteration      1(   8)  ---------------------------------------


    --------------------------------------------
      INIT:  cpu time      0.2040: real time      0.2042
  FINALIZE:  cpu time     22.3732: real time     22.4080
    --------------------------------------------
    POTLOK:  cpu time     30.4205: real time     30.4783
    SETDIJ:  cpu time      0.3356: real time      0.3363
    EDDIAG:  cpu time     12.2639: real time     12.2927
  RMM-DIIS:  cpu time     95.6453: real time     95.8510
    ORTHCH:  cpu time      0.1862: real time      0.1868
       DOS:  cpu time      0.0039: real time      0.0039
    CHARGE:  cpu time      6.8474: real time      6.8615
    MIXING:  cpu time      0.1379: real time      0.1379
    --------------------------------------------
      LOOP:  cpu time    145.8407: real time    146.1484

 eigenvalue-minimisations  :   432
 total energy-change (2. order) : 0.1982436E+01  (-0.7203683E-01)
 number of electron      74.0000000 magnetization      14.0269915
 augmentation part        2.1723334 magnetization      13.9869596

 Broyden mixing:
  rms(total) = 0.16995E+00    rms(broyden)= 0.16995E+00
  rms(prec ) = 0.17040E+00
  weight for this iteration     100.00

 eigenvalues of (default mixing * dielectric matrix)
  average eigenvalue GAMMA=   1.7441
  4.6312  2.5617  1.6817  1.1708  0.8273  0.7105  0.6252

 Free energy of the ion-electron system (eV)
  ---------------------------------------------------
  alpha Z        PSCENC =         0.39301700
  Ewald energy   TEWEN  =      8923.49529998
  -Hartree energ DENC   =    -11050.24285486
  -exchange      EXHF   =         0.00000000
  -V(xc)+E(xc)   XCENC  =       294.56760787
  PAW double counting   =      6915.06754439    -6948.99991414
  entropy T*S    EENTRO =        -0.00000000
  eigenvalues    EBANDS =      -968.42033081
  atomic energy  EATOM  =      2642.27149654
  Solvation  Ecorr_sol  =        -8.48871567
  ---------------------------------------------------
  free energy    TOTEN  =      -200.35684970 eV

  energy without entropy =     -200.35684970  energy(sigma->0) =     -200.35684970


--------------------------------------------------------------------------------------------------------




--------------------------------------- Iteration      1(   9)  ---------------------------------------


    --------------------------------------------
      INIT:  cpu time      0.2054: real time      0.2055
  FINALIZE:  cpu time     22.3704: real time     22.4076
    --------------------------------------------
    POTLOK:  cpu time     30.4252: real time     30.4856
    SETDIJ:  cpu time      0.3366: real time      0.3373
    EDDIAG:  cpu time     12.2614: real time     12.2888
  RMM-DIIS:  cpu time     96.0519: real time     96.2558
    ORTHCH:  cpu time      0.1874: real time      0.1879
       DOS:  cpu time      0.0022: real time      0.0022
    CHARGE:  cpu time      6.8449: real time      6.8593
    MIXING:  cpu time      0.1406: real time      0.1408
    --------------------------------------------
      LOOP:  cpu time    146.2502: real time    146.5574

 eigenvalue-minimisations  :   434
 total energy-change (2. order) : 0.2534749E+01  (-0.7919882E-01)
 number of electron      74.0000000 magnetization      13.2908530
 augmentation part        2.1722352 magnetization      13.2600333

 Broyden mixing:
  rms(total) = 0.97453E-01    rms(broyden)= 0.97449E-01
  rms(prec ) = 0.97987E-01
  weight for this iteration     100.00

 eigenvalues of (default mixing * dielectric matrix)
  average eigenvalue GAMMA=   1.7600
  5.7134  2.5563  1.7867  0.9488  0.9488  0.7468  0.7468  0.6323

 Free energy of the ion-electron system (eV)
  ---------------------------------------------------
  alpha Z        PSCENC =         0.39301700
  Ewald energy   TEWEN  =      8923.49529998
  -Hartree energ DENC   =    -11060.48087617
  -exchange      EXHF   =         0.00000000
  -V(xc)+E(xc)   XCENC  =       296.98804906
  PAW double counting   =      6838.11132813    -6872.02436153
  entropy T*S    EENTRO =        -0.00000000
  eigenvalues    EBANDS =      -965.18867619
  atomic energy  EATOM  =      2642.27149654
  Solvation  Ecorr_sol  =        -1.38737774
  ---------------------------------------------------
  free energy    TOTEN  =      -197.82210092 eV

  energy without entropy =     -197.82210092  energy(sigma->0) =     -197.82210092


--------------------------------------------------------------------------------------------------------




--------------------------------------- Iteration      1(  10)  ---------------------------------------


    --------------------------------------------
      INIT:  cpu time      0.2012: real time      0.2015
  FINALIZE:  cpu time     23.4195: real time     23.4570
    --------------------------------------------
    POTLOK:  cpu time     31.4500: real time     31.5224
    SETDIJ:  cpu time      0.3360: real time      0.3367
    EDDIAG:  cpu time     12.2558: real time     12.2830
  RMM-DIIS:  cpu time     95.6617: real time     95.8694
    ORTHCH:  cpu time      0.1948: real time      0.1952
       DOS:  cpu time      0.0034: real time      0.0034
    CHARGE:  cpu time      6.8441: real time      6.8586
    MIXING:  cpu time      0.1503: real time      0.1504
    --------------------------------------------
      LOOP:  cpu time    146.8962: real time    147.2192

 eigenvalue-minimisations  :   436
 total energy-change (2. order) : 0.5268304E+00  (-0.1647350E-01)
 number of electron      74.0000000 magnetization      11.9038133
 augmentation part        2.1703164 magnetization      11.8772508

 Broyden mixing:
  rms(total) = 0.79156E-01    rms(broyden)= 0.79155E-01
  rms(prec ) = 0.79518E-01
  weight for this iteration     100.00

 eigenvalues of (default mixing * dielectric matrix)
  average eigenvalue GAMMA=   1.7825
  6.5204  2.4911  1.5800  1.5800  0.9484  0.8096  0.7418  0.7418  0.6293

 Free energy of the ion-electron system (eV)
  ---------------------------------------------------
  alpha Z        PSCENC =         0.39301700
  Ewald energy   TEWEN  =      8923.49529998
  -Hartree energ DENC   =    -11062.88190695
  -exchange      EXHF   =         0.00000000
  -V(xc)+E(xc)   XCENC  =       297.61988768
  PAW double counting   =      6855.10279102    -6889.02394933
  entropy T*S    EENTRO =        -0.00000000
  eigenvalues    EBANDS =      -963.91232887
  atomic energy  EATOM  =      2642.27149654
  Solvation  Ecorr_sol  =        -0.35957753
  ---------------------------------------------------
  free energy    TOTEN  =      -197.29527047 eV

  energy without entropy =     -197.29527047  energy(sigma->0) =     -197.29527047


--------------------------------------------------------------------------------------------------------




--------------------------------------- Iteration      1(  11)  ---------------------------------------


    --------------------------------------------
      INIT:  cpu time      0.2035: real time      0.2036
  FINALIZE:  cpu time     20.1781: real time     20.2139
    --------------------------------------------
    POTLOK:  cpu time     28.2262: real time     28.2869
    SETDIJ:  cpu time      0.3360: real time      0.3367
    EDDIAG:  cpu time     12.2687: real time     12.2943
  RMM-DIIS:  cpu time     96.2682: real time     96.4726
    ORTHCH:  cpu time      0.1862: real time      0.1868
       DOS:  cpu time      0.0028: real time      0.0028
    CHARGE:  cpu time      6.8571: real time      6.8733
    MIXING:  cpu time      0.1508: real time      0.1509
    --------------------------------------------
      LOOP:  cpu time    144.2960: real time    144.6043

 eigenvalue-minimisations  :   436
 total energy-change (2. order) : 0.1435825E+01  (-0.6920017E-02)
 number of electron      74.0000000 magnetization      10.1732214
 augmentation part        2.1701421 magnetization      10.1501081

 Broyden mixing:
  rms(total) = 0.60197E-01    rms(broyden)= 0.60196E-01
  rms(prec ) = 0.60309E-01
  weight for this iteration     100.00

 eigenvalues of (default mixing * dielectric matrix)
  average eigenvalue GAMMA=   1.9592
  7.8689  2.7205  2.2236  1.9017  1.0325  1.0325  0.7568  0.7568  0.6323  0.6667

 Free energy of the ion-electron system (eV)
  ---------------------------------------------------
  alpha Z        PSCENC =         0.39301700
  Ewald energy   TEWEN  =      8923.49529998
  -Hartree energ DENC   =    -11063.84278291
  -exchange      EXHF   =         0.00000000
  -V(xc)+E(xc)   XCENC  =       299.03605502
  PAW double counting   =      6851.34063257    -6885.25878116
  entropy T*S    EENTRO =        -0.00000000
  eigenvalues    EBANDS =      -964.67147675
  atomic energy  EATOM  =      2642.27149654
  Solvation  Ecorr_sol  =         1.37709473
  ---------------------------------------------------
  free energy    TOTEN  =      -195.85944499 eV

  energy without entropy =     -195.85944499  energy(sigma->0) =     -195.85944499


--------------------------------------------------------------------------------------------------------




--------------------------------------- Iteration      1(  12)  ---------------------------------------


    --------------------------------------------
      INIT:  cpu time      0.2034: real time      0.2034
  FINALIZE:  cpu time     20.2194: real time     20.2513
    --------------------------------------------
    POTLOK:  cpu time     28.2679: real time     28.3235
    SETDIJ:  cpu time      0.3355: real time      0.3362
    EDDIAG:  cpu time     12.2385: real time     12.2660
  RMM-DIIS:  cpu time     95.7581: real time     95.9638
    ORTHCH:  cpu time      0.1911: real time      0.1915
       DOS:  cpu time      0.0004: real time      0.0004
    CHARGE:  cpu time      6.8159: real time      6.8301
    MIXING:  cpu time      0.1585: real time      0.1586
    --------------------------------------------
      LOOP:  cpu time    143.7658: real time    144.0702

 eigenvalue-minimisations  :   436
 total energy-change (2. order) : 0.1558668E+01  (-0.1210967E-01)
 number of electron      74.0000000 magnetization       9.3542276
 augmentation part        2.1687619 magnetization       9.3350728

 Broyden mixing:
  rms(total) = 0.46648E-01    rms(broyden)= 0.46647E-01
  rms(prec ) = 0.46801E-01
  weight for this iteration     100.00

 eigenvalues of (default mixing * dielectric matrix)
  average eigenvalue GAMMA=   1.9453
  8.4176  3.0913  2.2419  1.7788  1.1473  0.9738  0.9738  0.7504  0.7504  0.6373
  0.6356

 Free energy of the ion-electron system (eV)
  ---------------------------------------------------
  alpha Z        PSCENC =         0.39301700
  Ewald energy   TEWEN  =      8923.49529998
  -Hartree energ DENC   =    -11065.22846119
  -exchange      EXHF   =         0.00000000
  -V(xc)+E(xc)   XCENC  =       300.61106136
  PAW double counting   =      6829.28604134    -6863.22958197
  entropy T*S    EENTRO =        -0.00000000
  eigenvalues    EBANDS =      -965.22920331
  atomic energy  EATOM  =      2642.27149654
  Solvation  Ecorr_sol  =         3.32955319
  ---------------------------------------------------
  free energy    TOTEN  =      -194.30077707 eV

  energy without entropy =     -194.30077707  energy(sigma->0) =     -194.30077707


--------------------------------------------------------------------------------------------------------




--------------------------------------- Iteration      1(  13)  ---------------------------------------


    --------------------------------------------
      INIT:  cpu time      0.2041: real time      0.2044
  FINALIZE:  cpu time     21.2631: real time     21.2952
    --------------------------------------------
    POTLOK:  cpu time     29.2829: real time     29.3385
    SETDIJ:  cpu time      0.3364: real time      0.3370
    EDDIAG:  cpu time     12.2738: real time     12.3013
  RMM-DIIS:  cpu time     96.2035: real time     96.4085
    ORTHCH:  cpu time      0.1880: real time      0.1885
       DOS:  cpu time      0.0002: real time      0.0002
    CHARGE:  cpu time      6.8250: real time      6.8392
    MIXING:  cpu time      0.1620: real time      0.1621
    --------------------------------------------
      LOOP:  cpu time    145.2717: real time    145.5752

 eigenvalue-minimisations  :   436
 total energy-change (2. order) : 0.6718334E+00  (-0.3425892E-02)
 number of electron      74.0000000 magnetization       7.3832698
 augmentation part        2.1693629 magnetization       7.3666188

 Broyden mixing:
  rms(total) = 0.41334E-01    rms(broyden)= 0.41333E-01
  rms(prec ) = 0.41415E-01
  weight for this iteration     100.00

 eigenvalues of (default mixing * dielectric matrix)
  average eigenvalue GAMMA=   2.0035
  8.8275  3.2976  2.4089  1.8961  1.8961  1.1822  1.0113  0.7461  0.7461  0.7702
  0.6299  0.6299

 Free energy of the ion-electron system (eV)
  ---------------------------------------------------
  alpha Z        PSCENC =         0.39301700
  Ewald energy   TEWEN  =      8923.49529998
  -Hartree energ DENC   =    -11065.07458172
  -exchange      EXHF   =         0.00000000
  -V(xc)+E(xc)   XCENC  =       301.27622179
  PAW double counting   =      6832.76630802    -6866.71050926
  entropy T*S    EENTRO =        -0.00000000
  eigenvalues    EBANDS =      -965.70986996
  atomic energy  EATOM  =      2642.27149654
  Solvation  Ecorr_sol  =         3.66367398
  ---------------------------------------------------
  free energy    TOTEN  =      -193.62894363 eV

  energy without entropy =     -193.62894363  energy(sigma->0) =     -193.62894363


--------------------------------------------------------------------------------------------------------




--------------------------------------- Iteration      1(  14)  ---------------------------------------


    --------------------------------------------
      INIT:  cpu time      0.2029: real time      0.2031
  FINALIZE:  cpu time     22.3424: real time     22.3776
    --------------------------------------------
    POTLOK:  cpu time     30.3715: real time     30.4298
    SETDIJ:  cpu time      0.3365: real time      0.3372
    EDDIAG:  cpu time     12.2351: real time     12.2614
  RMM-DIIS:  cpu time     95.7097: real time     95.9148
    ORTHCH:  cpu time      0.1966: real time      0.1971
       DOS:  cpu time      0.0023: real time      0.0023
    CHARGE:  cpu time      6.8258: real time      6.8400
    MIXING:  cpu time      0.1657: real time      0.1658
    --------------------------------------------
      LOOP:  cpu time    145.8431: real time    146.1483

 eigenvalue-minimisations  :   436
 total energy-change (2. order) : 0.1539078E+01  ( 0.5921363E-02)
 number of electron      74.0000000 magnetization       6.5247115
 augmentation part        2.1690217 magnetization       6.5103546

 Broyden mixing:
  rms(total) = 0.32659E-01    rms(broyden)= 0.32658E-01
  rms(prec ) = 0.32726E-01
  weight for this iteration     100.00

 eigenvalues of (default mixing * dielectric matrix)
  average eigenvalue GAMMA=   2.0884
  9.5954  4.6131  2.5309  1.9609  1.9609  1.0721  1.0721  0.9837  0.7147  0.7147
  0.7056  0.6127  0.6127

 Free energy of the ion-electron system (eV)
  ---------------------------------------------------
  alpha Z        PSCENC =         0.39301700
  Ewald energy   TEWEN  =      8923.49529998
  -Hartree energ DENC   =    -11064.17665671
  -exchange      EXHF   =         0.00000000
  -V(xc)+E(xc)   XCENC  =       302.78354960
  PAW double counting   =      6852.99888254    -6886.93604354
  entropy T*S    EENTRO =        -0.00000000
  eigenvalues    EBANDS =      -966.99441595
  atomic energy  EATOM  =      2642.27149654
  Solvation  Ecorr_sol  =         4.07500490
  ---------------------------------------------------
  free energy    TOTEN  =      -192.08986564 eV

  energy without entropy =     -192.08986564  energy(sigma->0) =     -192.08986564


--------------------------------------------------------------------------------------------------------




--------------------------------------- Iteration      1(  15)  ---------------------------------------


    --------------------------------------------
      INIT:  cpu time      0.2031: real time      0.2032
  FINALIZE:  cpu time     21.2619: real time     21.3017
    --------------------------------------------
    POTLOK:  cpu time     29.3140: real time     29.3770
    SETDIJ:  cpu time      0.3353: real time      0.3360
    EDDIAG:  cpu time     12.2432: real time     12.2715
  RMM-DIIS:  cpu time     96.2556: real time     96.4662
    ORTHCH:  cpu time      0.1863: real time      0.1868
       DOS:  cpu time      0.0026: real time      0.0027
    CHARGE:  cpu time      6.8249: real time      6.8392
    MIXING:  cpu time      0.1775: real time      0.1777
    --------------------------------------------
      LOOP:  cpu time    145.3394: real time    145.6571

 eigenvalue-minimisations  :   436
 total energy-change (2. order) : 0.5073002E+00  (-0.1756814E-02)
 number of electron      74.0000000 magnetization       5.6439999
 augmentation part        2.1676312 magnetization       5.6308132

 Broyden mixing:
  rms(total) = 0.28427E-01    rms(broyden)= 0.28427E-01
  rms(prec ) = 0.28510E-01
  weight for this iteration     100.00

 eigenvalues of (default mixing * dielectric matrix)
  average eigenvalue GAMMA=   2.1057
 10.1839  5.2991  2.5925  2.1555  1.4989  1.4989  1.1612  0.8522  0.8522  0.7471
  0.7215  0.6606  0.6280  0.6280

 Free energy of the ion-electron system (eV)
  ---------------------------------------------------
  alpha Z        PSCENC =         0.39301700
  Ewald energy   TEWEN  =      8923.49529998
  -Hartree energ DENC   =    -11063.80654838
  -exchange      EXHF   =         0.00000000
  -V(xc)+E(xc)   XCENC  =       303.27332820
  PAW double counting   =      6850.66957469    -6884.60906096
  entropy T*S    EENTRO =        -0.00000000
  eigenvalues    EBANDS =      -967.51353222
  atomic energy  EATOM  =      2642.27149654
  Solvation  Ecorr_sol  =         4.24385973
  ---------------------------------------------------
  free energy    TOTEN  =      -191.58256542 eV

  energy without entropy =     -191.58256542  energy(sigma->0) =     -191.58256542


--------------------------------------------------------------------------------------------------------




--------------------------------------- Iteration      1(  16)  ---------------------------------------


    --------------------------------------------
      INIT:  cpu time      0.2030: real time      0.2032
  FINALIZE:  cpu time     20.1692: real time     20.2031
    --------------------------------------------
    POTLOK:  cpu time     28.1972: real time     28.2539
    SETDIJ:  cpu time      0.3363: real time      0.3370
    EDDIAG:  cpu time     12.3005: real time     12.3280
  RMM-DIIS:  cpu time     96.0277: real time     96.2347
    ORTHCH:  cpu time      0.1910: real time      0.1915
       DOS:  cpu time      0.0006: real time      0.0006
    CHARGE:  cpu time      6.8355: real time      6.8498
    MIXING:  cpu time      0.1813: real time      0.1815
    --------------------------------------------
      LOOP:  cpu time    144.0701: real time    144.3769

 eigenvalue-minimisations  :   436
 total energy-change (2. order) : 0.5536151E+00  (-0.8039470E-03)
 number of electron      74.0000000 magnetization       3.2814295
 augmentation part        2.1675229 magnetization       3.2694281

 Broyden mixing:
  rms(total) = 0.24640E-01    rms(broyden)= 0.24639E-01
  rms(prec ) = 0.24663E-01
  weight for this iteration     100.00

 eigenvalues of (default mixing * dielectric matrix)
  average eigenvalue GAMMA=   2.2248
 10.8792  6.0404  2.9618  2.5648  1.7371  1.7371  1.1774  1.1774  0.9707  0.7301
  0.7301  0.7202  0.6884  0.6286  0.6286

 Free energy of the ion-electron system (eV)
  ---------------------------------------------------
  alpha Z        PSCENC =         0.39301700
  Ewald energy   TEWEN  =      8923.49529998
  -Hartree energ DENC   =    -11062.61359701
  -exchange      EXHF   =         0.00000000
  -V(xc)+E(xc)   XCENC  =       303.77645888
  PAW double counting   =      6849.57002862    -6883.49699226
  entropy T*S    EENTRO =        -0.00000000
  eigenvalues    EBANDS =      -968.56898352
  atomic energy  EATOM  =      2642.27149654
  Solvation  Ecorr_sol  =         4.14432146
  ---------------------------------------------------
  free energy    TOTEN  =      -191.02895032 eV

  energy without entropy =     -191.02895032  energy(sigma->0) =     -191.02895032


--------------------------------------------------------------------------------------------------------




--------------------------------------- Iteration      1(  17)  ---------------------------------------


    --------------------------------------------
      INIT:  cpu time      0.2013: real time      0.2013
  FINALIZE:  cpu time     20.1812: real time     20.2128
    --------------------------------------------
    POTLOK:  cpu time     28.2613: real time     28.3162
    SETDIJ:  cpu time      0.3337: real time      0.3343
    EDDIAG:  cpu time     12.2997: real time     12.3260
  RMM-DIIS:  cpu time     96.0923: real time     96.3014
    ORTHCH:  cpu time      0.1897: real time      0.1903
       DOS:  cpu time      0.0004: real time      0.0004
    CHARGE:  cpu time      6.8533: real time      6.8672
    MIXING:  cpu time      0.1944: real time      0.1946
    --------------------------------------------
      LOOP:  cpu time    144.2248: real time    144.5305

 eigenvalue-minimisations  :   436
 total energy-change (2. order) : 0.1446815E+01  ( 0.2349130E-02)
 number of electron      74.0000000 magnetization       2.3727690
 augmentation part        2.1676325 magnetization       2.3621415

 Broyden mixing:
  rms(total) = 0.20414E-01    rms(broyden)= 0.20413E-01
  rms(prec ) = 0.20539E-01
  weight for this iteration     100.00

 eigenvalues of (default mixing * dielectric matrix)
  average eigenvalue GAMMA=   2.2696
 11.6221  6.7879  3.3488  2.5949  1.6924  1.6924  1.5438  1.1353  0.9249  0.9249
  0.6873  0.6873  0.7134  0.7134  0.6228  0.6228

 Free energy of the ion-electron system (eV)
  ---------------------------------------------------
  alpha Z        PSCENC =         0.39301700
  Ewald energy   TEWEN  =      8923.49529998
  -Hartree energ DENC   =    -11060.15985275
  -exchange      EXHF   =         0.00000000
  -V(xc)+E(xc)   XCENC  =       305.13169452
  PAW double counting   =      6850.96412392    -6884.87040129
  entropy T*S    EENTRO =        -0.00000000
  eigenvalues    EBANDS =      -970.37090870
  atomic energy  EATOM  =      2642.27149654
  Solvation  Ecorr_sol  =         3.56339579
  ---------------------------------------------------
  free energy    TOTEN  =      -189.58213500 eV

[...]
      1     -27.3543      1.00000
      2     -23.1282      1.00000
      3     -22.5026      1.00000
      4     -20.8168      1.00000
      5     -19.9451      1.00000
      6     -19.6795      1.00000
      7     -19.5694      1.00000
      8     -18.8812      1.00000
      9     -16.7686      1.00000
     10     -16.2742      1.00000
     11     -15.5030      1.00000
     12     -15.3402      1.00000
     13     -14.3874      1.00000
     14     -13.6963      1.00000
     15     -12.6749      1.00000
     16     -12.2555      1.00000
     17     -12.0129      1.00000
     18     -11.4461      1.00000
     19     -11.4243      1.00000
     20     -11.3637      1.00000
     21     -11.1997      1.00000
     22     -10.9746      1.00000
     23     -10.7228      1.00000
     24     -10.5345      1.00000
     25     -10.0510      1.00000
     26      -9.9569      1.00000
     27      -9.5485      1.00000
     28      -9.4227      1.00000
     29      -9.0198      1.00000
     30      -8.8916      1.00000
     31      -8.6451      1.00000
     32      -8.4401      1.00000
     33      -7.3580      1.00000
     34      -6.8649      1.00000
     35      -6.7027      1.00000
     36      -6.1150      1.00000
     37      -6.0697      1.00000
     38      -2.6780      0.00000
     39      -1.3508      0.00000
     40      -1.1645      0.00000
     41      -1.1559      0.00000
     42      -0.0962      0.00000
     43       0.0307      0.00000
     44       0.0821      0.00000
     45       0.1021      0.00000
     46       0.1042      0.00000
     47       0.1089      0.00000
     48       0.1097      0.00000
     49       0.1473      0.00000
     50       0.1540      0.00000
     51       0.1805      0.00000
     52       0.1881      0.00000
     53       0.1997      0.00000
     54       0.2001      0.00000
     55       0.2011      0.00000
     56       0.2023      0.00000
     57       0.2034      0.00000
     58       0.2035      0.00000
     59       0.2035      0.00000
     60       0.2040      0.00000
     61       0.2563      0.00000
     62       0.2642      0.00000
     63       0.2722      0.00000
     64       0.2837      0.00000
     65       0.2916      0.00000
     66       0.2931      0.00000
     67       0.2946      0.00000
     68       0.2954      0.00000
     69       0.2978      0.00000
     70       0.3571      0.00000
     71       0.3722      0.00000
     72       0.3778      0.00000
 Fermi energy:        -5.7530993260

 spin component 2

 k-point     1 :       0.0000    0.0000    0.0000
  band No.  band energies     occupation 
      1     -27.3543      1.00000
      2     -23.1282      1.00000
      3     -22.5026      1.00000
      4     -20.8168      1.00000
      5     -19.9451      1.00000
      6     -19.6795      1.00000
      7     -19.5694      1.00000
      8     -18.8812      1.00000
      9     -16.7686      1.00000
     10     -16.2742      1.00000
     11     -15.5030      1.00000
     12     -15.3402      1.00000
     13     -14.3874      1.00000
     14     -13.6963      1.00000
     15     -12.6749      1.00000
     16     -12.2555      1.00000
     17     -12.0129      1.00000
     18     -11.4461      1.00000
     19     -11.4243      1.00000
     20     -11.3637      1.00000
     21     -11.1997      1.00000
     22     -10.9746      1.00000
     23     -10.7228      1.00000
     24     -10.5345      1.00000
     25     -10.0510      1.00000
     26      -9.9569      1.00000
     27      -9.5485      1.00000
     28      -9.4227      1.00000
     29      -9.0198      1.00000
     30      -8.8916      1.00000
     31      -8.6451      1.00000
     32      -8.4401      1.00000
     33      -7.3580      1.00000
     34      -6.8649      1.00000
     35      -6.7027      1.00000
     36      -6.1150      1.00000
     37      -6.0697      1.00000
     38      -2.6780      0.00000
     39      -1.3508      0.00000
     40      -1.1645      0.00000
     41      -1.1559      0.00000
     42      -0.0961      0.00000
     43       0.0318      0.00000
     44       0.0826      0.00000
     45       0.1030      0.00000
     46       0.1051      0.00000
     47       0.1098      0.00000
     48       0.1106      0.00000
     49       0.1485      0.00000
     50       0.1549      0.00000
     51       0.1814      0.00000
     52       0.1890      0.00000
     53       0.2007      0.00000
     54       0.2012      0.00000
     55       0.2022      0.00000
     56       0.2031      0.00000
     57       0.2043      0.00000
     58       0.2044      0.00000
     59       0.2045      0.00000
     60       0.2049      0.00000
     61       0.2568      0.00000
     62       0.2653      0.00000
     63       0.2731      0.00000
     64       0.2847      0.00000
     65       0.2926      0.00000
     66       0.2941      0.00000
     67       0.2958      0.00000
     68       0.2964      0.00000
     69       0.2986      0.00000
     70       0.3577      0.00000
     71       0.3716      0.00000
     72       0.3788      0.00000


--------------------------------------------------------------------------------------------------------


 soft charge-density along one line, spin component           1
         0         1         2         3         4         5         6         7         8         9
 total charge-density along one line
 
 soft charge-density along one line, spin component           2
         0         1         2         3         4         5         6         7         8         9
 total charge-density along one line
 
 pseudopotential strength for first ion, spin component:           1
 10.468  13.919  -0.001   0.000  -0.001   0.004  -0.001  -0.001
 13.919  18.508  -0.001   0.000  -0.001   0.005  -0.001  -0.001
 -0.001  -0.001  -4.380   0.015  -0.001   8.497  -0.023   0.002
  0.000   0.000   0.015  -4.323   0.000  -0.023   8.412  -0.000
 -0.001  -0.001  -0.001   0.000  -4.390   0.002  -0.000   8.513
  0.004   0.005   8.497  -0.023   0.002 -18.752   0.030  -0.003
 -0.001  -0.001  -0.023   8.412  -0.000   0.030 -18.640   0.000
 -0.001  -0.001   0.002  -0.000   8.513  -0.003   0.000 -18.775
 pseudopotential strength for first ion, spin component:           2
 10.468  13.919  -0.001   0.000  -0.001   0.004  -0.001  -0.001
 13.919  18.508  -0.001   0.000  -0.001   0.005  -0.001  -0.001
 -0.001  -0.001  -4.380   0.015  -0.001   8.497  -0.023   0.002
  0.000   0.000   0.015  -4.323   0.000  -0.023   8.412  -0.000
 -0.001  -0.001  -0.001   0.000  -4.390   0.002  -0.000   8.513
  0.004   0.005   8.497  -0.023   0.002 -18.752   0.030  -0.003
 -0.001  -0.001  -0.023   8.412  -0.000   0.030 -18.640   0.000
 -0.001  -0.001   0.002  -0.000   8.513  -0.003   0.000 -18.775
 total augmentation occupancy for first ion, spin component:           1
  8.785  -3.951  -0.221   0.049   0.163  -0.045   0.010   0.031
 -3.951   1.820   0.153  -0.034  -0.106   0.028  -0.006  -0.018
 -0.221   0.153   1.778  -0.162   0.027   0.163  -0.021   0.008
  0.049  -0.034  -0.162   1.163  -0.003  -0.021   0.081  -0.001
  0.163  -0.106   0.027  -0.003   1.894   0.008  -0.001   0.183
 -0.045   0.028   0.163  -0.021   0.008   0.016  -0.003   0.001
  0.010  -0.006  -0.021   0.081  -0.001  -0.003   0.006  -0.000
  0.031  -0.018   0.008  -0.001   0.183   0.001  -0.000   0.019
 total augmentation occupancy for first ion, spin component:           2
 -0.000   0.000   0.000   0.000  -0.000   0.000   0.000  -0.000
  0.000  -0.000  -0.000  -0.000  -0.000  -0.000  -0.000   0.000
  0.000  -0.000  -0.000  -0.000  -0.000   0.000  -0.000  -0.000
  0.000  -0.000  -0.000  -0.000  -0.000  -0.000  -0.000  -0.000
 -0.000  -0.000  -0.000  -0.000   0.000   0.000   0.000  -0.000
  0.000  -0.000   0.000  -0.000   0.000   0.000  -0.000   0.000
  0.000  -0.000  -0.000  -0.000   0.000  -0.000   0.000   0.000
 -0.000   0.000  -0.000  -0.000  -0.000   0.000   0.000  -0.000


------------------------ aborting loop because EDIFF is reached ----------------------------------------


    CHARGE:  cpu time      1.4391: real time      1.4421
    FORLOC:  cpu time      0.3499: real time      0.3504
    FORNL :  cpu time      4.6823: real time      4.6936
    STRESS:  cpu time    120.1052: real time    120.3539
    FORCOR:  cpu time      6.3040: real time      6.3170
    FORHAR:  cpu time      0.7635: real time      0.7647
    MIXING:  cpu time      0.0980: real time      0.0982
    OFIELD:  cpu time      0.0000: real time      0.0000

 ---------------------------------------------------------------------------------------------

         DFTD3 V3.0 Rev 1        
 Edisp (eV)   -0.27881

 E6    (eV) :    -0.2178
 E8    (eV) :    -0.0610
 % E8        : 21.89
    FORVDW:  cpu time      0.0061: real time      0.0061

  FORCE on cell =-STRESS in cart. coord.  units (eV):
  Direction    XX          YY          ZZ          XY          YZ          ZX
  --------------------------------------------------------------------------------------
  Alpha Z     0.39302     0.39302     0.39302
  Ewald    6543.69560  2811.92244  -426.91294   -19.08913    22.81109   -10.29236
  Hartree  6618.65151  3256.35201  1186.52299    21.68760    -1.33569   -17.34310
  E(xc)    -277.49249  -278.57823  -282.00119     0.18210    -0.08600    -0.05775
  Local  -13881.63242 -6777.95187 -1568.90658   -17.26900   -15.84587    31.15276
  n-local  -100.53366  -101.19492   -88.99617     0.58591     0.80675    -0.09444
  augment     2.64216     1.52486     1.91413     0.88660    -0.12946    -0.22411
  Kinetic  1094.31184  1087.32032  1177.67280    12.99824    -6.20292    -3.14110
  Fock        0.00000     0.00000     0.00000     0.00000     0.00000     0.00000
  vdW        -0.17240    -0.03802    -0.00530    -0.00729     0.00001     0.00221
  -------------------------------------------------------------------------------------
  Total      -0.13686    -0.25039    -0.31924    -0.02496     0.01789     0.00210
  in kB      -0.00343    -0.00627    -0.00799    -0.00062     0.00045     0.00005
  external pressure =       -0.01 kB  Pullay stress =        0.00 kB


 VOLUME and BASIS-vectors are now :
 -----------------------------------------------------------------------------
  energy-cutoff  :      500.00
  volume of cell :    64000.00
      direct lattice vectors                 reciprocal lattice vectors
    40.000000000  0.000000000  0.000000000     0.025000000  0.000000000  0.000000000
     0.000000000 40.000000000  0.000000000     0.000000000  0.025000000  0.000000000
     0.000000000  0.000000000 40.000000000     0.000000000  0.000000000  0.025000000

  length of vectors
    40.000000000 40.000000000 40.000000000     0.025000000  0.025000000  0.025000000


 FORCES acting on ions
    electron-ion (+dipol)            ewald-force                    non-local-force                 convergence-correction
 -----------------------------------------------------------------------------------------------
   0.611E+02 -.189E+03 0.470E+02   -.619E+02 0.191E+03 -.473E+02   0.714E+00 -.148E+01 0.301E+00   -.373E-02 -.458E-03 -.943E-03
   0.745E+02 0.512E+01 -.643E+00   -.750E+02 -.485E+01 0.579E+00   0.497E+00 -.273E+00 0.639E-01   -.526E-02 0.372E-03 0.357E-03
   0.666E+02 0.186E+03 -.453E+02   -.670E+02 -.186E+03 0.454E+02   0.411E+00 0.825E+00 -.142E+00   -.589E-02 -.198E-02 0.252E-02
   -.310E+02 0.189E+03 -.491E+02   0.315E+02 -.190E+03 0.493E+02   -.552E+00 0.105E+01 -.266E+00   0.388E-02 -.372E-02 0.173E-02
   -.361E+02 -.246E+00 0.182E+00   0.361E+02 0.289E+00 -.193E+00   -.884E-01 -.399E-01 0.115E-01   0.199E-02 -.266E-02 0.402E-03
   -.339E+02 -.189E+03 0.498E+02   0.344E+02 0.190E+03 -.501E+02   -.450E+00 -.107E+01 0.274E+00   -.206E-02 -.202E-03 -.739E-03
   -.196E+02 0.300E+00 -.378E+00   0.199E+02 -.300E+00 0.381E+00   -.332E+00 -.128E-02 0.114E-02   0.265E-03 -.808E-03 -.152E-02
   -.272E+02 0.172E+03 0.780E+02   0.269E+02 -.173E+03 -.783E+02   0.243E+00 0.930E+00 0.322E+00   -.204E-02 -.980E-03 -.322E-02
   -.158E+03 0.157E+03 0.686E+02   0.159E+03 -.158E+03 -.689E+02   -.604E+00 0.732E+00 0.270E+00   0.574E-02 -.918E-03 -.360E-02
   -.238E+03 0.690E+00 0.384E+00   0.239E+03 -.689E+00 -.386E+00   -.102E+01 -.292E-02 0.529E-02   0.537E-02 -.402E-03 -.151E-02
   -.160E+03 -.156E+03 -.686E+02   0.160E+03 0.157E+03 0.688E+02   -.607E+00 -.731E+00 -.266E+00   0.356E-02 0.302E-02 0.168E-02
   -.285E+02 -.172E+03 -.783E+02   0.283E+02 0.172E+03 0.786E+02   0.244E+00 -.942E+00 -.304E+00   0.475E-03 0.347E-02 0.868E-03
   0.803E+02 0.736E+02 -.180E+02   -.782E+02 -.785E+02 0.191E+02   -.211E+01 0.484E+01 -.117E+01   -.639E-04 -.692E-03 0.514E-03
   0.164E+03 0.138E+03 -.348E+02   -.166E+03 -.137E+03 0.347E+02   0.113E+01 -.282E+00 0.638E-01   -.376E-02 -.643E-02 0.162E-02
   0.297E+03 -.297E+03 0.714E+02   -.323E+03 0.343E+03 -.823E+02   0.262E+02 -.454E+02 0.109E+02   -.124E-01 0.588E-04 0.147E-02
   -.248E+02 -.852E+02 0.252E+02   0.278E+02 0.903E+02 -.266E+02   -.299E+01 -.507E+01 0.138E+01   0.261E-03 0.151E-02 -.478E-03
   0.122E+02 -.784E+02 -.385E+02   -.151E+02 0.832E+02 0.407E+02   0.293E+01 -.478E+01 -.220E+01   0.496E-03 0.587E-03 0.159E-03
   -.533E+02 -.681E+02 -.304E+02   0.563E+02 0.729E+02 0.325E+02   -.301E+01 -.479E+01 -.212E+01   0.263E-03 -.117E-04 0.218E-03
   -.913E+02 0.262E+00 0.208E+00   0.974E+02 -.280E+00 -.223E+00   -.604E+01 0.176E-01 0.156E-01   -.125E-03 0.875E-05 -.160E-03
   -.528E+02 0.684E+02 0.306E+02   0.558E+02 -.732E+02 -.327E+02   -.298E+01 0.480E+01 0.214E+01   0.425E-03 0.312E-03 -.424E-03
   0.128E+02 0.782E+02 0.385E+02   -.158E+02 -.830E+02 -.407E+02   0.297E+01 0.476E+01 0.221E+01   0.447E-04 -.256E-03 -.425E-03
   -.240E+02 0.854E+02 -.250E+02   0.269E+02 -.905E+02 0.264E+02   -.293E+01 0.511E+01 -.137E+01   -.520E-05 -.619E-03 0.211E-03
   0.306E+02 0.840E+02 -.213E+02   -.335E+02 -.892E+02 0.226E+02   0.293E+01 0.515E+01 -.131E+01   -.977E-03 -.871E-03 0.666E-03
   0.888E+02 0.904E+01 -.281E+01   -.946E+02 -.784E+01 0.256E+01   0.580E+01 -.120E+01 0.254E+00   -.452E-03 -.375E-03 0.899E-04
   0.199E+02 0.694E+02 0.414E+02   -.187E+02 -.735E+02 -.451E+02   -.118E+01 0.420E+01 0.372E+01   -.888E-03 -.419E-03 0.511E-03
   0.191E+02 0.424E+02 -.690E+02   -.179E+02 -.444E+02 0.742E+02   -.125E+01 0.201E+01 -.523E+01   -.864E-03 -.608E-03 -.237E-03
   0.308E+02 -.858E+02 0.217E+02   -.340E+02 0.909E+02 -.230E+02   0.319E+01 -.508E+01 0.128E+01   -.106E-03 0.424E-03 -.323E-03
 -----------------------------------------------------------------------------------------------
   -.211E+02 0.367E+02 -.881E+01   0.135E-12 0.298E-12 -.320E-13   0.211E+02 -.367E+02 0.883E+01   -.159E-01 -.126E-01 -.566E-03
 
 
 POSITION                                       TOTAL-FORCE (eV/Angst)
 -----------------------------------------------------------------------------------
     18.27534     21.35243     19.67358        -0.007607      0.001047      0.001538
     17.55159     20.18728     19.95600         0.005203     -0.001173      0.000123
     18.25722     19.01202     20.23653        -0.007408      0.003978     -0.005038
     19.64346     19.00225     20.23293         0.008105      0.004006     -0.001358
     20.37089     20.16716     19.95621        -0.005669      0.000622      0.000072
     19.65734     21.34407     19.67729         0.002317      0.002349     -0.000543
     21.84478     20.15957     19.95705        -0.003693     -0.001254      0.001820
     22.55765     19.05029     19.48458        -0.010226     -0.005322      0.003330
     23.94633     19.04880     19.47894         0.005088     -0.007593      0.001321
     24.65083     20.15123     19.95297        -0.001834     -0.002290      0.001870
     23.95507     21.25782     20.43029         0.002448      0.004181      0.000217
     22.56632     21.26449     20.42781        -0.006531     -0.001673      0.001438
     16.06500     20.24363     19.95110         0.010051     -0.004902      0.000040
     15.29090     18.98805     20.26410        -0.003131     -0.001967     -0.000152
     15.47897     21.29232     19.69867         0.001401      0.006277     -0.002475
     20.19819     22.25155     19.43488         0.017699      0.003532     -0.002102
     22.03376     22.12377     20.81988        -0.006383     -0.000537      0.002589
     24.49522     22.11681     20.81151         0.002526      0.005031     -0.001961
     25.73453     20.14799     19.95021         0.005389     -0.000360      0.000237
     24.48013     18.18737     19.09439         0.003707     -0.007213      0.003016
     22.01863     18.19554     19.09156        -0.006134     -0.003733     -0.001636
     20.17158     18.08718     20.47507         0.004990     -0.000895      0.001452
     17.72682     18.09654     20.46972        -0.003981      0.001931     -0.005845
     14.22680     19.20712     20.21791         0.001652     -0.004552      0.001259
     15.53201     18.19426     19.55194         0.003363      0.007859      0.004282
     15.54418     18.61226     21.25900         0.004048      0.004309     -0.006327
     17.72644     22.25823     19.44592        -0.015391     -0.001656      0.002832
 -----------------------------------------------------------------------------------
    total drift:                               -0.001568     -0.007191      0.018205


--------------------------------------------------------------------------------------------------------



  FREE ENERGIE OF THE ION-ELECTRON SYSTEM (eV)
  ---------------------------------------------------
  free  energy   TOTEN  =      -188.29355500 eV

  energy  without entropy=     -188.29355500  energy(sigma->0) =     -188.29355500
 
 d Force = 0.4433039E-04[ 0.169E-04, 0.718E-04]  d Energy = 0.4573897E-04-0.141E-05
 d Force =-0.2965561E+00[-0.297E+00,-0.297E+00]  d Ewald  =-0.2965561E+00 0.186E-08


--------------------------------------------------------------------------------------------------------


    --------------------------------------------
      INIT:  cpu time      0.1980: real time      0.1982
  FINALIZE:  cpu time     22.4295: real time     22.4745
    --------------------------------------------
    POTLOK:  cpu time     31.0373: real time     31.0998


--------------------------------------------------------------------------------------------------------


 Conjugate gradient step on ions:
 trial-energy change:   -0.000046  1 .order   -0.000044   -0.000072   -0.000017
  (g-gl).g = 0.191E-03      g.g   = 0.206E-03  gl.gl    = 0.113E-02
 g(Force)  = 0.206E-03   g(Stress)= 0.000E+00 ortho     =-0.113E-04
 gamma     =   0.16940
 trial     =   0.35128
 opt step  =   0.45906  (harmonic =   0.45906) maximal distance =0.00039696
 next E    =  -188.293556   (d E  =  -0.00005)


--------------------------------------------------------------------------------------------------------


  
 reached required accuracy - stopping structural energy minimisation
 writing wavefunctions
     LOOP+:  cpu time    391.8301: real time    393.2039
    4ORBIT:  cpu time      0.0000: real time      0.0000

 total amount of memory used by VASP MPI-rank0   908374. kBytes
=======================================================================

   base      :      30000. kBytes
   nonlr-proj:       1695. kBytes
   fftplans  :     167689. kBytes
   grid      :     662171. kBytes
   one-center:         18. kBytes
   wavefun   :      46801. kBytes
 
  
  
 General timing and accounting informations for this job:
 ========================================================
  
                  Total CPU time used (sec):    12111.382
                            User time (sec):    11533.283
                          System time (sec):      578.098
                         Elapsed time (sec):    12138.015
  
                   Maximum memory used (kb):     2552492.
                   Average memory used (kb):          N/A
  
                          Minor page faults:    116290655
                          Major page faults:            8
                 Voluntary context switches:       175782
