
                                 *****************
                                 * O   R   C   A *
                                 *****************

                                            #,                                       
                                            ###                                      
                                            ####                                     
                                            #####                                    
                                            ######                                   
                                           ########,                                 
                                     ,,################,,,,,                         
                               ,,#################################,,                 
                          ,,##########################################,,             
                       ,#########################################, ''#####,          
                    ,#############################################,,   '####,        
                  ,##################################################,,,,####,       
                ,###########''''           ''''###############################       
              ,#####''   ,,,,##########,,,,          '''####'''          '####       
            ,##' ,,,,###########################,,,                        '##       
           ' ,,###''''                  '''############,,,                           
         ,,##''                                '''############,,,,        ,,,,,,###''
      ,#''                                            '''#######################'''  
     '                                                          ''''####''''         
             ,#######,   #######,   ,#######,      ##                                
            ,#'     '#,  ##    ##  ,#'     '#,    #''#        ,####,   ,####,        
            ##       ##  ##   ,#'  ##            #'  '#       #'       #'  '#        
            ##       ##  #######   ##           ,######,      #####,   #    #        
            '#,     ,#'  ##    ##  '#,     ,#' ,#      #,     #,   #   #,  ,#        
             '#######'   ##     ##  '#######'  #'      '#     '####' # '####'        



                #########################################################
                #                        -***-                          #
                #          Department of theory and spectroscopy        #
                #                                                       #
                #                      Frank Neese                      #
                #                                                       #
                #     Directorship, Architecture, Infrastructure        #
                #                    SHARK, DRIVERS                     #
                #        Core code/Algorithms in most modules           #
                #                                                       #
                #        Max Planck Institute fuer Kohlenforschung      #
                #                Kaiser Wilhelm Platz 1                 #
                #                 D-45470 Muelheim/Ruhr                 #
                #                      Germany                          #
                #                                                       #
                #                  All rights reserved                  #
                #                        -***-                          #
                #########################################################


                         Program Version 6.0.0  -   RELEASE  -


 With contributions from (in alphabetic order):
   Daniel Aravena         : Magnetic Suceptibility
   Michael Atanasov       : Ab Initio Ligand Field Theory (pilot matlab implementation)
   Alexander A. Auer      : GIAO ZORA, VPT2 properties, NMR spectrum
   Ute Becker             : All parallelization in ORCA, NUMFREQ, NUMCALC
   Giovanni Bistoni       : ED, misc. LED, open-shell LED, HFLD
   Martin Brehm           : Molecular dynamics
   Dmytro Bykov           : pre 5.0 version of the SCF Hessian
   Marcos Casanova-Páez   : Triplet and SCS-CIS(D). UHF-(DLPNO)-IP/EA/STEOM-CCSD. UHF-CVS-IP/STEOM-CCSD
   Vijay G. Chilkuri      : MRCI spin determinant printing, contributions to CSF-ICE
   Pauline Colinet        : FMM embedding
   Dipayan Datta          : RHF DLPNO-CCSD density
   Achintya Kumar Dutta   : EOM-CC, STEOM-CC
   Nicolas Foglia         : Exact transition moments, OPA infrastructure, MCD improvements
   Dmitry Ganyushin       : Spin-Orbit,Spin-Spin,Magnetic field MRCI
   Miquel Garcia          : C-PCM and meta-GGA Hessian, CCSD/C-PCM, Gaussian charge scheme
   Tiago L. C. Gouveia    : GS-ROHF, GS-ROCIS
   Yang Guo               : DLPNO-NEVPT2, F12-NEVPT2, CIM, IAO-localization
   Andreas Hansen         : Spin unrestricted coupled pair/coupled cluster methods
   Ingolf Harden          : AUTO-CI MPn and infrastructure 
   Benjamin Helmich-Paris : MC-RPA, TRAH-(SCF,CASSCF), AVAS, COSX integrals, SCF dyn. polar.
   Lee Huntington         : MR-EOM, pCC
   Robert Izsak           : Overlap fitted RIJCOSX, COSX-SCS-MP3, EOM
   Riya Kayal             : Wick's Theorem for AUTO-CI, AUTO-CI UHF-CCSDT
   Emily Kempfer          : AUTO-CI, RHF CISDT and CCSDT
   Christian Kollmar      : KDIIS, OOCD, Brueckner-CCSD(T), CCSD density, CASPT2, CASPT2-K, improved NEVPT2
   Axel Koslowski         : Symmetry handling
   Simone Kossmann        : Meta GGA functionals, TD-DFT gradient, OOMP2, (MP2 Hessian; deprecated post 5.0)
   Lucas Lang             : DCDCAS
   Marvin Lechner         : AUTO-CI (C++ implementation), FIC-MRCC
   Spencer Leger          : CASSCF response
   Dagmar Lenk            : GEPOL surface, SMD, ORCA-2-JSON
   Dimitrios Liakos       : Extrapolation schemes; Compound Job, initial MDCI parallelization
   Dimitrios Manganas     : Further ROCIS development; embedding schemes. LFT, Crystal Embedding
   Dimitrios Pantazis     : SARC Basis sets
   Anastasios Papadopoulos: AUTO-CI, single reference methods and gradients
   Taras Petrenko         : pre 6.0 DFT Hessian and TD-DFT gradient, (ASA, deprecated), ECA, 1-Electron XAS/XES, NRVS
   Peter Pinski           : DLPNO-MP2, DLPNO-MP2 Gradient
   Christoph Reimann      : Effective Core Potentials
   Marius Retegan         : Local ZFS, SOC
   Christoph Riplinger    : Optimizer, TS searches, QM/MM, DLPNO-CCSD(T), (RO)-DLPNO pert. Triples
   Michael Roemelt        : Original ROCIS implementation
   Masaaki Saitow         : Open-shell DLPNO-CCSD energy and density
   Barbara Sandhoefer     : DKH picture change effects
   Kantharuban Sivalingam : CASSCF convergence/infrastructure, NEVPT2 and variants, FIC-MRCI
   Bernardo de Souza      : ESD, SOC TD-DFT
   Georgi Stoychev        : AutoAux, RI-MP2 NMR, DLPNO-MP2 response, X2C
   Van Anh Tran           : RI-MP2 g-tensors
   Willem Van den Heuvel  : Paramagnetic NMR
   Zikuan Wang            : NOTCH, Electric field optimization 
   Frank Wennmohs         : Technical directorship and infrastructure
   Hang Xu                : AUTO-CI-Response properties 


 We gratefully acknowledge several colleagues who have allowed us to
 interface, adapt or use parts of their codes:
   Stefan Grimme, W. Hujo, H. Kruse, P. Pracht,  : VdW corrections, initial TS optimization,
                  C. Bannwarth, S. Ehlert,         DFT functionals, gCP, sTDA/sTD-DF
                  L. Wittmann, M. Mueller
   Ed Valeev, F. Pavosevic, A. Kumar             : LibInt (2-el integral package), F12 methods
   Garnet Chan, S. Sharma, J. Yang, R. Olivares  : DMRG
   Ulf Ekstrom                                   : XCFun DFT Library
   Mihaly Kallay                                 : mrcc  (arbitrary order and MRCC methods)
   Frank Weinhold                                : gennbo (NPA and NBO analysis)
   Simon Mueller                                 : openCOSMO-RS
   Christopher J. Cramer and Donald G. Truhlar   : smd solvation model
   Lars Goerigk                                  : TD-DFT with DH, B97 family of functionals
   V. Asgeirsson, H. Jonsson                     : NEB implementation
   FAccTs GmbH                                   : IRC, NEB, NEB-TS, DLPNO-Multilevel, CI-OPT
                                                   MM, QMMM, 2- and 3-layer-ONIOM, Crystal-QMMM,
                                                   LR-CPCM, SF, NACMEs, symmetry and pop. for TD-DFT,
                                                   nearIR, NL-DFT gradient (VV10), updates on ESD,
                                                   ML-optimized integration grids, MBIS, APM,
                                                   GOAT, DOCKER, SOLVATOR, interface openCOSMO-RS
   S Lehtola, MJT Oliveira, MAL Marques          : LibXC Library
   Liviu Ungur et al                             : ANISO software


 Your calculation uses the libint2 library for the computation of 2-el integrals
 For citations please refer to: http://libint.valeyev.net

 Your ORCA version has been built with support for libXC version: 6.2.2
 For citations please refer to: https://libxc.gitlab.io

 This ORCA versions uses:
   CBLAS   interface :  Fast vector & matrix operations
   LAPACKE interface :  Fast linear algebra routines
   SCALAPACK package :  Parallel linear algebra routines
   Shared memory     :  Shared parallel matrices
   BLAS/LAPACK       :  OpenBLAS 0.3.27  USE64BITINT DYNAMIC_ARCH NO_AFFINITY SkylakeX SINGLE_THREADED
        Core in use  :  SkylakeX
   Copyright (c) 2011-2014, The OpenBLAS Project


NOTE: MaxCore=3000 MB was set to SCF,MP2,MDCI,CIPSI,MRCI and CIS
      => If you want to overwrite this, your respective input block should be placed after the MaxCore statement
Your calculation utilizes the atom-pairwise dispersion correction
with the Becke-Johnson damping scheme (D3BJ)


Warning: RI is on but no J-basis has been assigned. Assigning Def2/J (nothing to worry about!)
================================================================================

----- Orbital basis set information -----
Your calculation utilizes the basis: def2-SV(P)
   F. Weigend and R. Ahlrichs, Phys. Chem. Chem. Phys. 7, 3297 (2005).

----- AuxJ basis set information -----
Your calculation utilizes the auxiliary basis: def2/J
   F. Weigend, Phys. Chem. Chem. Phys. 8, 1057 (2006).

================================================================================
                                        WARNINGS
                       Please study these warnings very carefully!
================================================================================


WARNING: Geometry Optimization
  ===> : Switching off AutoStart
         For restart on a previous wavefunction, please use MOREAD

================================================================================
                                       INPUT FILE
================================================================================
NAME = cs_rporg_062_red_opt_01.inp
|  1> !PBE0 def2-SV(p) Opt Freq d3 TightSCF SlowConv RIJCOSX defgrid2
|  2>  
|  3> %pal
|  4> nprocs 4
|  5> end
|  6>  
|  7> %scf
|  8> MaxIter 1500
|  9> end
| 10>  
| 11> %maxcore 3000
| 12>  
| 13> 
| 14>  
| 15> * xyz 0 1
| 16> C     0.7337668   -1.1625640    0.2202960 
| 17> C    -0.7336962   -1.1626089   -0.2203508 
| 18> H    -1.2673393   -2.0118351    0.2073477 
| 19> H    -0.7841481   -1.2053123   -1.3191725 
| 20> O    -1.3941529   -0.0000456    0.2424650 
| 21> C    -0.7337738    1.1625756   -0.2203171 
| 22> C     0.7336953    1.1626175    0.2203232 
| 23> H     1.2673399    2.0118379   -0.2073808 
| 24> H     0.7841528    1.2053149    1.3191460 
| 25> O     1.3941480    0.0000526   -0.2424969 
| 26> H    -1.2674704    2.0117551    0.2074062 
| 27> H    -0.7842308    1.2053019   -1.3191397 
| 28> H     1.2674732   -2.0117443   -0.2074067 
| 29> H     0.7842070   -1.2052678    1.3191130
| 30> *
| 31> 
| 32>                          ****END OF INPUT****
================================================================================

                       *****************************
                       * Geometry Optimization Run *
                       *****************************

Geometry optimization settings:
Update method            Update   .... BFGS
Choice of coordinates    CoordSys .... (2022) Redundant Internals
Initial Hessian          InHess   .... Almloef's Model
Max. no of cycles        MaxIter  .... 50

Convergence Tolerances:
Energy Change            TolE     ....  5.0000e-06 Eh
Max. Gradient            TolMAXG  ....  3.0000e-04 Eh/bohr
RMS Gradient             TolRMSG  ....  1.0000e-04 Eh/bohr
Max. Displacement        TolMAXD  ....  4.0000e-03 bohr
RMS Displacement         TolRMSD  ....  2.0000e-03 bohr
Strict Convergence                .... False

------------------------------------------------------------------------------
                        ORCA OPTIMIZATION COORDINATE SETUP
------------------------------------------------------------------------------

The optimization will be done in redundant internal coordinates (2022)
Making redundant internal coordinates   ...  (2022 redundants) done
Evaluating the initial hessian          ...  (Almloef) done
Evaluating the coordinates              ...  done
Calculating the B-matrix                .... done
Calculating the G-matrix                .... done
Diagonalizing the G-matrix              .... done
The first mode is                       ....   28
The number of degrees of freedom        ....   36

    -----------------------------------------------------------------
                    Redundant Internal Coordinates


    -----------------------------------------------------------------
         Definition                    Initial Value    Approx d2E/dq
    -----------------------------------------------------------------
      1. B(C   1,C   0)                  1.5322         0.370576   
      2. B(H   2,C   1)                  1.0904         0.359623   
      3. B(H   3,C   1)                  1.1008         0.346083   
      4. B(O   4,C   1)                  1.4149         0.510672   
      5. B(C   5,O   4)                  1.4149         0.510671   
      6. B(C   6,C   5)                  1.5322         0.370571   
      7. B(H   7,C   6)                  1.0904         0.359626   
      8. B(H   8,C   6)                  1.1008         0.346081   
      9. B(O   9,C   6)                  1.4149         0.510670   
     10. B(O   9,C   0)                  1.4149         0.510670   
     11. B(H  10,C   5)                  1.0904         0.359624   
     12. B(H  11,C   5)                  1.1008         0.346080   
     13. B(H  12,C   0)                  1.0904         0.359627   
     14. B(H  13,C   0)                  1.1008         0.346089   
     15. A(C   1,C   0,H  13)          109.3269         0.321790   
     16. A(O   9,C   0,H  12)          106.4504         0.339419   
     17. A(C   1,C   0,O   9)          110.6691         0.380511   
     18. A(H  12,C   0,H  13)          109.8105         0.288975   
     19. A(C   1,C   0,H  12)          110.8527         0.323820   
     20. A(O   9,C   0,H  13)          109.6932         0.337254   
     21. A(H   3,C   1,O   4)          109.6936         0.337253   
     22. A(H   2,C   1,H   3)          109.8100         0.288974   
     23. A(C   0,C   1,H   2)          110.8521         0.323820   
     24. A(H   2,C   1,O   4)          106.4504         0.339419   
     25. A(C   0,C   1,O   4)          110.6690         0.380511   
     26. A(C   0,C   1,H   3)          109.3276         0.321789   
     27. A(C   1,O   4,C   5)          110.5057         0.399876   
     28. A(H  10,C   5,H  11)          109.8102         0.288973   
     29. A(C   6,C   5,H  11)          109.3275         0.321787   
     30. A(O   4,C   5,H  11)          109.6933         0.337252   
     31. A(C   6,C   5,H  10)          110.8520         0.323819   
     32. A(O   4,C   5,H  10)          106.4505         0.339419   
     33. A(O   4,C   5,C   6)          110.6692         0.380510   
     34. A(H   8,C   6,O   9)          109.6934         0.337252   
     35. A(H   7,C   6,O   9)          106.4501         0.339419   
     36. A(C   5,C   6,O   9)          110.6691         0.380510   
     37. A(H   7,C   6,H   8)          109.8104         0.288974   
     38. A(C   5,C   6,H   8)          109.3276         0.321788   
     39. A(C   5,C   6,H   7)          110.8521         0.323819   
     40. A(C   0,O   9,C   6)          110.5054         0.399876   
     41. D(H   2,C   1,C   0,O   9)   -175.0253         0.010976   
     42. D(H   3,C   1,C   0,O   9)     63.7824         0.010976   
     43. D(H   3,C   1,C   0,H  13)   -175.2878         0.010976   
     44. D(H   2,C   1,C   0,H  13)    -54.0956         0.010976   
     45. D(H   3,C   1,C   0,H  12)    -54.0950         0.010976   
     46. D(H   2,C   1,C   0,H  12)     67.0972         0.010976   
     47. D(C   5,O   4,C   1,C   0)     57.0528         0.020647   
     48. D(C   5,O   4,C   1,H   3)    -63.6605         0.020647   
     49. D(C   5,O   4,C   1,H   2)    177.5884         0.020647   
     50. D(H  11,C   5,O   4,C   1)     63.6605         0.020647   
     51. D(H  10,C   5,O   4,C   1)   -177.5882         0.020647   
     52. D(C   6,C   5,O   4,C   1)    -57.0525         0.020647   
     53. D(H   7,C   6,C   5,H  11)     54.0941         0.010976   
     54. D(H   7,C   6,C   5,H  10)    -67.0983         0.010976   
     55. D(H   7,C   6,C   5,O   4)    175.0243         0.010976   
     56. D(H   8,C   6,C   5,H  11)    175.2869         0.010976   
     57. D(H   8,C   6,C   5,H  10)     54.0946         0.010976   
     58. D(H   8,C   6,C   5,O   4)    -63.7828         0.010976   
     59. D(C   0,O   9,C   6,H   8)     63.6601         0.020647   
     60. D(C   0,O   9,C   6,H   7)   -177.5885         0.020647   
     61. D(C   0,O   9,C   6,C   5)    -57.0530         0.020647   
     62. D(C   6,O   9,C   0,H  13)    -63.6588         0.020647   
     63. D(C   6,O   9,C   0,H  12)    177.5898         0.020647   
     64. D(C   6,O   9,C   0,C   1)     57.0534         0.020647   
    -----------------------------------------------------------------

Number of atoms                         .... 14
Number of degrees of freedom            .... 64


         *************************************************************
         *                GEOMETRY OPTIMIZATION CYCLE   1            *
         *************************************************************
---------------------------------
CARTESIAN COORDINATES (ANGSTROEM)
---------------------------------
  C      0.733767   -1.162564    0.220296
  C     -0.733696   -1.162609   -0.220351
  H     -1.267339   -2.011835    0.207348
  H     -0.784148   -1.205312   -1.319173
  O     -1.394153   -0.000046    0.242465
  C     -0.733774    1.162576   -0.220317
  C      0.733695    1.162618    0.220323
  H      1.267340    2.011838   -0.207381
  H      0.784153    1.205315    1.319146
  O      1.394148    0.000053   -0.242497
  H     -1.267470    2.011755    0.207406
  H     -0.784231    1.205302   -1.319140
  H      1.267473   -2.011744   -0.207407
  H      0.784207   -1.205268    1.319113

----------------------------
CARTESIAN COORDINATES (A.U.)
----------------------------
  NO LB      ZA    FRAG     MASS         X           Y           Z
   0 C     6.0000    0    12.011    1.386618   -2.196928    0.416299
   1 C     6.0000    0    12.011   -1.386485   -2.197012   -0.416403
   2 H     1.0000    0     1.008   -2.394924   -3.801817    0.391830
   3 H     1.0000    0     1.008   -1.481825   -2.277710   -2.492875
   4 O     8.0000    0    15.999   -2.634567   -0.000086    0.458192
   5 C     6.0000    0    12.011   -1.386632    2.196949   -0.416339
   6 C     6.0000    0    12.011    1.386483    2.197029    0.416351
   7 H     1.0000    0     1.008    2.394925    3.801823   -0.391893
   8 H     1.0000    0     1.008    1.481834    2.277715    2.492825
   9 O     8.0000    0    15.999    2.634558    0.000099   -0.458253
  10 H     1.0000    0     1.008   -2.395172    3.801666    0.391941
  11 H     1.0000    0     1.008   -1.481981    2.277690   -2.492813
  12 H     1.0000    0     1.008    2.395177   -3.801646   -0.391942
  13 H     1.0000    0     1.008    1.481936   -2.277626    2.492762

--------------------------------
INTERNAL COORDINATES (ANGSTROEM)
--------------------------------
 C      0   0   0     0.000000000000     0.00000000     0.00000000
 C      1   0   0     1.532193610721     0.00000000     0.00000000
 H      2   1   0     1.090360538467   110.85205043     0.00000000
 H      2   1   3     1.100807931919   109.32764808   238.80774966
 O      2   1   3     1.414904570567   110.66904975   117.87706750
 C      5   2   1     1.414904902277   110.50569881    57.05279450
 C      6   5   2     1.532197583602   110.66924072   302.94745749
 H      7   6   5     1.090358912699   110.85214621   175.02434632
 H      7   6   5     1.100809053866   109.32763812   296.21722003
 O      7   6   5     1.414905424618   110.66905863    57.14760886
 H      6   5   2     1.090360080631   106.45054325   182.41175142
 H      6   5   2     1.100809952640   109.69333289    63.66046936
 H      1   2   3     1.090357419792   110.85265532    67.09723155
 H      1   2   3     1.100802719746   109.32691255   305.90442148

---------------------------
INTERNAL COORDINATES (A.U.)
---------------------------
 C      0   0   0     0.000000000000     0.00000000     0.00000000
 C      1   0   0     2.895426308407     0.00000000     0.00000000
 H      2   1   0     2.060482804938   110.85205043     0.00000000
 H      2   1   3     2.080225517375   109.32764808   238.80774966
 O      2   1   3     2.673782144005   110.66904975   117.87706750
 C      5   2   1     2.673782770846   110.50569881    57.05279450
 C      6   5   2     2.895433816063   110.66924072   302.94745749
 H      7   6   5     2.060479732681   110.85214621   175.02434632
 H      7   6   5     2.080227637547   109.32763812   296.21722003
 O      7   6   5     2.673783757927   110.66905863    57.14760886
 H      6   5   2     2.060481939754   106.45054325   182.41175142
 H      6   5   2     2.080229335985   109.69333289    63.66046936
 H      1   2   3     2.060476911497   110.85265532    67.09723155
 H      1   2   3     2.080215667795   109.32691255   305.90442148

---------------------
BASIS SET INFORMATION
---------------------
There are 3 groups of distinct atoms

 Group   1 Type C   : 7s4p1d contracted to 3s2p1d pattern {511/31/1}
 Group   2 Type H   : 4s contracted to 2s pattern {31}
 Group   3 Type O   : 7s4p1d contracted to 3s2p1d pattern {511/31/1}

Atom   0C    basis set group =>   1
Atom   1C    basis set group =>   1
Atom   2H    basis set group =>   2
Atom   3H    basis set group =>   2
Atom   4O    basis set group =>   3
Atom   5C    basis set group =>   1
Atom   6C    basis set group =>   1
Atom   7H    basis set group =>   2
Atom   8H    basis set group =>   2
Atom   9O    basis set group =>   3
Atom  10H    basis set group =>   2
Atom  11H    basis set group =>   2
Atom  12H    basis set group =>   2
Atom  13H    basis set group =>   2
---------------------------------
AUXILIARY/J BASIS SET INFORMATION
---------------------------------
There are 3 groups of distinct atoms

 Group   1 Type C   : 12s5p4d2f1g contracted to 6s4p3d1f1g pattern {711111/2111/211/2/1}
 Group   2 Type H   : 5s2p1d contracted to 3s1p1d pattern {311/2/1}
 Group   3 Type O   : 12s5p4d2f1g contracted to 6s4p3d1f1g pattern {711111/2111/211/2/1}

Atom   0C    basis set group =>   1
Atom   1C    basis set group =>   1
Atom   2H    basis set group =>   2
Atom   3H    basis set group =>   2
Atom   4O    basis set group =>   3
Atom   5C    basis set group =>   1
Atom   6C    basis set group =>   1
Atom   7H    basis set group =>   2
Atom   8H    basis set group =>   2
Atom   9O    basis set group =>   3
Atom  10H    basis set group =>   2
Atom  11H    basis set group =>   2
Atom  12H    basis set group =>   2
Atom  13H    basis set group =>   2


           ************************************************************
           *        Program running with 4 parallel MPI-processes     *
           *              working on a common directory               *
           ************************************************************
------------------------------------------------------------------------------
                             ORCA STARTUP CALCULATIONS
                           -- RI-GTO INTEGRALS CHOSEN --
------------------------------------------------------------------------------
------------------------------------------------------------------------------
                   ___                                                        
                  /   \      - P O W E R E D   B Y -                         
                 /     \                                                     
                 |  |  |   _    _      __       _____    __    __             
                 |  |  |  | |  | |    /  \     |  _  \  |  |  /  |          
                  \  \/   | |  | |   /    \    | | | |  |  | /  /          
                 / \  \   | |__| |  /  /\  \   | |_| |  |  |/  /          
                |  |  |   |  __  | /  /__\  \  |    /   |      \           
                |  |  |   | |  | | |   __   |  |    \   |  |\   \          
                \     /   | |  | | |  |  |  |  | |\  \  |  | \   \       
                 \___/    |_|  |_| |__|  |__|  |_| \__\ |__|  \__/        
                                                                              
                      - O R C A' S   B I G   F R I E N D -                    
                                      &                                       
                       - I N T E G R A L  F E E D E R -                       
                                                                              
 v1 FN, 2020, v2 2021, v3 2022-2024                                           
------------------------------------------------------------------------------


----------------------
SHARK INTEGRAL PACKAGE
----------------------

Number of atoms                             ...     14
Number of basis functions                   ...    100
Number of shells                            ...     52
Maximum angular momentum                    ...      2
Integral batch strategy                     ... SHARK/LIBINT Hybrid
RI-J (if used) integral strategy            ... SPLIT-RIJ (Revised 2003 algorithm where possible)
Printlevel                                  ...      1
Contraction scheme used                     ... SEGMENTED contraction
Prescreening option                         ... SCHWARTZ
   Thresh                                   ... 2.500e-11
   Tcut                                     ... 2.500e-12
   Tpresel                                  ... 2.500e-12 
Coulomb Range Separation                    ... NOT USED
Exchange Range Separation                   ... NOT USED
Multipole approximations                    ... NOT USED
Finite Nucleus Model                        ... NOT USED
CABS basis                                  ... NOT available
Auxiliary Coulomb fitting basis             ... AVAILABLE
   # of basis functions in Aux-J            ...    382
   # of shells in Aux-J                     ...    130
   Maximum angular momentum in Aux-J        ...      4
Auxiliary J/K fitting basis                 ... NOT available
Auxiliary Correlation fitting basis         ... NOT available
Auxiliary 'external' fitting basis          ... NOT available

Checking pre-screening integrals            ... done (  0.0 sec) Dimension = 52
Check shell pair data                       ... done (  0.0 sec)
Shell pair information
Shell pair cut-off parameter TPreSel        ...   2.5e-12
Total number of shell pairs                 ...      1378
Shell pairs after pre-screening             ...      1369
Total number of primitive shell pairs       ...      5562
Primitive shell pairs kept                  ...      4307
          la=0 lb=0:    586 shell pairs
          la=1 lb=0:    408 shell pairs
          la=1 lb=1:     78 shell pairs
          la=2 lb=0:    204 shell pairs
          la=2 lb=1:     72 shell pairs
          la=2 lb=2:     21 shell pairs

Calculating one electron integrals          ... done (  0.0 sec)
Calculating RI/J V-Matrix + Cholesky decomp.... done (  0.1 sec)
Calculating Nuclear repulsion               ... done (  0.0 sec) ENN=    264.616488106720 Eh

Diagonalization of the overlap matrix:
Smallest eigenvalue                        ... 1.580e-03
Time for diagonalization                   ...    0.002 sec
Threshold for overlap eigenvalues          ... 1.000e-07
Number of eigenvalues below threshold      ... 0
Time for construction of square roots      ...    0.030 sec
Total time needed                          ...    0.088 sec

-------------------
DFT GRID GENERATION
-------------------

General Integration Accuracy     IntAcc      ... 4.388
Radial Grid Type                 RadialGrid  ... OptM3 with GC (2021)
Angular Grid (max. ang.)         AngularGrid ... 4 (Lebedev-302)
Angular grid pruning method      GridPruning ... 4 (adaptive)
Weight generation scheme         WeightScheme... mBecke (2022)
Basis function cutoff            BFCut       ... 1.0000e-11
Integration weight cutoff        WCut        ... 1.0000e-14
Partially contracted basis set               ... off
Rotationally invariant grid construction     ... off
Angular grids for H and He will be reduced by one unit

Total number of grid points                  ...    61836
Total number of batches                      ...      974
Average number of points per batch           ...       63
Average number of grid points per atom       ...     4417

--------------------
COSX GRID GENERATION
--------------------

GRIDX 1
-------
General Integration Accuracy     IntAcc      ... 3.816
Radial Grid Type                 RadialGrid  ... OptM3 with GC (2021)
Angular Grid (max. ang.)         AngularGrid ... 1 (Lebedev-50)
Angular grid pruning method      GridPruning ... 4 (adaptive)
Weight generation scheme         WeightScheme... mBecke (2022)
Basis function cutoff            BFCut       ... 1.0000e-11
Integration weight cutoff        WCut        ... 1.0000e-14
Partially contracted basis set               ... on
Rotationally invariant grid construction     ... off
Angular grids for H and He will be reduced by one unit

Total number of grid points                  ...     7936
Total number of batches                      ...       74
Average number of points per batch           ...      107
Average number of grid points per atom       ...      567
UseSFitting                                  ... on

GRIDX 2
-------
General Integration Accuracy     IntAcc      ... 4.020
Radial Grid Type                 RadialGrid  ... OptM3 with GC (2021)
Angular Grid (max. ang.)         AngularGrid ... 2 (Lebedev-110)
Angular grid pruning method      GridPruning ... 4 (adaptive)
Weight generation scheme         WeightScheme... mBecke (2022)
Basis function cutoff            BFCut       ... 1.0000e-11
Integration weight cutoff        WCut        ... 1.0000e-14
Partially contracted basis set               ... on
Rotationally invariant grid construction     ... off
Angular grids for H and He will be reduced by one unit

Total number of grid points                  ...    16908
Total number of batches                      ...      142
Average number of points per batch           ...      119
Average number of grid points per atom       ...     1208
UseSFitting                                  ... on

GRIDX 3
-------
General Integration Accuracy     IntAcc      ... 4.338
Radial Grid Type                 RadialGrid  ... OptM3 with GC (2021)
Angular Grid (max. ang.)         AngularGrid ... 3 (Lebedev-194)
Angular grid pruning method      GridPruning ... 4 (adaptive)
Weight generation scheme         WeightScheme... mBecke (2022)
Basis function cutoff            BFCut       ... 1.0000e-11
Integration weight cutoff        WCut        ... 1.0000e-14
Partially contracted basis set               ... on
Rotationally invariant grid construction     ... off
Angular grids for H and He will be reduced by one unit

Total number of grid points                  ...    37050
Total number of batches                      ...      296
Average number of points per batch           ...      125
Average number of grid points per atom       ...     2646
UseSFitting                                  ... on
Initializing property integral containers    ... done (  0.1 sec)

SHARK setup successfully completed in   2.1 seconds

Maximum memory used throughout the entire STARTUP-calculation: 17.4 MB


           ************************************************************
           *        Program running with 4 parallel MPI-processes     *
           *              working on a common directory               *
           ************************************************************
-------------------------------------------------------------------------------
                                 ORCA GUESS
                   Start orbitals & Density for SCF / CASSCF
-------------------------------------------------------------------------------

------------
SCF SETTINGS
------------
Hamiltonian:
 Density Functional     Method          .... DFT(GTOs)
 Exchange Functional    Exchange        .... PBE
   PBE kappa parameter   XKappa         ....  0.804000
   PBE mue parameter    XMuePBE         ....  0.219520
 Correlation Functional Correlation     .... PBE
   PBE beta parameter  CBetaPBE         ....  0.066725
 LDA part of GGA corr.  LDAOpt          .... PW91-LDA
 Gradients option       PostSCFGGA      .... off
 Hybrid DFT is turned on
   Fraction HF Exchange ScalHFX         ....  0.250000
   Scaling of DF-GGA-X  ScalDFX         ....  0.750000
   Scaling of DF-GGA-C  ScalDFC         ....  1.000000
   Scaling of DF-LDA-C  ScalLDAC        ....  1.000000
   Perturbative correction              ....  0.000000
   NL short-range parameter             ....  6.900000
 RI-approximation to the Coulomb term is turned on
   Number of AuxJ basis functions       .... 382
   RIJ-COSX (HFX calculated with COS-X)).... on


General Settings:
 Integral files         IntName         .... cs_rporg_062_red_opt_01
 Hartree-Fock type      HFTyp           .... RHF
 Total Charge           Charge          ....    0
 Multiplicity           Mult            ....    1
 Number of Electrons    NEL             ....   48
 Basis Dimension        Dim             ....  100
 Nuclear Repulsion      ENuc            ....    264.6164881067 Eh

Convergence Acceleration:
 AO-DIIS                CNVDIIS         .... on
   Start iteration      DIISMaxIt       ....     0
   Startup error        DIISStart       ....  0.200000
   # of expansion vecs  DIISMaxEq       ....     5
   Bias factor          DIISBfac        ....   1.050
   Max. coefficient     DIISMaxC        ....  10.000
 MO-DIIS                CNVKDIIS        .... off
 Trust-Rad. Augm. Hess. CNVTRAH         .... auto
   Auto Start mean grad. ratio tolernc. ....  1.125000
   Auto Start start iteration           ....    50
   Auto Start num. interpolation iter.  ....    10
   Max. Number of Micro iterations      ....    24
   Max. Number of Macro iterations      .... Maxiter - #DIIS iter
   Number of Davidson start vectors     ....     2
   Converg. threshold    (grad. norm)   ....   1.000e-05
   Grad. Scal. Fac. for Micro threshold ....   0.100
   Minimum threshold for Micro iter.    ....   1.000e-02
   NR start threshold (gradient norm)   ....   1.000e-04
   Initial trust radius                 ....   0.400
   Minimum AH scaling param. (alpha)    ....   1.000
   Maximum AH scaling param. (alpha)    .... 1000.000
   Quad. conv. algorithm                .... NR
   White noise on init. David. guess    .... on
   Maximum white noise                  ....   0.010
   Pseudo random numbers                .... off
   Inactive MOs                         .... canonical
   Orbital update algorithm             .... Taylor
   Preconditioner                       .... Diag
   Full preconditioner red. dimension   ....   250
 SOSCF                  CNVSOSCF        .... on
   Start iteration      SOSCFMaxIt      ....   150
   Startup grad/error   SOSCFStart      ....  0.001000
   Hessian update       SOSCFHessUp     .... L-BFGS
 Level Shifting         CNVShift        .... on
   Level shift para.    LevelShift      ....    0.2500
   Turn off err/grad.   ShiftErr        ....    0.0000
 Zerner damping         CNVZerner       .... off
 Static damping         CNVDamp         .... on
   Fraction old density DampFac         ....    0.8500
   Max. Damping (<1)    DampMax         ....    0.9800
   Min. Damping (>=0)   DampMin         ....    0.0000
   Turn off err/grad.   DampErr         ....    0.0300

SCF Procedure:
 Maximum # iterations   MaxIter         ....  1500
 SCF integral mode      SCFMode         .... Direct
   Integral package                     .... SHARK and LIBINT hybrid scheme
 Reset frequency        DirectResetFreq ....    20
 Integral Threshold     Thresh          ....  2.500e-11 Eh
 Primitive CutOff       TCut            ....  2.500e-12 Eh

Convergence Tolerance:
 Convergence Check Mode ConvCheckMode   .... Total+1el-Energy
 Convergence forced     ConvForced      .... 0
 Energy Change          TolE            ....  1.000e-08 Eh
 1-El. energy change                    ....  1.000e-05 Eh
 Orbital Gradient       TolG            ....  1.000e-05
 Orbital Rotation angle TolX            ....  1.000e-05
 DIIS Error             TolErr          ....  5.000e-07

------------------------------
INITIAL GUESS: MODEL POTENTIAL
------------------------------
Loading Hartree-Fock densities                     ... done
Calculating cut-offs                               ... done
Initializing the effective Hamiltonian             ... done
Setting up the integral package (SHARK)            ... done
Starting the Coulomb interaction                   ... done (   0.1 sec)
Making the grid                                    ... done (   0.1 sec)
Mapping shells                                     ... done
Starting the XC term evaluation                    ... done (   0.0 sec)
  promolecular density results
     # of electrons  =     47.990022711
     EX              =    -39.141190596
     EC              =     -1.605308365
     EX+EC           =    -40.746498960
Transforming the Hamiltonian                       ... done (   0.0 sec)
Diagonalizing the Hamiltonian                      ... done (   0.0 sec)
Back transforming the eigenvectors                 ... done (   0.0 sec)
Now organizing SCF variables                       ... done
                      ------------------
                      INITIAL GUESS DONE (   0.4 sec)
                      ------------------
             **** ENERGY FILE WAS UPDATED (cs_rporg_062_red_opt_01.en.tmp) ****
Finished Guess after   1.0 sec
Maximum memory used throughout the entire GUESS-calculation: 9.3 MB


           ************************************************************
           *        Program running with 4 parallel MPI-processes     *
           *              working on a common directory               *
           ************************************************************

-------------------------------------------------------------------------------------------
                                      ORCA LEAN-SCF
                              memory conserving SCF solver
-------------------------------------------------------------------------------------------

----------------------------------------D-I-I-S--------------------------------------------
Iteration    Energy (Eh)           Delta-E    RMSDP     MaxDP     DIISErr   Damp  Time(sec)
-------------------------------------------------------------------------------------------
               ***  Starting incremental Fock matrix formation  ***
    1    -306.9667119122872236     0.00e+00  1.93e-03  2.48e-02  1.57e-01  0.850   2.8
    2    -306.9914104301570887    -2.47e-02  1.89e-03  2.20e-02  1.15e-01  0.850   2.4
                               ***Turning on AO-DIIS***
    3    -307.0081690867839370    -1.68e-02  1.09e-03  1.09e-02  7.73e-02  0.850   2.1
    4    -307.0193676038738886    -1.12e-02  7.62e-04  7.46e-03  6.26e-02  0.850   4.3
    5    -307.0276361664558635    -8.27e-03  5.91e-04  5.53e-03  5.34e-02  0.850   4.0
    6    -307.0342142022112739    -6.58e-03  4.91e-04  4.54e-03  4.57e-02  0.850   2.1
    7    -307.0396346973194568    -5.42e-03  4.23e-04  4.13e-03  3.85e-02  0.850   2.3
    8    -307.0441335386137780    -4.50e-03  3.59e-04  3.44e-03  3.18e-02  0.850   2.4
    9    -307.0478312615292680    -3.70e-03  3.01e-04  2.95e-03  2.65e-02  0.850   2.1
   10    -307.0508778759121924    -3.05e-03  1.68e-03  1.63e-02  2.24e-02  0.000   2.2
   11    -307.0667986961533416    -1.59e-02  7.92e-05  1.18e-03  1.05e-03  0.000   2.2
                              *** Initializing SOSCF ***
---------------------------------------S-O-S-C-F--------------------------------------
Iteration    Energy (Eh)           Delta-E    RMSDP     MaxDP     MaxGrad    Time(sec)
--------------------------------------------------------------------------------------
   12    -307.0668073708720840    -8.67e-06  2.31e-05  2.78e-04  4.59e-04     2.2
               *** Restarting incremental Fock matrix formation ***
   13    -307.0669058821536055    -9.85e-05  1.78e-05  1.62e-04  4.84e-05     2.0
   14    -307.0669059274823667    -4.53e-08  8.69e-06  7.59e-05  4.80e-05     1.9
   15    -307.0669059559917287    -2.85e-08  4.74e-06  4.17e-05  1.14e-05     1.9
   16    -307.0669059535472343     2.44e-09  9.46e-07  9.54e-06  4.04e-06     2.2
                 **** Energy Check signals convergence ****

               *****************************************************
               *                     SUCCESS                       *
               *           SCF CONVERGED AFTER  16 CYCLES          *
               *****************************************************

Recomputing exchange energy using gridx3       ... done (    0.871 sec)
Old exchange energy                            :    -10.004997169 Eh
New exchange energy                            :    -10.005010878 Eh
Exchange energy change after final integration :     -0.000013709 Eh
Total energy after final integration           :   -307.066919662 Eh
             **** ENERGY FILE WAS UPDATED (cs_rporg_062_red_opt_01.en.tmp) ****

----------------
TOTAL SCF ENERGY
----------------

Total Energy       :       -307.06691966233899 Eh           -8355.71568 eV

Components:
Nuclear Repulsion  :        264.61648810672034 Eh            7200.58071 eV
Electronic Energy  :       -571.68339406026757 Eh          -15556.29602 eV
One Electron Energy:       -942.20240982441726 Eh          -25638.63101 eV
Two Electron Energy:        370.51901576414963 Eh           10082.33499 eV

Virial components:
Potential Energy   :       -611.74309474296524 Eh          -16646.37589 eV
Kinetic Energy     :        304.67617508062625 Eh            8290.66021 eV
Virial Ratio       :          2.00784683797832

DFT components:
N(Alpha)           :       24.000003034597 electrons
N(Beta)            :       24.000003034597 electrons
N(Total)           :       48.000006069193 electrons
E(X)               :      -29.925521979572 Eh       
E(C)               :       -1.610957858756 Eh       
E(XC)              :      -31.536479838328 Eh       

---------------
SCF CONVERGENCE
---------------

  Last Energy change         ...   -2.4445e-09  Tolerance :   1.0000e-08
  Last MAX-Density change    ...    9.5391e-06  Tolerance :   1.0000e-07
  Last RMS-Density change    ...    9.4638e-07  Tolerance :   5.0000e-09
  Last DIIS Error            ...    4.5862e-04  Tolerance :   5.0000e-07
  Last Orbital Gradient      ...    4.0438e-06  Tolerance :   1.0000e-05
  Last Orbital Rotation      ...    5.0892e-06  Tolerance :   1.0000e-05


----------------
ORBITAL ENERGIES
----------------

  NO   OCC          E(Eh)            E(eV) 
   0   2.0000     -19.213998      -522.8395 
   1   2.0000     -19.213928      -522.8376 
   2   2.0000     -10.273308      -279.5509 
   3   2.0000     -10.273296      -279.5506 
   4   2.0000     -10.273184      -279.5475 
   5   2.0000     -10.273171      -279.5472 
   6   2.0000      -1.079080       -29.3633 
   7   2.0000      -1.039131       -28.2762 
   8   2.0000      -0.797776       -21.7086 
   9   2.0000      -0.708401       -19.2766 
  10   2.0000      -0.683940       -18.6110 
  11   2.0000      -0.593248       -16.1431 
  12   2.0000      -0.526540       -14.3279 
  13   2.0000      -0.501311       -13.6414 
  14   2.0000      -0.495310       -13.4781 
  15   2.0000      -0.493517       -13.4293 
  16   2.0000      -0.466284       -12.6882 
  17   2.0000      -0.413074       -11.2403 
  18   2.0000      -0.386170       -10.5082 
  19   2.0000      -0.382010       -10.3950 
  20   2.0000      -0.378658       -10.3038 
  21   2.0000      -0.315777        -8.5927 
  22   2.0000      -0.299002        -8.1362 
  23   2.0000      -0.249986        -6.8025 
  24   0.0000       0.078306         2.1308 
  25   0.0000       0.090572         2.4646 
  26   0.0000       0.100614         2.7378 
  27   0.0000       0.115055         3.1308 
  28   0.0000       0.127691         3.4746 
  29   0.0000       0.141210         3.8425 
  30   0.0000       0.144264         3.9256 
  31   0.0000       0.157532         4.2867 
  32   0.0000       0.166516         4.5311 
  33   0.0000       0.185253         5.0410 
  34   0.0000       0.232825         6.3355 
*Only the first 10 virtual orbitals were printed.

                    ********************************
                    * MULLIKEN POPULATION ANALYSIS *
                    ********************************

-----------------------
MULLIKEN ATOMIC CHARGES
-----------------------
   0 C :   -0.015019
   1 C :   -0.015024
   2 H :    0.120640
   3 H :    0.097482
   4 O :   -0.406197
   5 C :   -0.015024
   6 C :   -0.015025
   7 H :    0.120640
   8 H :    0.097483
   9 O :   -0.406199
  10 H :    0.120640
  11 H :    0.097483
  12 H :    0.120640
  13 H :    0.097480
Sum of atomic charges:    0.0000000

--------------------------------
MULLIKEN REDUCED ORBITAL CHARGES
--------------------------------
  0 C s       :     3.068941  s :     3.068941
      pz      :     1.037281  p :     2.879967
      px      :     0.968303
      py      :     0.874382
      dz2     :     0.016819  d :     0.066112
      dxz     :     0.007018
      dyz     :     0.011501
      dx2y2   :     0.013848
      dxy     :     0.016926

  1 C s       :     3.068946  s :     3.068946
      pz      :     1.037279  p :     2.879967
      px      :     0.968285
      py      :     0.874402
      dz2     :     0.016819  d :     0.066112
      dxz     :     0.007018
      dyz     :     0.011500
      dx2y2   :     0.013849
      dxy     :     0.016925

  2 H s       :     0.879360  s :     0.879360

  3 H s       :     0.902518  s :     0.902518

  4 O s       :     3.793168  s :     3.793168
      pz      :     1.754384  p :     4.596243
      px      :     1.658070
      py      :     1.183788
      dz2     :     0.002165  d :     0.016787
      dxz     :     0.002575
      dyz     :     0.003788
      dx2y2   :     0.002613
      dxy     :     0.005646

  5 C s       :     3.068947  s :     3.068947
      pz      :     1.037282  p :     2.879965
      px      :     0.968303
      py      :     0.874380
      dz2     :     0.016819  d :     0.066112
      dxz     :     0.007018
      dyz     :     0.011501
      dx2y2   :     0.013848
      dxy     :     0.016926

  6 C s       :     3.068947  s :     3.068947
      pz      :     1.037277  p :     2.879966
      px      :     0.968286
      py      :     0.874403
      dz2     :     0.016819  d :     0.066112
      dxz     :     0.007018
      dyz     :     0.011500
      dx2y2   :     0.013848
      dxy     :     0.016925

  7 H s       :     0.879360  s :     0.879360

  8 H s       :     0.902517  s :     0.902517

  9 O s       :     3.793169  s :     3.793169
      pz      :     1.754382  p :     4.596242
      px      :     1.658071
      py      :     1.183790
      dz2     :     0.002165  d :     0.016787
      dxz     :     0.002575
      dyz     :     0.003788
      dx2y2   :     0.002613
      dxy     :     0.005646

 10 H s       :     0.879360  s :     0.879360

 11 H s       :     0.902517  s :     0.902517

 12 H s       :     0.879360  s :     0.879360

 13 H s       :     0.902520  s :     0.902520



                     *******************************
                     * LOEWDIN POPULATION ANALYSIS *
                     *******************************

----------------------
LOEWDIN ATOMIC CHARGES
----------------------
   0 C :   -0.125489
   1 C :   -0.125489
   2 H :    0.121408
   3 H :    0.105371
   4 O :   -0.202580
   5 C :   -0.125489
   6 C :   -0.125489
   7 H :    0.121408
   8 H :    0.105371
   9 O :   -0.202581
  10 H :    0.121408
  11 H :    0.105371
  12 H :    0.121408
  13 H :    0.105371

-------------------------------
LOEWDIN REDUCED ORBITAL CHARGES
-------------------------------
  0 C s       :     2.927088  s :     2.927088
      pz      :     1.088154  p :     3.055083
      px      :     1.035685
      py      :     0.931244
      dz2     :     0.037263  d :     0.143318
      dxz     :     0.014600
      dyz     :     0.023505
      dx2y2   :     0.031759
      dxy     :     0.036192

  1 C s       :     2.927089  s :     2.927089
      pz      :     1.088151  p :     3.055082
      px      :     1.035672
      py      :     0.931258
      dz2     :     0.037263  d :     0.143318
      dxz     :     0.014601
      dyz     :     0.023504
      dx2y2   :     0.031759
      dxy     :     0.036191

  2 H s       :     0.878592  s :     0.878592

  3 H s       :     0.894629  s :     0.894629

  4 O s       :     3.482012  s :     3.482012
      pz      :     1.773088  p :     4.690340
      px      :     1.671041
      py      :     1.246211
      dz2     :     0.003377  d :     0.030228
      dxz     :     0.003117
      dyz     :     0.007294
      dx2y2   :     0.005421
      dxy     :     0.011019

  5 C s       :     2.927090  s :     2.927090
      pz      :     1.088155  p :     3.055081
      px      :     1.035685
      py      :     0.931241
      dz2     :     0.037262  d :     0.143318
      dxz     :     0.014600
      dyz     :     0.023505
      dx2y2   :     0.031759
      dxy     :     0.036191

  6 C s       :     2.927090  s :     2.927090
      pz      :     1.088150  p :     3.055081
      px      :     1.035672
      py      :     0.931258
      dz2     :     0.037263  d :     0.143318
      dxz     :     0.014601
      dyz     :     0.023504
      dx2y2   :     0.031759
      dxy     :     0.036190

  7 H s       :     0.878592  s :     0.878592

  8 H s       :     0.894629  s :     0.894629

  9 O s       :     3.482014  s :     3.482014
      pz      :     1.773086  p :     4.690339
      px      :     1.671042
      py      :     1.246211
      dz2     :     0.003377  d :     0.030228
      dxz     :     0.003117
      dyz     :     0.007295
      dx2y2   :     0.005421
      dxy     :     0.011019

 10 H s       :     0.878592  s :     0.878592

 11 H s       :     0.894629  s :     0.894629

 12 H s       :     0.878592  s :     0.878592

 13 H s       :     0.894629  s :     0.894629



                      *****************************
                      * MAYER POPULATION ANALYSIS *
                      *****************************

  NA   - Mulliken gross atomic population
  ZA   - Total nuclear charge
  QA   - Mulliken gross atomic charge
  VA   - Mayer's total valence
  BVA  - Mayer's bonded valence
  FA   - Mayer's free valence

  ATOM       NA         ZA         QA         VA         BVA        FA
  0 C      6.0150     6.0000    -0.0150     3.9901     3.9901     0.0000
  1 C      6.0150     6.0000    -0.0150     3.9901     3.9901     0.0000
  2 H      0.8794     1.0000     0.1206     0.9499     0.9499     0.0000
  3 H      0.9025     1.0000     0.0975     0.9582     0.9582     0.0000
  4 O      8.4062     8.0000    -0.4062     2.0473     2.0473     0.0000
  5 C      6.0150     6.0000    -0.0150     3.9901     3.9901     0.0000
  6 C      6.0150     6.0000    -0.0150     3.9901     3.9901     0.0000
  7 H      0.8794     1.0000     0.1206     0.9499     0.9499    -0.0000
  8 H      0.9025     1.0000     0.0975     0.9582     0.9582     0.0000
  9 O      8.4062     8.0000    -0.4062     2.0473     2.0473    -0.0000
 10 H      0.8794     1.0000     0.1206     0.9499     0.9499     0.0000
 11 H      0.9025     1.0000     0.0975     0.9582     0.9582     0.0000
 12 H      0.8794     1.0000     0.1206     0.9499     0.9499     0.0000
 13 H      0.9025     1.0000     0.0975     0.9582     0.9582     0.0000

  Mayer bond orders larger than 0.100000
B(  0-C ,  1-C ) :   1.1020 B(  0-C ,  9-O ) :   0.9869 B(  0-C , 12-H ) :   0.9322 
B(  0-C , 13-H ) :   0.9113 B(  1-C ,  2-H ) :   0.9322 B(  1-C ,  3-H ) :   0.9113 
B(  1-C ,  4-O ) :   0.9869 B(  4-O ,  5-C ) :   0.9869 B(  5-C ,  6-C ) :   1.1020 
B(  5-C , 10-H ) :   0.9322 B(  5-C , 11-H ) :   0.9113 B(  6-C ,  7-H ) :   0.9322 
B(  6-C ,  8-H ) :   0.9113 B(  6-C ,  9-O ) :   0.9869 

-------
TIMINGS
-------

Total SCF time: 0 days 0 hours 0 min 42 sec 

Total time                  ....      42.048 sec
Sum of individual times     ....      40.354 sec  ( 96.0%)

SCF preparation             ....       1.001 sec  (  2.4%)
Fock matrix formation       ....      24.331 sec  ( 57.9%)
  Startup                   ....       2.552 sec  ( 10.5% of F)
  Split-RI-J                ....       3.949 sec  ( 16.2% of F)
  Chain of spheres X        ....       8.347 sec  ( 34.3% of F)
  XC integration            ....       5.135 sec  ( 21.1% of F)
    XC Preparation          ....       0.000 sec  (  0.0% of XC)
    Basis function eval.    ....       0.747 sec  ( 14.5% of XC)
    Density eval.           ....       0.264 sec  (  5.1% of XC)
    XC-Functional eval.     ....       0.221 sec  (  4.3% of XC)
    XC-Potential eval.      ....       0.395 sec  (  7.7% of XC)
Diagonalization             ....       0.000 sec  (  0.0%)
Density matrix formation    ....       4.413 sec  ( 10.5%)
Total Energy calculation    ....       1.769 sec  (  4.2%)
Population analysis         ....       0.458 sec  (  1.1%)
Orbital Transformation      ....       0.254 sec  (  0.6%)
Orbital Orthonormalization  ....       0.000 sec  (  0.0%)
DIIS solution               ....       7.208 sec  ( 17.1%)
SOSCF solution              ....       0.920 sec  (  2.2%)
Finished LeanSCF after  42.5 sec

Maximum memory used throughout the entire LEANSCF-calculation: 11.7 MB


           ************************************************************
           *        Program running with 4 parallel MPI-processes     *
           *              working on a common directory               *
           ************************************************************

------------------------------------------------------------------------------
                         ORCA PROPERTY INTEGRAL CALCULATIONS
------------------------------------------------------------------------------

GBWName                                   ... cs_rporg_062_red_opt_01.gbw
Number of atoms                           ...     14
Number of basis functions                 ...    100
Max core memory                           ...   3000 MB

Dipole integrals                          ... YES
Quadrupole integrals                      ...  NO
Linear momentum integrals                 ...  NO
Angular momentum integrals                ...  NO
Higher moments length integrals           ...  NO
Higher moments velocity integrals         ...  NO
Kinetic energy integrals                  ...  NO
GIAO right hand sides                     ...  NO
GIAO dipole derivative integrals          ...  NO
SOC integrals                             ...  NO
EPR diamagnetic integrals (GIAO)          ...  NO
EPR gauge integrals                       ...  NO
Field gradient integrals                  ...  NO (   0 nuclei)
Spin-dipole/Fermi contact integrals       ...  NO (   0 nuclei)
Contact density integrals                 ...  NO (   0 nuclei)
Nucleus-orbit integrals                   ...  NO (   0 nuclei)
Geometric perturbations                   ...  NO (  14 nuclei)

Choice of electric origin   ... Center of mass
Position of electric origin ... ( -0.0000,  0.0000, -0.0000) 
Choice of magnetic origin   ... GIAO
Position of magnetic origin ... (  0.0000,  0.0000,  0.0000) 

Calculating integrals                     ... Electric Dipole (Length)     done (  0.1 sec)

Property integrals calculated in   0.1 sec

Maximum memory used throughout the entire PROPINT-calculation: 7.5 MB


-------------------------------------------------------------------------------
                          DFT DISPERSION CORRECTION                            
                                                                               
                              DFTD3 V3.1  Rev 1                                
                          USING Becke-Johnson damping                          
-------------------------------------------------------------------------------
The PBE0 functional is recognized
Active option DFTDOPT                   ...         4   

molecular C6(AA) [au] = 1399.686471 


            DFT-D V3
 parameters
 s6 scaling factor         :     1.0000 
 a1 scaling factor         :     0.4145 
 s8 scaling factor         :     1.2177 
 a2 scaling factor         :     4.8593 
 ad hoc parameters k1-k3   :    16.0000     1.3333    -4.0000 

 Edisp/kcal,au: -5.607791505470  -0.008936583652 
 E6   /kcal   :  -3.634953159 
 E8   /kcal   :  -1.972838346 
 % E8         :  35.180308402 

-------------------------   ----------------
Dispersion correction           -0.008936584
-------------------------   ----------------


-------------------------   --------------------
FINAL SINGLE POINT ENERGY      -307.075856245991
-------------------------   --------------------



           ************************************************************
           *        Program running with 4 parallel MPI-processes     *
           *              working on a common directory               *
           ************************************************************
------------------------------------------------------------------------------
                         ORCA SCF GRADIENT CALCULATION
------------------------------------------------------------------------------

Nuc. rep. gradient        (SHARK) ... done (  0.0 sec)
HCore & Overlap gradient  (SHARK) ... done (  0.0 sec)
Split-RIJ-J gradient      (SHARK) ... done (  0.3 sec)
COSX-gradient                     ... done (  3.2 sec)
XC gradient                       ... done (  0.7 sec)
Dispersion correction             ... done (  0.0 sec)

-------------------
DISPERSION GRADIENT
-------------------

   1   C   :    0.000070608   -0.000143401    0.000023444
   2   C   :   -0.000070599   -0.000143405   -0.000023447
   3   H   :   -0.000079778   -0.000121588    0.000010976
   4   H   :   -0.000059624   -0.000086916   -0.000080068
   5   O   :   -0.000138717   -0.000000005    0.000007500
   6   C   :   -0.000070609    0.000143401   -0.000023444
   7   C   :    0.000070600    0.000143405    0.000023447
   8   H   :    0.000079779    0.000121588   -0.000010977
   9   H   :    0.000059624    0.000086915    0.000080068
  10   O   :    0.000138718    0.000000005   -0.000007501
  11   H   :   -0.000079787    0.000121583    0.000010980
  12   H   :   -0.000059630    0.000086914   -0.000080066
  13   H   :    0.000079787   -0.000121583   -0.000010979
  14   H   :    0.000059628   -0.000086913    0.000080065

Difference to translation invariance:
           :   -0.0000000000   -0.0000000000   -0.0000000000

Difference to rotation invariance:
           :    0.0000000000    0.0000000000   -0.0000000000

Norm of the Dispersion gradient    ...    0.0005460307
RMS gradient                       ...    0.0000842544
MAX gradient                       ...    0.0001434054

------------------
CARTESIAN GRADIENT
------------------

   1   C   :    0.007047867   -0.012576531    0.008501968
   2   C   :   -0.007045791   -0.012573195   -0.008499723
   3   H   :    0.003580534    0.007117500   -0.001696429
   4   H   :    0.000173860    0.001695901    0.005975199
   5   O   :   -0.007577460   -0.000000845    0.003638507
   6   C   :   -0.007048605    0.012574002   -0.008498735
   7   C   :    0.007047376    0.012575995    0.008501086
   8   H   :   -0.003580410   -0.007118699    0.001696382
   9   H   :   -0.000173978   -0.001696762   -0.005974793
  10   O   :    0.007577781    0.000000232   -0.003639406
  11   H   :    0.003581278   -0.007117152   -0.001696646
  12   H   :    0.000173827   -0.001696602    0.005973850
  13   H   :   -0.003581456    0.007118969    0.001697224
  14   H   :   -0.000174823    0.001697188   -0.005978483

Difference to translation invariance:
           :   -0.0000000000   -0.0000000000    0.0000000000

Difference to rotation invariance:
           :    0.0000002728   -0.0001350758    0.0000001496

Norm of the Cartesian gradient     ...    0.0410057358
RMS gradient                       ...    0.0063273224
MAX gradient                       ...    0.0125765310

-------
TIMINGS
-------

Total SCF gradient time     ....        4.234 sec

Densities                   ....       0.000 sec  (  0.0%)
One electron gradient       ....       0.040 sec  (  0.9%)
RI-J Coulomb gradient       ....       0.306 sec  (  7.2%)
COSX gradient               ....       3.156 sec  ( 74.5%)
XC gradient                 ....       0.668 sec  ( 15.8%)

Maximum memory used throughout the entire SCFGRAD-calculation: 27.2 MB
------------------------------------------------------------------------------
                         ORCA GEOMETRY RELAXATION STEP
------------------------------------------------------------------------------

Reading the OPT-File                    .... done
Getting information on internals        .... done
Copying old internal coords+grads       .... done
Making the new internal coordinates     .... (2022 redundants) done
Validating the new internal coordinates .... (2022 redundants) done
Calculating the B-matrix                .... done
Calculating the G,G- and P matrices     .... done
Transforming gradient to internals      .... done
Projecting the internal gradient        .... done
Number of atoms                         ....  14
Number of internal coordinates          ....  64
Current Energy                          ....  -307.075856246 Eh
Current gradient norm                   ....     0.041005736 Eh/bohr
Maximum allowed component of the step   ....  0.300
Current trust radius                    ....  0.300
Evaluating the initial hessian          ....  (Almloef) done
Projecting the Hessian                  .... done
Forming the augmented Hessian           .... done
Diagonalizing the augmented Hessian     .... done
Last element of RFO vector              ....  0.997343387
Lowest eigenvalues of augmented Hessian:
 -0.001803647  0.017528802  0.024238115  0.030574307  0.088492151
Length of the computed step             ....  0.073037479
The final length of the internal step   ....  0.073037479
Converting the step to Cartesian space:
 Initial RMS(Int)=    0.0091296849
Transforming coordinates:
 Iter   0:  RMS(Cart)=    0.0092202011 RMS(Int)=    0.0091233327
done
Storing new coordinates                 .... done

                                .--------------------.
          ----------------------|Geometry convergence|-------------------------
          Item                value                   Tolerance       Converged
          ---------------------------------------------------------------------
          RMS gradient        0.0032074123            0.0001000000      NO
          MAX gradient        0.0079618537            0.0003000000      NO
          RMS step            0.0091296849            0.0020000000      NO
          MAX step            0.0220286878            0.0040000000      NO
          ........................................................
          Max(Bonds)      0.0117      Max(Angles)    0.39
          Max(Dihed)        0.54      Max(Improp)    0.00
          ---------------------------------------------------------------------

The optimization has not yet converged - more geometry cycles are needed


    ---------------------------------------------------------------------------
                         Redundant Internal Coordinates
                            (Angstroem and degrees)

        Definition                    Value    dE/dq     Step     New-Value
    ----------------------------------------------------------------------------
     1. B(C   1,C   0)                1.5322  0.007472 -0.0106    1.5216   
     2. B(H   2,C   1)                1.0904 -0.007960  0.0117    1.1020   
     3. B(H   3,C   1)                1.1008 -0.006040  0.0092    1.1100   
     4. B(O   4,C   1)                1.4149  0.005454 -0.0056    1.4093   
     5. B(C   5,O   4)                1.4149  0.005454 -0.0056    1.4093   
     6. B(C   6,C   5)                1.5322  0.007474 -0.0106    1.5216   
     7. B(H   7,C   6)                1.0904 -0.007961  0.0117    1.1020   
     8. B(H   8,C   6)                1.1008 -0.006040  0.0092    1.1100   
     9. B(O   9,C   6)                1.4149  0.005454 -0.0056    1.4093   
    10. B(O   9,C   0)                1.4149  0.005454 -0.0056    1.4093   
    11. B(H  10,C   5)                1.0904 -0.007960  0.0117    1.1020   
    12. B(H  11,C   5)                1.1008 -0.006039  0.0092    1.1100   
    13. B(H  12,C   0)                1.0904 -0.007962  0.0117    1.1020   
    14. B(H  13,C   0)                1.1008 -0.006044  0.0092    1.1100   
    15. A(C   1,C   0,H  13)          109.33  0.000222   -0.10    109.23   
    16. A(O   9,C   0,H  12)          106.45 -0.001148    0.32    106.78   
    17. A(C   1,C   0,O   9)          110.67  0.000482   -0.09    110.58   
    18. A(H  12,C   0,H  13)          109.81  0.001027   -0.39    109.42   
    19. A(C   1,C   0,H  12)          110.85  0.000089    0.02    110.88   
    20. A(O   9,C   0,H  13)          109.69 -0.000699    0.24    109.94   
    21. A(H   3,C   1,O   4)          109.69 -0.000242    0.23    109.93   
    22. A(H   2,C   1,H   3)          109.81  0.000856   -0.38    109.43   
    23. A(C   0,C   1,H   2)          110.85 -0.000040    0.03    110.88   
    24. A(H   2,C   1,O   4)          106.45 -0.001428    0.32    106.78   
    25. A(C   0,C   1,O   4)          110.67  0.000667   -0.10    110.57   
    26. A(C   0,C   1,H   3)          109.33  0.000162   -0.10    109.23   
    27. A(C   1,O   4,C   5)          110.51 -0.001556    0.24    110.75   
    28. A(H  10,C   5,H  11)          109.81  0.001027   -0.39    109.42   
    29. A(C   6,C   5,H  11)          109.33  0.000223   -0.10    109.23   
    30. A(O   4,C   5,H  11)          109.69 -0.000699    0.24    109.94   
    31. A(C   6,C   5,H  10)          110.85  0.000088    0.02    110.87   
    32. A(O   4,C   5,H  10)          106.45 -0.001147    0.32    106.78   
    33. A(O   4,C   5,C   6)          110.67  0.000481   -0.09    110.58   
    34. A(H   8,C   6,O   9)          109.69 -0.000243    0.23    109.93   
    35. A(H   7,C   6,O   9)          106.45 -0.001429    0.32    106.77   
    36. A(C   5,C   6,O   9)          110.67  0.000667   -0.10    110.57   
    37. A(H   7,C   6,H   8)          109.81  0.000857   -0.39    109.43   
    38. A(C   5,C   6,H   8)          109.33  0.000161   -0.10    109.23   
    39. A(C   5,C   6,H   7)          110.85 -0.000039    0.03    110.88   
    40. A(C   0,O   9,C   6)          110.51 -0.001557    0.24    110.75   
    41. D(H   2,C   1,C   0,O   9)   -175.03  0.000190   -0.18   -175.20   
    42. D(H   3,C   1,C   0,O   9)     63.78 -0.000959    0.35     64.13   
    43. D(H   3,C   1,C   0,H  13)   -175.29 -0.001378    0.53   -174.76   
    44. D(H   2,C   1,C   0,H  13)    -54.10 -0.000229    0.00    -54.09   
    45. D(H   3,C   1,C   0,H  12)    -54.10  0.000106   -0.01    -54.11   
    46. D(H   2,C   1,C   0,H  12)     67.10  0.001255   -0.54     66.56   
    47. D(C   5,O   4,C   1,C   0)     57.05  0.000004    0.01     57.07   
    48. D(C   5,O   4,C   1,H   3)    -63.66 -0.000467    0.04    -63.62   
    49. D(C   5,O   4,C   1,H   2)    177.59 -0.000541    0.19    177.78   
    50. D(H  11,C   5,O   4,C   1)     63.66  0.000235   -0.04     63.62   
    51. D(H  10,C   5,O   4,C   1)   -177.59  0.000428   -0.19   -177.78   
    52. D(C   6,C   5,O   4,C   1)    -57.05  0.000104   -0.02    -57.07   
    53. D(H   7,C   6,C   5,H  11)     54.09  0.000229   -0.00     54.09   
    54. D(H   7,C   6,C   5,H  10)    -67.10 -0.001255    0.54    -66.56   
    55. D(H   7,C   6,C   5,O   4)    175.02 -0.000190    0.18    175.20   
    56. D(H   8,C   6,C   5,H  11)    175.29  0.001378   -0.53    174.76   
    57. D(H   8,C   6,C   5,H  10)     54.09 -0.000105    0.01     54.10   
    58. D(H   8,C   6,C   5,O   4)    -63.78  0.000960   -0.35    -64.13   
    59. D(C   0,O   9,C   6,H   8)     63.66  0.000467   -0.04     63.62   
    60. D(C   0,O   9,C   6,H   7)   -177.59  0.000541   -0.19   -177.78   
    61. D(C   0,O   9,C   6,C   5)    -57.05 -0.000004   -0.01    -57.07   
    62. D(C   6,O   9,C   0,H  13)    -63.66 -0.000234    0.04    -63.62   
    63. D(C   6,O   9,C   0,H  12)    177.59 -0.000427    0.19    177.78   
    64. D(C   6,O   9,C   0,C   1)     57.05 -0.000104    0.02     57.07   
    ----------------------------------------------------------------------------

Geometry step timings:
Preparation and reading OPT file:      0.004 s (10.315 %)
Internal coordinates            :      0.000 s ( 0.069 %)
B/P matrices and projection     :      0.001 s ( 1.471 %)
Hessian update/contruction      :      0.019 s (50.444 %)
Making the step                 :      0.000 s ( 1.130 %)
Converting the step to Cartesian:      0.000 s ( 0.160 %)
Storing new data                :      0.006 s (16.757 %)
Checking convergence            :      0.000 s ( 0.021 %)
Final printing                  :      0.007 s (19.607 %)
Total time                      :      0.038 s

Time for energy+gradient        :     59.220 s
Time for complete geometry iter :     61.340 s

         *************************************************************
         *                GEOMETRY OPTIMIZATION CYCLE   2            *
         *************************************************************
---------------------------------
CARTESIAN COORDINATES (ANGSTROEM)
---------------------------------
  C      0.729121   -1.159621    0.217300
  C     -0.729059   -1.159722   -0.217328
  H     -1.266774   -2.020535    0.211974
  H     -0.780366   -1.207559   -1.325106
  O     -1.383454   -0.000066    0.244207
  C     -0.729127    1.159631   -0.217321
  C      0.729056    1.159732    0.217301
  H      1.266770    2.020541   -0.212010
  H      0.780368    1.207571    1.325079
  O      1.383451    0.000074   -0.244233
  H     -1.266888    2.020413    0.211985
  H     -0.780445    1.207658   -1.325090
  H      1.266889   -2.020404   -0.211994
  H      0.780428   -1.207635    1.325070

----------------------------
CARTESIAN COORDINATES (A.U.)
----------------------------
  NO LB      ZA    FRAG     MASS         X           Y           Z
   0 C     6.0000    0    12.011    1.377839   -2.191366    0.410638
   1 C     6.0000    0    12.011   -1.377721   -2.191558   -0.410691
   2 H     1.0000    0     1.008   -2.393857   -3.818257    0.400574
   3 H     1.0000    0     1.008   -1.474677   -2.281956   -2.504087
   4 O     8.0000    0    15.999   -2.614349   -0.000125    0.461484
   5 C     6.0000    0    12.011   -1.377850    2.191385   -0.410678
   6 C     6.0000    0    12.011    1.377716    2.191576    0.410639
   7 H     1.0000    0     1.008    2.393849    3.818268   -0.400642
   8 H     1.0000    0     1.008    1.474681    2.281979    2.504036
   9 O     8.0000    0    15.999    2.614343    0.000141   -0.461534
  10 H     1.0000    0     1.008   -2.394071    3.818027    0.400594
  11 H     1.0000    0     1.008   -1.474827    2.282143   -2.504057
  12 H     1.0000    0     1.008    2.394074   -3.818011   -0.400611
  13 H     1.0000    0     1.008    1.474796   -2.282099    2.504019

--------------------------------
INTERNAL COORDINATES (ANGSTROEM)
--------------------------------
 C      0   0   0     0.000000000000     0.00000000     0.00000000
 C      1   0   0     1.521574984390     0.00000000     0.00000000
 H      2   1   0     1.102015041376   110.87835908     0.00000000
 H      2   1   3     1.109996247293   109.23069859   239.33422458
 O      2   1   3     1.409273096884   110.57296577   118.23590510
 C      5   2   1     1.409273146205   110.75030862    57.06744782
 C      6   5   2     1.521575876372   110.57704537   302.93050435
 H      7   6   5     1.102014579754   110.87828447   175.20211908
 H      7   6   5     1.109996835425   109.23068311   295.86814702
 O      7   6   5     1.409273710768   110.57307247    56.96644414
 H      6   5   2     1.102014706365   106.77530308   182.22064944
 H      6   5   2     1.109996356722   109.93631698    63.62180493
 H      1   2   3     1.102014499333   110.87493139    66.56062799
 H      1   2   3     1.109995977402   109.23024680   305.90759488

---------------------------
INTERNAL COORDINATES (A.U.)
---------------------------
 C      0   0   0     0.000000000000     0.00000000     0.00000000
 C      1   0   0     2.875360012722     0.00000000     0.00000000
 H      2   1   0     2.082506623663   110.87835908     0.00000000
 H      2   1   3     2.097588917065   109.23069859   239.33422458
 O      2   1   3     2.663140201015   110.57296577   118.23590510
 C      5   2   1     2.663140294216   110.75030862    57.06744782
 C      6   5   2     2.875361698325   110.57704537   302.93050435
 H      7   6   5     2.082505751324   110.87828447   175.20211908
 H      7   6   5     2.097590028473   109.23068311   295.86814702
 O      7   6   5     2.663141361086   110.57307247    56.96644414
 H      6   5   2     2.082505990583   106.77530308   182.22064944
 H      6   5   2     2.097589123855   109.93631698    63.62180493
 H      1   2   3     2.082505599349   110.87493139    66.56062799
 H      1   2   3     2.097588407044   109.23024680   305.90759488



           ************************************************************
           *        Program running with 4 parallel MPI-processes     *
           *              working on a common directory               *
           ************************************************************
------------------------------------------------------------------------------
                   ___                                                        
                  /   \      - P O W E R E D   B Y -                         
                 /     \                                                     
                 |  |  |   _    _      __       _____    __    __             
                 |  |  |  | |  | |    /  \     |  _  \  |  |  /  |          
                  \  \/   | |  | |   /    \    | | | |  |  | /  /          
                 / \  \   | |__| |  /  /\  \   | |_| |  |  |/  /          
                |  |  |   |  __  | /  /__\  \  |    /   |      \           
                |  |  |   | |  | | |   __   |  |    \   |  |\   \          
                \     /   | |  | | |  |  |  |  | |\  \  |  | \   \       
                 \___/    |_|  |_| |__|  |__|  |_| \__\ |__|  \__/        
                                                                              
                      - O R C A' S   B I G   F R I E N D -                    
                                      &                                       
                       - I N T E G R A L  F E E D E R -                       
                                                                              
 v1 FN, 2020, v2 2021, v3 2022-2024                                           
------------------------------------------------------------------------------


----------------------
SHARK INTEGRAL PACKAGE
----------------------

Number of atoms                             ...     14
Number of basis functions                   ...    100
Number of shells                            ...     52
Maximum angular momentum                    ...      2
Integral batch strategy                     ... SHARK/LIBINT Hybrid
RI-J (if used) integral strategy            ... SPLIT-RIJ (Revised 2003 algorithm where possible)
Printlevel                                  ...      1
Contraction scheme used                     ... SEGMENTED contraction
Prescreening option                         ... SCHWARTZ
   Thresh                                   ... 2.500e-11
   Tcut                                     ... 2.500e-12
   Tpresel                                  ... 2.500e-12 
Coulomb Range Separation                    ... NOT USED
Exchange Range Separation                   ... NOT USED
Multipole approximations                    ... NOT USED
Finite Nucleus Model                        ... NOT USED
CABS basis                                  ... NOT available
Auxiliary Coulomb fitting basis             ... AVAILABLE
   # of basis functions in Aux-J            ...    382
   # of shells in Aux-J                     ...    130
   Maximum angular momentum in Aux-J        ...      4
Auxiliary J/K fitting basis                 ... NOT available
Auxiliary Correlation fitting basis         ... NOT available
Auxiliary 'external' fitting basis          ... NOT available

Checking pre-screening integrals            ... done (  0.0 sec) Dimension = 52
Check shell pair data                       ... done (  0.0 sec)
Shell pair information
Shell pair cut-off parameter TPreSel        ...   2.5e-12
Total number of shell pairs                 ...      1378
Shell pairs after pre-screening             ...      1369
Total number of primitive shell pairs       ...      5562
Primitive shell pairs kept                  ...      4321
          la=0 lb=0:    586 shell pairs
          la=1 lb=0:    408 shell pairs
          la=1 lb=1:     78 shell pairs
          la=2 lb=0:    204 shell pairs
          la=2 lb=1:     72 shell pairs
          la=2 lb=2:     21 shell pairs

Calculating one electron integrals          ... done (  0.0 sec)
Calculating RI/J V-Matrix + Cholesky decomp.... done (  0.0 sec)
Calculating Nuclear repulsion               ... done (  0.0 sec) ENN=    265.251619617701 Eh

Diagonalization of the overlap matrix:
Smallest eigenvalue                        ... 1.531e-03
Time for diagonalization                   ...    0.001 sec
Threshold for overlap eigenvalues          ... 1.000e-07
Number of eigenvalues below threshold      ... 0
Time for construction of square roots      ...    0.017 sec
Total time needed                          ...    0.050 sec

-------------------
DFT GRID GENERATION
-------------------

General Integration Accuracy     IntAcc      ... 4.388
Radial Grid Type                 RadialGrid  ... OptM3 with GC (2021)
Angular Grid (max. ang.)         AngularGrid ... 4 (Lebedev-302)
Angular grid pruning method      GridPruning ... 4 (adaptive)
[...]
     35      -0.035424   0.036773   0.043468   0.041237   0.487633   0.491365
     36      -0.016782  -0.049006   0.061613   0.033879   0.049061  -0.042717
     37       0.130041   0.102396   0.153726  -0.108240  -0.076113   0.066957
     38      -0.327323  -0.327278  -0.306106   0.309501  -0.043575   0.036548
     39      -0.147512  -0.118361  -0.085743  -0.001506   0.028317  -0.024624
     40       0.318245   0.335399   0.341579  -0.370050  -0.015939   0.023785
     41       0.035462   0.036725   0.043488  -0.041221   0.487836  -0.491064
                 36         37         38         39         40         41    
      0      -0.008974   0.008200   0.019756   0.022599  -0.017211   0.020747
      1       0.009727  -0.011291  -0.030751  -0.036380   0.026006  -0.032815
      2      -0.034683   0.034802  -0.027706  -0.030668   0.018287  -0.021511
      3      -0.009023   0.008217   0.019385   0.015639   0.023697  -0.021072
      4      -0.009767   0.011303   0.030169   0.025742   0.036546  -0.033326
      5      -0.034916   0.034871  -0.027323  -0.022904  -0.027379   0.021973
      6       0.066718  -0.063246  -0.234758  -0.192577  -0.279860   0.247069
      7       0.113793  -0.112336  -0.369085  -0.303921  -0.437374   0.384685
      8      -0.061690   0.058277   0.185466   0.154059   0.218669  -0.192747
      9       0.027946  -0.025337   0.011723   0.010117   0.008921  -0.006274
     10       0.013882  -0.023218   0.005309   0.007001   0.004958  -0.004394
     11       0.477613  -0.477228   0.132594   0.113810   0.109115  -0.077284
     12       0.000004  -0.001173   0.000001  -0.000714  -0.000121   0.000147
     13      -0.002332   0.000002   0.000720   0.000029  -0.000171  -0.000006
     14      -0.000004   0.000432  -0.000000   0.000586   0.000099  -0.000002
     15       0.008969   0.008204  -0.019739   0.022589  -0.017245  -0.020746
     16      -0.009720  -0.011296   0.030724  -0.036365   0.026059   0.032814
     17       0.034661   0.034816   0.027689  -0.030657   0.018332   0.021512
     18       0.009020   0.008222  -0.019419   0.015641   0.023681   0.021058
     19       0.009762   0.011309  -0.030221   0.025745   0.036521   0.033304
     20       0.034903   0.034892   0.027363  -0.022905  -0.027353  -0.021955
     21      -0.066695  -0.063282   0.235158  -0.192597  -0.279659  -0.246899
     22      -0.113750  -0.112397   0.369710  -0.303952  -0.437057  -0.384420
     23       0.061670   0.058310  -0.185780   0.154076   0.218512   0.192615
     24      -0.027936  -0.025353  -0.011736   0.010117   0.008909   0.006266
     25      -0.013872  -0.023228  -0.005317   0.007002   0.004954   0.004390
     26      -0.477433  -0.477510  -0.132756   0.113808   0.108980   0.077203
     27      -0.000003  -0.001173  -0.000001  -0.000714  -0.000121  -0.000147
     28       0.002332   0.000003  -0.000720   0.000029  -0.000172   0.000006
     29       0.000004   0.000432  -0.000000   0.000586   0.000099   0.000001
     30      -0.066408  -0.063177   0.238909  -0.274212   0.201071   0.243119
     31       0.113285   0.112220  -0.375502   0.431283  -0.313229  -0.378429
     32       0.061420   0.058214  -0.188690   0.217627  -0.155916  -0.189612
     33      -0.027777  -0.025295  -0.011829   0.012494  -0.005101  -0.006077
     34       0.013737   0.023210   0.005388  -0.008252   0.002384   0.004308
     35      -0.474227  -0.476489  -0.133862   0.143416  -0.065643  -0.075039
     36       0.066446  -0.063147  -0.239115  -0.274327   0.200661  -0.243128
     37      -0.113351   0.112167   0.375821   0.431462  -0.312587   0.378442
     38      -0.061454   0.058185   0.188848   0.217717  -0.155593   0.189617
     39       0.027792  -0.025284   0.011832   0.012498  -0.005084   0.006076
     40      -0.013750   0.023206  -0.005389  -0.008255   0.002376  -0.004306
     41       0.474527  -0.476293   0.133917   0.143462  -0.065441   0.075027


-----------
IR SPECTRUM
-----------

 Mode   freq       eps      Int      T**2         TX        TY        TZ
       cm**-1   L/(mol*cm) km/mol    a.u.
----------------------------------------------------------------------------
  6:    256.97   0.000219    1.11  0.000266  (-0.000010 -0.016296 -0.000020)
  7:    277.68   0.003763   19.02  0.004229  ( 0.031638 -0.000006  0.056813)
  8:    431.04   0.000000    0.00  0.000000  (-0.000000  0.000000  0.000000)
  9:    442.87   0.000000    0.00  0.000000  ( 0.000000 -0.000000  0.000000)
 10:    497.58   0.000000    0.00  0.000000  (-0.000001  0.000000 -0.000000)
 11:    621.03   0.002262   11.43  0.001137  (-0.030817 -0.000000 -0.013669)
 12:    881.96   0.000000    0.00  0.000000  ( 0.000001 -0.000001 -0.000001)
 13:    884.05   0.000000    0.00  0.000000  ( 0.000000 -0.000000  0.000000)
 14:    919.59   0.003208   16.21  0.001089  (-0.000028  0.032996  0.000013)
 15:    938.16   0.014722   74.40  0.004897  ( 0.063419  0.000008 -0.029582)
 16:   1062.56   0.000000    0.00  0.000000  ( 0.000000  0.000000  0.000001)
 17:   1086.74   0.002368   11.97  0.000680  (-0.012125 -0.000008 -0.023084)
 18:   1123.86   0.000211    1.07  0.000059  ( 0.000001 -0.007659  0.000001)
 19:   1159.00   0.000000    0.00  0.000000  (-0.000000  0.000001 -0.000001)
 20:   1205.47   0.000000    0.00  0.000000  (-0.000000  0.000011 -0.000000)
 21:   1214.45   0.033514  169.37  0.008612  ( 0.000001 -0.092799  0.000001)
 22:   1255.99   0.000000    0.00  0.000000  ( 0.000000  0.000004 -0.000000)
 23:   1303.54   0.017238   87.12  0.004127  ( 0.000002 -0.064240 -0.000000)
 24:   1333.33   0.002345   11.85  0.000549  (-0.002458 -0.000009  0.023296)
 25:   1342.18   0.000000    0.00  0.000000  ( 0.000000 -0.000000 -0.000001)
 26:   1366.88   0.000000    0.00  0.000000  ( 0.000000 -0.000000 -0.000000)
 27:   1410.64   0.007915   40.00  0.001751  ( 0.000012 -0.041845 -0.000005)
 28:   1420.53   0.001193    6.03  0.000262  (-0.013247 -0.000036  0.009307)
 29:   1444.10   0.000000    0.00  0.000000  ( 0.000000  0.000000  0.000000)
 30:   1469.16   0.000000    0.00  0.000000  ( 0.000001  0.000003  0.000001)
 31:   1471.25   0.000173    0.88  0.000037  ( 0.000005  0.006063  0.000007)
 32:   1485.97   0.003392   17.14  0.000712  (-0.019017 -0.000006 -0.018727)
 33:   1491.17   0.000000    0.00  0.000000  (-0.000004 -0.000000 -0.000004)
 34:   2982.67   0.009493   47.98  0.000993  (-0.000016  0.031516 -0.000060)
 35:   2988.15   0.000000    0.00  0.000000  (-0.000001  0.000008 -0.000002)
 36:   2992.81   0.000000    0.00  0.000000  (-0.000004  0.000002 -0.000014)
 37:   2997.42   0.033066  167.10  0.003442  ( 0.015398  0.000031  0.056616)
 38:   3121.92   0.000000    0.00  0.000000  (-0.000003 -0.000024  0.000005)
 39:   3122.54   0.007781   39.32  0.000778  ( 0.015508 -0.006550 -0.022233)
 40:   3122.65   0.015147   76.55  0.001514  ( 0.002625  0.038635 -0.003767)
 41:   3124.16   0.000000    0.00  0.000000  (-0.000003 -0.000007  0.000004)

* The epsilon (eps) is given for a Dirac delta lineshape.
** The dipole moment derivative (T) already includes vibrational overlap.

The first frequency considered to be a vibration is 6
The total number of vibrations considered is 36


--------------------------
THERMOCHEMISTRY AT 298.15K
--------------------------

Temperature         ...   298.15 K
Pressure            ...     1.00 atm
Total Mass          ...    88.11 AMU
Quasi RRHO          ...     True
Cut-Off Frequency   ...     1.00 cm^-1

Throughout the following assumptions are being made:
  (1) The electronic state is orbitally nondegenerate
  (2) There are no thermally accessible electronically excited states
  (3) Hindered rotations indicated by low frequency modes are not
      treated as such but are treated as vibrations and this may
      cause some error
  (4) All equations used are the standard statistical mechanics
      equations for an ideal gas
  (5) All vibrations are strictly harmonic

freq.     256.97  E(vib)   ...       0.30 
freq.     277.68  E(vib)   ...       0.28 
freq.     431.04  E(vib)   ...       0.18 
freq.     442.87  E(vib)   ...       0.17 
freq.     497.58  E(vib)   ...       0.14 
freq.     621.03  E(vib)   ...       0.09 
freq.     881.96  E(vib)   ...       0.04 
freq.     884.05  E(vib)   ...       0.04 
freq.     919.59  E(vib)   ...       0.03 
freq.     938.16  E(vib)   ...       0.03 
freq.    1062.56  E(vib)   ...       0.02 
freq.    1086.74  E(vib)   ...       0.02 
freq.    1123.86  E(vib)   ...       0.01 
freq.    1159.00  E(vib)   ...       0.01 
freq.    1205.47  E(vib)   ...       0.01 
freq.    1214.45  E(vib)   ...       0.01 
freq.    1255.99  E(vib)   ...       0.01 
freq.    1303.54  E(vib)   ...       0.01 
freq.    1333.33  E(vib)   ...       0.01 
freq.    1342.18  E(vib)   ...       0.01 
freq.    1366.88  E(vib)   ...       0.01 
freq.    1410.64  E(vib)   ...       0.00 
freq.    1420.53  E(vib)   ...       0.00 
freq.    1444.10  E(vib)   ...       0.00 
freq.    1469.16  E(vib)   ...       0.00 
freq.    1471.25  E(vib)   ...       0.00 
freq.    1485.97  E(vib)   ...       0.00 
freq.    1491.17  E(vib)   ...       0.00 
freq.    2982.67  E(vib)   ...       0.00 
freq.    2988.15  E(vib)   ...       0.00 
freq.    2992.81  E(vib)   ...       0.00 
freq.    2997.42  E(vib)   ...       0.00 
freq.    3121.92  E(vib)   ...       0.00 
freq.    3122.54  E(vib)   ...       0.00 
freq.    3122.65  E(vib)   ...       0.00 
freq.    3124.16  E(vib)   ...       0.00 

------------
INNER ENERGY
------------

The inner energy is: U= E(el) + E(ZPE) + E(vib) + E(rot) + E(trans)
    E(el)   - is the total energy from the electronic structure calculation
              = E(kin-el) + E(nuc-el) + E(el-el) + E(nuc-nuc)
    E(ZPE)  - the the zero temperature vibrational energy from the frequency calculation
    E(vib)  - the the finite temperature correction to E(ZPE) due to population
              of excited vibrational states
    E(rot)  - is the rotational thermal energy
    E(trans)- is the translational thermal energy

Summary of contributions to the inner energy U:
Electronic energy                ...   -307.07706463 Eh
Zero point energy                ...      0.12359077 Eh      77.55 kcal/mol
Thermal vibrational correction   ...      0.00228621 Eh       1.43 kcal/mol
Thermal rotational correction    ...      0.00141627 Eh       0.89 kcal/mol
Thermal translational correction ...      0.00141627 Eh       0.89 kcal/mol
-----------------------------------------------------------------------
Total thermal energy                   -306.94835511 Eh


Summary of corrections to the electronic energy:
(perhaps to be used in another calculation)
Total thermal correction                  0.00511875 Eh       3.21 kcal/mol
Non-thermal (ZPE) correction              0.12359077 Eh      77.55 kcal/mol
-----------------------------------------------------------------------
Total correction                          0.12870952 Eh      80.77 kcal/mol


--------
ENTHALPY
--------

The enthalpy is H = U + kB*T
                kB is Boltzmann's constant
Total thermal energy              ...   -306.94835511 Eh 
Thermal Enthalpy correction       ...      0.00094421 Eh       0.59 kcal/mol
-----------------------------------------------------------------------
Total Enthalpy                    ...   -306.94741091 Eh


Note: Rotational entropy computed according to Herzberg 
Infrared and Raman Spectra, Chapter V,1, Van Nostrand Reinhold, 1945 
Point Group:  C2h, Symmetry Number:   2  
Rotational constants in cm-1:     0.171669     0.158105     0.092537 

Vibrational entropy computed according to the QRRHO of S. Grimme
Chem.Eur.J. 2012 18 9955 using a reference frequency of 100.0 cm-1


-------
ENTROPY
-------

The entropy contributions are T*S = T*(S(el)+S(vib)+S(rot)+S(trans))
     S(el)   - electronic entropy
     S(vib)  - vibrational entropy
     S(rot)  - rotational entropy
     S(trans)- translational entropy
The entropies will be listed as multiplied by the temperature to get
units of energy

Electronic entropy                ...      0.00000000 Eh      0.00 kcal/mol
Vibrational entropy               ...      0.00337143 Eh      2.12 kcal/mol
Rotational entropy                ...      0.01168268 Eh      7.33 kcal/mol
Translational entropy             ...      0.01869190 Eh     11.73 kcal/mol
-----------------------------------------------------------------------
Final entropy term                ...      0.03374601 Eh     21.18 kcal/mol

In case the symmetry of your molecule has not been determined correctly
or in case you have a reason to use a different symmetry number we print 
out the resulting rotational entropy values for sn=1,12:

 non-linear molecules -----------------------------------
|  sn= 1 | S(rot)=       0.01233714 Eh      7.74 kcal/mol|
|  sn= 2 | S(rot)=       0.01168268 Eh      7.33 kcal/mol|
|  sn= 3 | S(rot)=       0.01129985 Eh      7.09 kcal/mol|
|  sn= 4 | S(rot)=       0.01102822 Eh      6.92 kcal/mol|
|  sn= 5 | S(rot)=       0.01081753 Eh      6.79 kcal/mol|
|  sn= 6 | S(rot)=       0.01064539 Eh      6.68 kcal/mol|
|  sn= 7 | S(rot)=       0.01049984 Eh      6.59 kcal/mol|
|  sn= 8 | S(rot)=       0.01037377 Eh      6.51 kcal/mol|
|  sn= 9 | S(rot)=       0.01026256 Eh      6.44 kcal/mol|
|  sn=10 | S(rot)=       0.01016308 Eh      6.38 kcal/mol|
|  sn=11 | S(rot)=       0.01007309 Eh      6.32 kcal/mol|
|  sn=12 | S(rot)=       0.00999093 Eh      6.27 kcal/mol|
 linear molecules ---------------------------------------
|  Dinfh | S(rot)=       0.00757309 Eh      4.75 kcal/mol|
|  Cinfv | S(rot)=       0.00822755 Eh      5.16 kcal/mol|
 --------------------------------------------------------


-------------------
GIBBS FREE ENERGY
-------------------

The Gibbs free energy is G = H - T*S

Total enthalpy                    ...   -306.94741091 Eh 
Total entropy correction          ...     -0.03374601 Eh    -21.18 kcal/mol
-----------------------------------------------------------------------
Final Gibbs free energy         ...   -306.98115691 Eh

For completeness - the Gibbs free energy minus the electronic energy
G-E(el)                           ...      0.09590772 Eh     60.18 kcal/mol


Maximum memory used throughout the entire PROP-calculation: 29.9 MB

--------------------------------
SUGGESTED CITATIONS FOR THIS RUN
--------------------------------

Below you find a list of papers that are relevant to this ORCA run
We neither can nor want to force you to cite these papers, but we appreciate if you do
You receive ORCA, which is the product of decades of hard work by many enthusiastic individuals, for free
The only thing we kindly ask in return is that you cite our papers,
We deeply appreciate it, if you show your appreciation for ORCA by not just citing the generic ORCA reference.

Please note that relegating all ORCA citations to the supporting information does *not* help us.
SI sections are not indexed - citations you put there will not count into any citation statistics
But we need these citations in order to attract the funding resources that allow us to do what we are doing

Therefore, if you are a happy ORCA user, please consider citing a few of the papers listed below in the main body of your paper

In addition to the list printed below, the program has created the file cs_rporg_062_red_opt_01.bibtex that contains the list in bibtex format
You can import this file easily into all common literature databanks and citation aid programs


List of essential papers. We consider these as the minimum necessary citations

  1. Neese,F.
     Software update: the ORCA program system, version 5.0
     WIRES Comput. Molec. Sci., 2022 12(1)e1606
     doi.org/10.1002/wcms.1606

List of papers to cite with high priority. The work reported in these papers was absolutely
necessary for this run to complete.
Our perspective: the developers of density functionals and basis sets usually get cited in chemistry papers
Good! But without the algorithms to do something with them, the functionals or basis sets would not do anything.
Hence, in our opinion, the algorithm design and method developments papers are equally worthy of getting cited

  1. Neese,F.
     An improvement of the resolution of the identity approximation for the formation of the Coulomb matrix
     J. Comp. Chem., 2003 24(14)1740-1747
     doi.org/10.1002/jcc.10318
  2. Neese,F.; Wennmohs,F.; Hansen,A.; Becker,U.
     Efficient, approximate and parallel Hartree-Fock and hybrid DFT calculations. A 'chain-of-spheres' algorithm for the Hartree-Fock exchange
     Chem. Phys., 2009 356(1-3)98-109
     doi.org/10.1016/j.chemphys.2008.10.036
  3. Bykov,D.; Petrenko,T.; Izsak,R.; Kossmann,S.; Becker,U.; Valeev,E.; Neese,F.
     Efficient implementation of the analytic second derivatives of Hartree-Fock and hybrid DFT energies: a detailed analysis of different approximations
     Molec. Phys., 2015 113 1961-1977
     doi.org/10.1080/00268976.2015.1025114
  4. Helmich-Paris,B.; de Souza,B.; Neese,F.; Izsák,R.
     An improved chain of spheres for exchange algorithm
     J. Chem. Phys., 2021 155 104109
     doi.org/doi: 10.1063/5.0058766.
  5. Neese,F.
     The SHARK Integral Generation and Digestion System
     J. Comp. Chem., 2022  1-16
     doi.org/10.1002/jcc.26942
  6. Grimme,S.; Antony,J.; Ehrlich,S.; Krieg,H.
     A consistent and accurate ab initio parametrization of density functional dispersion correction (DFT-D) for the 94 elements H-Pu
     J. Chem. Phys., 2010 132 154104-XXXX
     doi.org/10.1063/1.3382344
  7. Grimme,S.; Ehrlich,S.; Goerigk,L.
     Effect of the damping function in dispersion corrected density functional theory
     J. Comput. Chem., 2011 32(7)1456-1465
     doi.org/10.1002/jcc.21759

List of suggested additional citations. These are papers that are important in the 'surrounding' of 
of this run, or papers that preceded the highly important papers. If you like your results we are grateful for a citation.

  1. Izsak,R.; Neese,F.
     An overlap fitted chain of spheres exchange method
     J. Chem. Phys., 2011 135 144105
     doi.org/10.1063/1.3646921
  2. Izsak,R.; Hansen,A.; Neese,F.
     The resolution of identity and chain of spheres approximations for the LPNO-CCSD singles Fock term
     Molec. Phys., 2012 110 2413-2417
     doi.org/10.1080/00268976.2012.687466
  3. Neese,F.
     The ORCA program system
     WIRES Comput. Molec. Sci., 2012 2(1)73-78
     doi.org/10.1002/wcms.81
  4. Izsak,R.; Neese,F.; Klopper,W.
     Robust fitting techniques in the chain of spheres approximation to the Fock exchange: The role of the complementary space
     J. Chem. Phys., 2013 139 
     doi.org/10.1063/1.4819264
  5. Neese,F.
     Software update: the ORCA program system, version 4.0
     WIRES Comput. Molec. Sci., 2018 8(1)1-6
     doi.org/10.1002/wcms.1327
  6. Neese,F.; Wennmohs,F.; Becker,U.; Riplinger,C.
     The ORCA quantum chemistry program package
     J. Chem. Phys., 2020 152 Art. No. L224108
     doi.org/10.1063/5.0004608

List of optional additional citations

  1. Neese,F.
     Approximate second-order SCF convergence for spin unrestricted wavefunctions
     Chem. Phys. Lett., 2000 325(1-3)93-98
     doi.org/10.1016/s0009-2614(00)00662-x

Timings for individual modules:

Sum of individual times          ...      294.601 sec (=   4.910 min)
Startup calculation              ...       19.743 sec (=   0.329 min)   6.7 %
SCF iterations                   ...      118.469 sec (=   1.974 min)  40.2 %
Property integrals               ...       24.885 sec (=   0.415 min)   8.4 %
SCF Response                     ...       57.083 sec (=   0.951 min)  19.4 %
Property calculations            ...       45.350 sec (=   0.756 min)  15.4 %
SCF Gradient evaluation          ...       28.659 sec (=   0.478 min)   9.7 %
Geometry relaxation              ...        0.412 sec (=   0.007 min)   0.1 %
                             ****ORCA TERMINATED NORMALLY****
TOTAL RUN TIME: 0 days 0 hours 5 minutes 14 seconds 306 msec
