 vasp.6.3.2 27Jun22 (build Oct 25 2024 11:36:28) complex                        
  
 executed on             LinuxIFC date 2024.12.20  02:54:24
 running on   80 total cores
 distrk:  each k-point on   80 cores,    1 groups
 distr:  one band on NCORE=  10 cores,    8 groups


--------------------------------------------------------------------------------------------------------


 INCAR:
   SYSTEM = 076_red
   ISTART = 1
   ICHARG = 2
   INIWAV = 1
   NELM = 100
   ALGO = fast   	
   ISPIN = 2
   EDIFF = 1E-05
   ISMEAR = 0
   SIGMA = 0.05
   PREC = accurate
   ENCUT = 500
   LREAL = auto  	
   LWAVE = .TRUE.
   LCHARG = .FALSE.
   LAECHG = .FALSE.
   LVHAR = .FALSE.
   LVTOT = .FALSE.
   EDIFFG = -0.02
   IBRION = 2
   NSW = 500
   ISIF = 2
   POTIM = 0.5
   IVDW = 11
   LPLANE = .TRUE.
   NCORE = 10
   LSCALU = .FALSE.
   NSIM = 4
   LSOL = .TRUE.
   ISOL = 2
   R_SOLV = 2.1900
   EPSILON_INF = 1.8069
   N_MOL = 0.0115
   P_MOL = 0.82
   EB_K = 35.6880

 POTCAR:    PAW_PBE C 08Apr2002                   
 POTCAR:    PAW_PBE N 08Apr2002                   
 POTCAR:    PAW_PBE H 15Jun2001                   
 -----------------------------------------------------------------------------
|                                                                             |
|           W    W    AA    RRRRR   N    N  II  N    N   GGGG   !!!           |
|           W    W   A  A   R    R  NN   N  II  NN   N  G    G  !!!           |
|           W    W  A    A  R    R  N N  N  II  N N  N  G       !!!           |
|           W WW W  AAAAAA  RRRRR   N  N N  II  N  N N  G  GGG   !            |
|           WW  WW  A    A  R   R   N   NN  II  N   NN  G    G                |
|           W    W  A    A  R    R  N    N  II  N    N   GGGG   !!!           |
|                                                                             |
|     You use a magnetic or noncollinear calculation, but did not specify     |
|     the initial magnetic moment with the MAGMOM tag. Note that a            |
|     default of 1 will be used for all atoms. This ferromagnetic setup       |
|     may break the symmetry of the crystal, in particular it may rule        |
|     out finding an antiferromagnetic solution. Thence, we recommend         |
|     setting the initial magnetic moment manually or verifying carefully     |
|     that this magnetic setup is desired.                                    |
|                                                                             |
 -----------------------------------------------------------------------------

 POTCAR:    PAW_PBE C 08Apr2002                   
   SHA256 =  253f7b50bb8d59471dbedb8285d89021f4a42ed1a2c5d38a03a736e69125dd95 C/POTCAR              
   COPYR  = (c) Copyright 08Apr2002 Georg Kresse                                                    
   COPYR  = This file is part of the software VASP. Any use, copying, and all other rights are regul
   COPYR  = If you do not have a valid VASP license, you may not use, copy or distribute this file. 
   VRHFIN =C: s2p2                                                                                  
   LEXCH  = PE                                                                                      
   EATOM  =   147.1560 eV,   10.8157 Ry                                                             
                                                                                                    
   TITEL  = PAW_PBE C 08Apr2002                                                                     
   LULTRA =        F    use ultrasoft PP ?                                                          
   IUNSCR =        1    unscreen: 0-lin 1-nonlin 2-no                                               
   RPACOR =    1.200    partial core radius                                                         
   POMASS =   12.011; ZVAL   =    4.000    mass and valenz                                          
   RCORE  =    1.500    outmost cutoff radius                                                       
   RWIGS  =    1.630; RWIGS  =    0.863    wigner-seitz radius (au A)                               
   ENMAX  =  400.000; ENMIN  =  300.000 eV                                                          
   ICORE  =        2    local potential                                                             
   LCOR   =        T    correct aug charges                                                         
   LPAW   =        T    paw PP                                                                      
   EAUG   =  644.873                                                                                
   DEXC   =    0.000                                                                                
   RMAX   =    1.529    core radius for proj-oper                                                   
   RAUG   =    1.300    factor for augmentation sphere                                              
   RDEP   =    1.501    radius for radial grids                                                     
   RDEPT  =    1.300    core radius for aug-charge                                                  
                                                                                                    
   Atomic configuration                                                                             
    4 entries                                                                                       
     n  l   j            E        occ.                                                              
     1  0  0.50      -273.3789   2.0000                                                             
     2  0  0.50       -13.7508   2.0000                                                             
     2  1  0.50        -5.2854   2.0000                                                             
     3  2  1.50        -5.4423   0.0000                                                             
   Description                                                                                      
     l       E           TYP  RCUT    TYP  RCUT                                                     
     0    -13.7508458     23  1.200                                                                 
     0     -8.2022199     23  1.200                                                                 
     1     -5.2854383     23  1.500                                                                 
     1     34.0145650     23  1.500                                                                 
     2     -5.4423304      7  1.500                                                                 
  local pseudopotential read in
  partial core-charges read in
  partial kinetic energy density read in
  atomic valenz-charges read in
  non local Contribution for L=           0  read in
    real space projection operators read in
  non local Contribution for L=           0  read in
    real space projection operators read in
  non local Contribution for L=           1  read in
    real space projection operators read in
  non local Contribution for L=           1  read in
    real space projection operators read in
    PAW grid and wavefunctions read in
 
   number of l-projection  operators is LMAX  =           4
   number of lm-projection operators is LMMAX =           8
 
 POTCAR:    PAW_PBE N 08Apr2002                   
   SHA256 =  e053789ff3a61a86a1b75d8a110fcc91f86041011e7b0817c7c99e4e8a6349d7 N/POTCAR              
   COPYR  = (c) Copyright 08Apr2002 Georg Kresse                                                    
   COPYR  = This file is part of the software VASP. Any use, copying, and all other rights are regul
   COPYR  = If you do not have a valid VASP license, you may not use, copy or distribute this file. 
   VRHFIN =N: s2p3                                                                                  
   LEXCH  = PE                                                                                      
   EATOM  =   264.5486 eV,   19.4438 Ry                                                             
                                                                                                    
   TITEL  = PAW_PBE N 08Apr2002                                                                     
   LULTRA =        F    use ultrasoft PP ?                                                          
   IUNSCR =        1    unscreen: 0-lin 1-nonlin 2-no                                               
   RPACOR =    1.200    partial core radius                                                         
   POMASS =   14.001; ZVAL   =    5.000    mass and valenz                                          
   RCORE  =    1.500    outmost cutoff radius                                                       
   RWIGS  =    1.400; RWIGS  =    0.741    wigner-seitz radius (au A)                               
   ENMAX  =  400.000; ENMIN  =  300.000 eV                                                          
   ICORE  =        2    local potential                                                             
   LCOR   =        T    correct aug charges                                                         
   LPAW   =        T    paw PP                                                                      
   EAUG   =  627.112                                                                                
   DEXC   =    0.000                                                                                
   RMAX   =    1.529    core radius for proj-oper                                                   
   RAUG   =    1.300    factor for augmentation sphere                                              
   RDEP   =    1.514    radius for radial grids                                                     
   RDEPT  =    1.338    core radius for aug-charge                                                  
                                                                                                    
   Atomic configuration                                                                             
    4 entries                                                                                       
     n  l   j            E        occ.                                                              
     1  0  0.50      -384.7179   2.0000                                                             
     2  0  0.50       -18.5828   2.0000                                                             
     2  1  0.50        -7.0898   3.0000                                                             
     3  2  1.50        -6.8029   0.0000                                                             
   Description                                                                                      
     l       E           TYP  RCUT    TYP  RCUT                                                     
     0    -18.5828119     23  1.200                                                                 
     0    -13.5018863     23  1.200                                                                 
     1     -7.0897853     23  1.500                                                                 
     1      9.5240782     23  1.500                                                                 
     2     -6.8029130      7  1.500                                                                 
  local pseudopotential read in
  partial core-charges read in
  partial kinetic energy density read in
  atomic valenz-charges read in
  non local Contribution for L=           0  read in
    real space projection operators read in
  non local Contribution for L=           0  read in
    real space projection operators read in
  non local Contribution for L=           1  read in
    real space projection operators read in
  non local Contribution for L=           1  read in
    real space projection operators read in
    PAW grid and wavefunctions read in
 
   number of l-projection  operators is LMAX  =           4
   number of lm-projection operators is LMMAX =           8
 
 POTCAR:    PAW_PBE H 15Jun2001                   
   SHA256 =  030f79b5d3ab3cf0e668861823c8fb652ff669f3e15e46930bd03bfd63a607b6 H/POTCAR              
   COPYR  = (c) Copyright 15Jun2001 Georg Kresse                                                    
   COPYR  = This file is part of the software VASP. Any use, copying, and all other rights are regul
   COPYR  = If you do not have a valid VASP license, you may not use, copy or distribute this file. 
   VRHFIN =H: ultrasoft test                                                                        
   LEXCH  = PE                                                                                      
   EATOM  =    12.4884 eV,    0.9179 Ry                                                             
                                                                                                    
   TITEL  = PAW_PBE H 15Jun2001                                                                     
   LULTRA =        F    use ultrasoft PP ?                                                          
   IUNSCR =        0    unscreen: 0-lin 1-nonlin 2-no                                               
   RPACOR =    0.000    partial core radius                                                         
   POMASS =    1.000; ZVAL   =    1.000    mass and valenz                                          
   RCORE  =    1.100    outmost cutoff radius                                                       
   RWIGS  =    0.700; RWIGS  =    0.370    wigner-seitz radius (au A)                               
   ENMAX  =  250.000; ENMIN  =  200.000 eV                                                          
   RCLOC  =    0.701    cutoff for local pot                                                        
   LCOR   =        T    correct aug charges                                                         
   LPAW   =        T    paw PP                                                                      
   EAUG   =  400.000                                                                                
   RMAX   =    1.123    core radius for proj-oper                                                   
   RAUG   =    1.200    factor for augmentation sphere                                              
   RDEP   =    1.112    radius for radial grids                                                     
   RDEPT  =    0.926    core radius for aug-charge                                                  
                                                                                                    
   Atomic configuration                                                                             
    2 entries                                                                                       
     n  l   j            E        occ.                                                              
     1  0  0.50        -6.4927   1.0000                                                             
     2  1  0.50        -3.4015   0.0000                                                             
   Description                                                                                      
     l       E           TYP  RCUT    TYP  RCUT                                                     
     0     -6.4927494     23  1.100                                                                 
     0      6.8029130     23  1.100                                                                 
     1     -4.0817478     23  1.100                                                                 
  local pseudopotential read in
  atomic valenz-charges read in
  non local Contribution for L=           0  read in
    real space projection operators read in
  non local Contribution for L=           0  read in
    real space projection operators read in
  non local Contribution for L=           1  read in
    real space projection operators read in
    PAW grid and wavefunctions read in
 
   number of l-projection  operators is LMAX  =           3
   number of lm-projection operators is LMMAX =           5
 
 Optimization of the real space projectors (new method)

 maximal supplied QI-value         = 25.13
 optimisation between [QCUT,QGAM] = [ 11.31, 22.87] = [ 35.82,146.48] Ry 
 Optimized for a Real-space Cutoff    1.03 Angstroem

   l    n(q)    QCUT    max X(q) W(low)/X(q) W(high)/X(q)  e(spline) 
   0      7    11.310   115.676    0.20E-03    0.90E-03    0.20E-06
   0      7    11.310    87.132    0.20E-03    0.89E-03    0.19E-06
   1      6    11.310     4.429    0.16E-03    0.28E-03    0.12E-06
   1      6    11.310     2.733    0.12E-03    0.21E-03    0.99E-07
 Optimization of the real space projectors (new method)

 maximal supplied QI-value         = 25.13
 optimisation between [QCUT,QGAM] = [ 11.31, 22.87] = [ 35.82,146.48] Ry 
 Optimized for a Real-space Cutoff    1.43 Angstroem

   l    n(q)    QCUT    max X(q) W(low)/X(q) W(high)/X(q)  e(spline) 
   0     10    11.310    79.467    0.42E-04    0.81E-04    0.60E-06
   0     10    11.310    66.151    0.40E-04    0.81E-04    0.60E-06
   1      9    11.310    17.416    0.14E-03    0.88E-04    0.14E-05
   1      9    11.310    12.382    0.15E-03    0.93E-04    0.14E-05
 Optimization of the real space projectors (new method)

 maximal supplied QI-value         = 34.20
 optimisation between [QCUT,QGAM] = [ 11.29, 22.57] = [ 35.68,142.71] Ry 
 Optimized for a Real-space Cutoff    1.20 Angstroem

   l    n(q)    QCUT    max X(q) W(low)/X(q) W(high)/X(q)  e(spline) 
   0      8    11.287    19.460    0.22E-03    0.50E-03    0.19E-06
   0      8    11.287    12.209    0.21E-03    0.48E-03    0.18E-06
   1      8    11.287     4.655    0.21E-03    0.11E-04    0.26E-06
  PAW_PBE C 08Apr2002                   :
 energy of atom  1       EATOM= -147.1560
 kinetic energy error for atom=    0.0076 (will be added to EATOM!!)
  PAW_PBE N 08Apr2002                   :
 energy of atom  2       EATOM= -264.5486
 kinetic energy error for atom=    0.0138 (will be added to EATOM!!)
  PAW_PBE H 15Jun2001                   :
 energy of atom  3       EATOM=  -12.4884
 kinetic energy error for atom=    0.0020 (will be added to EATOM!!)
 
 
 POSCAR: C N H
  positions in direct lattice
  velocities in cartesian coordinates
 exchange correlation table for  LEXCH =        8
   RHO(1)=    0.500       N(1)  =     2000
   RHO(2)=  100.500       N(2)  =     4000
 
 POSCAR: C N H
  positions in direct lattice
  velocities in cartesian coordinates
 
 POSCAR: C N H
  positions in direct lattice
  velocities in cartesian coordinates
 


--------------------------------------------------------------------------------------------------------


 ion  position               nearest neighbor table
   1  0.442  0.471  0.493-  20 1.10  22 1.10  21 1.10   2 1.53
   2  0.469  0.498  0.493-  19 1.10   7 1.48   1 1.53   6 1.54
   3  0.532  0.494  0.492-  15 1.10   7 1.47   5 1.53   4 1.54
   4  0.540  0.531  0.491-  10 1.10  11 1.10   9 1.10   3 1.54
   5  0.560  0.474  0.508-  12 1.10  13 1.10  14 1.10   3 1.53
   6  0.456  0.530  0.511-  16 1.10  18 1.10  17 1.10   2 1.54
   7  0.500  0.485  0.508-   8 1.02   3 1.47   2 1.48
   8  0.501  0.491  0.533-   7 1.02
   9  0.542  0.541  0.517-   4 1.10
  10  0.521  0.546  0.478-   4 1.10
  11  0.564  0.536  0.479-   4 1.10
  12  0.555  0.447  0.508-   5 1.10
  13  0.584  0.479  0.496-   5 1.10
  14  0.563  0.482  0.535-   5 1.10
  15  0.530  0.485  0.466-   3 1.10
  16  0.475  0.550  0.511-   6 1.10
  17  0.450  0.524  0.537-   6 1.10
  18  0.433  0.539  0.500-   6 1.10
  19  0.475  0.505  0.467-   2 1.10
  20  0.451  0.449  0.479-   1 1.10
  21  0.436  0.463  0.518-   1 1.10
  22  0.419  0.480  0.481-   1 1.10
 
  LATTYP: Found a simple cubic cell.
 ALAT       =    40.0000000000
  
  Lattice vectors:
  
 A1 = (  40.0000000000,   0.0000000000,   0.0000000000)
 A2 = (   0.0000000000,  40.0000000000,   0.0000000000)
 A3 = (   0.0000000000,   0.0000000000,  40.0000000000)


Analysis of symmetry for initial positions (statically):
=====================================================================
 Subroutine PRICEL returns:
 Original cell was already a primitive cell.
 

 Routine SETGRP: Setting up the symmetry group for a 
 simple cubic supercell.


 Subroutine GETGRP returns: Found  1 space group operations
 (whereof  1 operations were pure point group operations)
 out of a pool of 48 trial point group operations.


The static configuration has the point symmetry C_1 .


Analysis of symmetry for dynamics (positions and initial velocities):
=====================================================================
 Subroutine PRICEL returns:
 Original cell was already a primitive cell.
 

 Routine SETGRP: Setting up the symmetry group for a 
 simple cubic supercell.


 Subroutine GETGRP returns: Found  1 space group operations
 (whereof  1 operations were pure point group operations)
 out of a pool of 48 trial point group operations.


The dynamic configuration has the point symmetry C_1 .


Analysis of constrained symmetry for selective dynamics:
=====================================================================
 Subroutine PRICEL returns:
 Original cell was already a primitive cell.
 

 Routine SETGRP: Setting up the symmetry group for a 
 simple cubic supercell.


 Subroutine GETGRP returns: Found  1 space group operations
 (whereof  1 operations were pure point group operations)
 out of a pool of 48 trial point group operations.


The constrained configuration has the point symmetry C_1 .


Analysis of structural, dynamic, and magnetic symmetry:
=====================================================================
 Subroutine PRICEL returns:
 Original cell was already a primitive cell.
 

 Routine SETGRP: Setting up the symmetry group for a 
 simple cubic supercell.


 Subroutine GETGRP returns: Found  1 space group operations
 (whereof  1 operations were pure point group operations)
 out of a pool of 48 trial point group operations.


The overall configuration has the point symmetry C_1 .


 Subroutine INISYM returns: Found  1 space group operations
 (whereof  1 operations are pure point group operations),
 and found     1 'primitive' translations


----------------------------------------------------------------------------------------

                                     Primitive cell                                     

  volume of cell :   64000.0000

  direct lattice vectors                    reciprocal lattice vectors
    40.000000000  0.000000000  0.000000000     0.025000000  0.000000000  0.000000000
     0.000000000 40.000000000  0.000000000     0.000000000  0.025000000  0.000000000
     0.000000000  0.000000000 40.000000000     0.000000000  0.000000000  0.025000000

  length of vectors
    40.000000000 40.000000000 40.000000000     0.025000000  0.025000000  0.025000000

  position of ions in fractional coordinates (direct lattice)
     0.442193207  0.471080938  0.492662922
     0.469154071  0.498381596  0.493178179
     0.531983925  0.493807804  0.491713216
     0.540350048  0.531407994  0.491244275
     0.560130219  0.474043890  0.508480432
     0.456084448  0.529692056  0.511189841
     0.500199503  0.484906027  0.507942168
     0.501349230  0.491033594  0.532740631
     0.542090406  0.541172560  0.516941632
     0.521247618  0.545885412  0.477817804
     0.564487416  0.535860756  0.478791339
     0.554863703  0.447102513  0.507888742
     0.584167267  0.478597896  0.495980649
     0.562861514  0.481648436  0.534817811
     0.529911035  0.485288586  0.465519006
     0.474531174  0.550017123  0.510923523
     0.450343869  0.523738251  0.537474564
     0.432950743  0.538942173  0.499527871
     0.474925543  0.505087406  0.467034265
     0.450974635  0.449041488  0.478840284
     0.436200233  0.463149328  0.518334682
     0.418999196  0.480116173  0.480957165

  ion indices of the primitive-cell ions
   primitive index   ion index
                 1           1
                 2           2
                 3           3
                 4           4
                 5           5
                 6           6
                 7           7
                 8           8
                 9           9
                10          10
                11          11
                12          12
                13          13
                14          14
                15          15
                16          16
                17          17
                18          18
                19          19
                20          20
                21          21
                22          22

----------------------------------------------------------------------------------------

 
 
 KPOINTS: K-Point Grid                            

Automatic generation of k-mesh.
 Grid dimensions read from file:
 generate k-points for:    1    1    1

 Generating k-lattice:

  Cartesian coordinates                     Fractional coordinates (reciprocal lattice)
     0.025000000  0.000000000  0.000000000     1.000000000  0.000000000  0.000000000
     0.000000000  0.025000000  0.000000000     0.000000000  1.000000000  0.000000000
     0.000000000  0.000000000  0.025000000     0.000000000  0.000000000  1.000000000

  Length of vectors
     0.025000000  0.025000000  0.025000000

  Shift w.r.t. Gamma in fractional coordinates (k-lattice)
     0.000000000  0.000000000  0.000000000

 
 Subroutine IBZKPT returns following result:
 ===========================================
 
 Found      1 irreducible k-points:
 
 Following reciprocal coordinates:
            Coordinates               Weight
  0.000000  0.000000  0.000000      1.000000
 
 Following cartesian coordinates:
            Coordinates               Weight
  0.000000  0.000000  0.000000      1.000000
 


--------------------------------------------------------------------------------------------------------




 Dimension of arrays:
   k-points           NKPTS =      1   k-points in BZ     NKDIM =      1   number of bands    NBANDS=     48
   number of dos      NEDOS =    301   number of ions     NIONS =     22
   non local maximal  LDIM  =      4   non local SUM 2l+1 LMDIM =      8
   total plane-waves  NPLWV = ******
   max r-space proj   IRMAX =   4928   max aug-charges    IRDMAX=   5085
   dimension x,y,z NGX =   294 NGY =  294 NGZ =  294
   dimension x,y,z NGXF=   588 NGYF=  588 NGZF=  588
   support grid    NGXF=   588 NGYF=  588 NGZF=  588
   ions per type =               6   1  15
   NGX,Y,Z   is equivalent  to a cutoff of  12.22, 12.22, 12.22 a.u.
   NGXF,Y,Z  is equivalent  to a cutoff of  24.44, 24.44, 24.44 a.u.

 SYSTEM =  076_red                                 
 POSCAR =  C N H                                   

 Startparameter for this run:
   NWRITE =      2    write-flag & timer
   PREC   = accura    normal or accurate (medium, high low for compatibility)
   ISTART =      1    job   : 0-new  1-cont  2-samecut
   ICHARG =      2    charge: 1-file 2-atom 10-const
   ISPIN  =      2    spin polarized calculation?
   LNONCOLLINEAR =      F non collinear calculations
   LSORBIT =      F    spin-orbit coupling
   INIWAV =      1    electr: 0-lowe 1-rand  2-diag
   LASPH  =      F    aspherical Exc in radial PAW
 Electronic Relaxation 1
   ENCUT  =  500.0 eV  36.75 Ry    6.06 a.u.  72.93 72.93 72.93*2*pi/ulx,y,z
   ENINI  =  500.0     initial cutoff
   ENAUG  =  644.9 eV  augmentation charge cutoff
   NELM   =    100;   NELMIN=  2; NELMDL=  0     # of ELM steps 
   EDIFF  = 0.1E-04   stopping-criterion for ELM
   LREAL  =      T    real-space projection
   NLSPLINE    = F    spline interpolate recip. space projectors
   LCOMPAT=      F    compatible to vasp.4.4
   GGA_COMPAT  = T    GGA compatible to vasp.4.4-vasp.4.6
   LMAXPAW     = -100 max onsite density
   LMAXMIX     =    2 max onsite mixed and CHGCAR
   VOSKOWN=      0    Vosko Wilk Nusair interpolation
   ROPT   =   -0.00025  -0.00025  -0.00025
 Ionic relaxation
   EDIFFG = -.2E-01   stopping-criterion for IOM
   NSW    =    500    number of steps for IOM
   NBLOCK =      1;   KBLOCK =    500    inner block; outer block 
   IBRION =      2    ionic relax: 0-MD 1-quasi-New 2-CG
   NFREE  =      1    steps in history (QN), initial steepest desc. (CG)
   ISIF   =      2    stress and relaxation
   IWAVPR =     11    prediction:  0-non 1-charg 2-wave 3-comb
   ISYM   =      2    0-nonsym 1-usesym 2-fastsym
   LCORR  =      T    Harris-Foulkes like correction to forces

   POTIM  = 0.5000    time-step for ionic-motion
   TEIN   =    0.0    initial temperature
   TEBEG  =    0.0;   TEEND  =   0.0 temperature during run
   SMASS  =  -3.00    Nose mass-parameter (am)
   estimated Nose-frequenzy (Omega)   =  0.10E-29 period in steps = 0.13E+47 mass=  -0.366E-25a.u.
   SCALEE = 1.0000    scale energy and forces
   NPACO  =    256;   APACO  = 10.0  distance and # of slots for P.C.
   PSTRESS=    0.0 pullay stress

  Mass of Ions in am
   POMASS =  12.01 14.00  1.00
  Ionic Valenz
   ZVAL   =   4.00  5.00  1.00
  Atomic Wigner-Seitz radii
   RWIGS  =  -1.00 -1.00 -1.00
  virtual crystal weights 
   VCA    =   1.00  1.00  1.00
   NELECT =      44.0000    total number of electrons
   NUPDOWN=      -1.0000    fix difference up-down

 DOS related values:
   EMIN   =  10.00;   EMAX   =-10.00  energy-range for DOS
   EFERMI =   0.00
   ISMEAR =     0;   SIGMA  =   0.05  broadening in eV -4-tet -1-fermi 0-gaus

 Electronic relaxation 2 (details)
   IALGO  =     68    algorithm
   LDIAG  =      T    sub-space diagonalisation (order eigenvalues)
   LSUBROT=      F    optimize rotation matrix (better conditioning)
   TURBO    =      0    0=normal 1=particle mesh
   IRESTART =      0    0=no restart 2=restart with 2 vectors
   NREBOOT  =      0    no. of reboots
   NMIN     =      0    reboot dimension
   EREF     =   0.00    reference energy to select bands
   IMIX   =      4    mixing-type and parameters
     AMIX     =   0.40;   BMIX     =  1.00
     AMIX_MAG =   1.60;   BMIX_MAG =  1.00
     AMIN     =   0.10
     WC   =   100.;   INIMIX=   1;  MIXPRE=   1;  MAXMIX= -45

 Intra band minimization:
   WEIMIN = 0.0010     energy-eigenvalue tresh-hold
   EBREAK =  0.52E-07  absolut break condition
   DEPER  =   0.30     relativ break condition  

   TIME   =   0.40     timestep for ELM

  volume/ion in A,a.u.               =    2909.09     19631.51
  Fermi-wavevector in a.u.,A,eV,Ry     =   0.144488  0.273043  0.284047  0.020877
  Thomas-Fermi vector in A             =   0.810532
 
 Write flags
   LWAVE        =      T    write WAVECAR
   LDOWNSAMPLE  =      F    k-point downsampling of WAVECAR
   LCHARG       =      F    write CHGCAR
   LVTOT        =      F    write LOCPOT, total local potential
   LVHAR        =      F    write LOCPOT, Hartree potential only
   LELF         =      F    write electronic localiz. function (ELF)
   LORBIT       =      0    0 simple, 1 ext, 2 COOP (PROOUT), +10 PAW based schemes


 Dipole corrections
   LMONO  =      F    monopole corrections only (constant potential shift)
   LDIPOL =      F    correct potential (dipole corrections)
   IDIPOL =      0    1-x, 2-y, 3-z, 4-all directions 
   EPSILON=  1.0000000 bulk dielectric constant

 Exchange correlation treatment:
   GGA     =    --    GGA type
   LEXCH   =     8    internal setting for exchange type
   LIBXC   =     F    Libxc                    
   VOSKOWN =     0    Vosko Wilk Nusair interpolation
   LHFCALC =     F    Hartree Fock is set to
   LHFONE  =     F    Hartree Fock one center treatment
   AEXX    =    0.0000 exact exchange contribution

 Linear response parameters
   LEPSILON=     F    determine dielectric tensor
   LRPA    =     F    only Hartree local field effects (RPA)
   LNABLA  =     F    use nabla operator in PAW spheres
   LVEL    =     F    velocity operator in full k-point grid
   CSHIFT  =0.1000    complex shift for real part using Kramers Kronig
   OMEGAMAX=  -1.0    maximum frequency
   DEG_THRESHOLD= 0.2000000E-02 threshold for treating states as degnerate
   RTIME   =   -0.100 relaxation time in fs
  (WPLASMAI=    0.000 imaginary part of plasma frequency in eV, 0.658/RTIME)
   DFIELD  = 0.0000000 0.0000000 0.0000000 field for delta impulse in time
 
  Optional k-point grid parameters
   LKPOINTS_OPT  =     F    use optional k-point grid
   KPOINTS_OPT_MODE=     1    mode for optional k-point grid
 
 Orbital magnetization related:
   ORBITALMAG=     F  switch on orbital magnetization
   LCHIMAG   =     F  perturbation theory with respect to B field
   DQ        =  0.001000  dq finite difference perturbation B field
   LLRAUG    =     F  two centre corrections for induced B field

 Solvation model:
   LSOL             =     T         switch on solvation model
   LSOL_SCF         =     T         include solvation in SCF
   ISOL             =     2         solvation model type
   EFERMI_ref       =  0.000000         reference Fermi level
   capacitance_init =  1.000000         initial capacitance
 Nonlinear solvation model:
   LNLDIEL     =     T         switch on non-linear dielectric mode
   LNLION      =     T         switch on non-linear ionic mode
   LNLTEST     =     F         test non-linear model in linear regime
   I_NLOC_SOL  =     1         type of nonlocal dielectric response
   NC_K        =  0.015000     cutoff charge density for cavities (1/Angstrom**3)
   TAU         =  0.000879     cavity formation energy (eV/Angstrom**2)
   SIGMA_K     =  0.600000     cavity width
   A_K         =  0.125000     smoothing length (Angstrom)
   R_SOLV      =  2.190000     solvent radius (Angstrom)
   R_CAV       =  0.000000     cavity radius (Angstrom)
   R_DIEL      =  1.000000     dielectric radius (Angstrom)
   R_ION       =  0.000000     ionic radius (Angstrom)
   R_B         =  0.000000     bound charge radius (Angstrom)
   SOLTEMP     =298.000000     solvent temperature (K)
   EB_K        = 35.688000     relative permittivity of the bulk solvent
   EPSILON_INF =  1.806900     optical relative permittivity of bulk solvent
   N_MOL       =  0.011500     molar density of solvent (1/Angstrom**3)
   P_MOL       =  0.820000     solvent dipole moment (e*Angstrom)
   C_MOLAR     =  0.000000     electrolyte concentration (mol/L)
   LAMBDA_D_K  =  0.000000     Debye length (Angstrom)
   ZION        =  1.000000     charge of ions in electrolyte (e)
   D_ION       = -1.000000     minimum ion packing diameter (Angstrom)



--------------------------------------------------------------------------------------------------------


 conjugate gradient relaxation of ions
   using selective dynamics as specified on POSCAR
 charge density and potential will be updated during run
 spin polarized calculation
 RMM-DIIS sequential band-by-band and
  variant of blocked Davidson during initial phase
 perform sub-space diagonalisation
    before iterative eigenvector-optimisation
 modified Broyden-mixing scheme, WC =      100.0
 initial mixing is a Kerker type mixing with AMIX =  0.4000 and BMIX =      1.0000
 Hartree-type preconditioning will be used
 using additional bands           26
 real space projection scheme for non local part
 use partial core corrections
 calculate Harris-corrections to forces 
   (improved forces if not selfconsistent)
 use gradient corrections 
 use of overlap-Matrix (Vanderbilt PP)
 Gauss-broadening in eV      SIGMA  =   0.05


--------------------------------------------------------------------------------------------------------


  energy-cutoff  :      500.00
  volume of cell :    64000.00
      direct lattice vectors                 reciprocal lattice vectors
    40.000000000  0.000000000  0.000000000     0.025000000  0.000000000  0.000000000
     0.000000000 40.000000000  0.000000000     0.000000000  0.025000000  0.000000000
     0.000000000  0.000000000 40.000000000     0.000000000  0.000000000  0.025000000

  length of vectors
    40.000000000 40.000000000 40.000000000     0.025000000  0.025000000  0.025000000


 
 old parameters found on file WAVECAR:
  energy-cutoff  :      500.00
  volume of cell :    64000.00
      direct lattice vectors                 reciprocal lattice vectors
    40.000000000  0.000000000  0.000000000     0.025000000  0.000000000  0.000000000
     0.000000000 40.000000000  0.000000000     0.000000000  0.025000000  0.000000000
     0.000000000  0.000000000 40.000000000     0.000000000  0.000000000  0.025000000

  length of vectors

 
 k-points in units of 2pi/SCALE and weight: K-Point Grid                            
   0.00000000  0.00000000  0.00000000       1.000
 
 k-points in reciprocal lattice and weights: K-Point Grid                            
   0.00000000  0.00000000  0.00000000       1.000
 
 position of ions in fractional coordinates (direct lattice) 
   0.44219321  0.47108094  0.49266292
   0.46915407  0.49838160  0.49317818
   0.53198392  0.49380780  0.49171322
   0.54035005  0.53140799  0.49124427
   0.56013022  0.47404389  0.50848043
   0.45608445  0.52969206  0.51118984
   0.50019950  0.48490603  0.50794217
   0.50134923  0.49103359  0.53274063
   0.54209041  0.54117256  0.51694163
   0.52124762  0.54588541  0.47781780
   0.56448742  0.53586076  0.47879134
   0.55486370  0.44710251  0.50788874
   0.58416727  0.47859790  0.49598065
   0.56286151  0.48164844  0.53481781
   0.52991103  0.48528859  0.46551901
   0.47453117  0.55001712  0.51092352
   0.45034387  0.52373825  0.53747456
   0.43295074  0.53894217  0.49952787
   0.47492554  0.50508741  0.46703426
   0.45097464  0.44904149  0.47884028
   0.43620023  0.46314933  0.51833468
   0.41899920  0.48011617  0.48095716
 
 position of ions in cartesian coordinates  (Angst):
  17.68772826 18.84323751 19.70651689
  18.76616283 19.93526382 19.72712714
  21.27935698 19.75231218 19.66852866
  21.61400191 21.25631975 19.64977100
  22.40520876 18.96175561 20.33921728
  18.24337791 21.18768225 20.44759362
  20.00798011 19.39624107 20.31768671
  20.05396919 19.64134374 21.30962525
  21.68361624 21.64690242 20.67766526
  20.84990470 21.83541648 19.11271215
  22.57949662 21.43443023 19.15165357
  22.19454810 17.88410054 20.31554968
  23.36669069 19.14391583 19.83922597
  22.51446055 19.26593745 21.39271242
  21.19644139 19.41154344 18.62076025
  18.98124697 22.00068493 20.43694094
  18.01375478 20.94953002 21.49898256
  17.31802973 21.55768693 19.98111486
  18.99702172 20.20349623 18.68137058
  18.03898540 17.96165954 19.15361136
  17.44800932 18.52597311 20.73338727
  16.75996783 19.20464693 19.23828659
 


--------------------------------------------------------------------------------------------------------


 k-point   1 :   0.0000 0.0000 0.0000  plane waves: 1624525

 maximum and minimum number of plane-waves per node :    162473   162437

 maximum number of plane-waves:   1624525
 maximum index in each direction: 
   IXMAX=   72   IYMAX=   72   IZMAX=   72
   IXMIN=  -72   IYMIN=  -72   IZMIN=  -72


 real space projection operators:
  total allocation   :       2597.02 KBytes
  max/ min on nodes  :        264.31        252.05


 parallel 3D FFT for wavefunctions:
    minimum data exchange during FFTs selected (reduces bandwidth)
 parallel 3D FFT for charge:
    minimum data exchange during FFTs selected (reduces bandwidth)


 total amount of memory used by VASP MPI-rank0   682870. kBytes
=======================================================================

   base      :      30000. kBytes
   nonlr-proj:       2154. kBytes
   fftplans  :     167689. kBytes
   grid      :     451809. kBytes
   one-center:         18. kBytes
   wavefun   :      31200. kBytes
 
     INWAV:  cpu time      8.6915: real time      8.7208
 Broyden mixing: mesh for mixing (old mesh)
   NGX =145   NGY =145   NGZ =145
  (NGX  =588   NGY  =588   NGZ  =588)
  gives a total of ****** points

 initial charge density was supplied:
 charge density of overlapping atoms calculated
 number of electron      44.0000000 magnetization      22.0000000
 keeping initial charge density in first step


--------------------------------------------------------------------------------------------------------


 Maximum index for non-local projection operator          499
 Maximum index for augmentation-charges          317 (set IRDMAX)


--------------------------------------------------------------------------------------------------------


 First call to EWALD:  gamma=   0.044
 Maximum number of real-space cells 3x 3x 3
 Maximum number of reciprocal cells 3x 3x 3

    FEWALD:  cpu time      0.0038: real time      0.0039


--------------------------------------- Iteration      1(   1)  ---------------------------------------


    POTLOK:  cpu time      7.8992: real time      7.9070
    SETDIJ:  cpu time      0.0526: real time      0.0526
     EDDAV:  cpu time     26.8421: real time     26.8941
       DOS:  cpu time      0.0003: real time      0.0003
    CHARGE:  cpu time      2.3220: real time      2.3260
    MIXING:  cpu time      0.3866: real time      0.3843
    --------------------------------------------
      LOOP:  cpu time     37.5027: real time     37.5643

 eigenvalue-minimisations  :   264
 total energy-change (2. order) :-0.1013231E+03  (-0.1387226E+02)
 number of electron      44.0000004 magnetization      21.1523888
 augmentation part        1.3104731 magnetization      21.1661374

 Broyden mixing:
  rms(total) = 0.31185E+01    rms(broyden)= 0.31181E+01
  rms(prec ) = 0.31529E+01
  weight for this iteration     100.00

 Free energy of the ion-electron system (eV)
  ---------------------------------------------------
  alpha Z        PSCENC =         0.12465185
  Ewald energy   TEWEN  =      4230.68337298
  -Hartree energ DENC   =     -5074.26179709
  -exchange      EXHF   =         0.00000000
  -V(xc)+E(xc)   XCENC  =       140.47211364
  PAW double counting   =       882.07399896     -886.74772168
  entropy T*S    EENTRO =        -0.00000000
  eigenvalues    EBANDS =      -728.38954076
  atomic energy  EATOM  =      1334.72182766
  Solvation  Ecorr_sol  =         0.00000000
  ---------------------------------------------------
  free energy    TOTEN  =      -101.32309445 eV

  energy without entropy =     -101.32309445  energy(sigma->0) =     -101.32309445


--------------------------------------------------------------------------------------------------------




--------------------------------------- Iteration      1(   2)  ---------------------------------------


    --------------------------------------------
      INIT:  cpu time      0.4147: real time      0.4125
  FINALIZE:  cpu time     41.3353: real time     41.3111
    --------------------------------------------
    POTLOK:  cpu time     49.6418: real time     49.6371
    SETDIJ:  cpu time      0.0546: real time      0.0548
    EDDIAG:  cpu time      4.8837: real time      4.8938
  RMM-DIIS:  cpu time     16.7188: real time     16.7466
    ORTHCH:  cpu time      0.1434: real time      0.1437
       DOS:  cpu time      0.0002: real time      0.0002
    CHARGE:  cpu time      2.3153: real time      2.3251
    MIXING:  cpu time      0.2857: real time      0.2853
    --------------------------------------------
      LOOP:  cpu time     74.0434: real time     74.0865

 eigenvalue-minimisations  :   192
 total energy-change (2. order) : 0.5995809E+02  (-0.1278727E+02)
 number of electron      44.0000004 magnetization      20.2238992
 augmentation part        1.2844784 magnetization      20.1284245

 Broyden mixing:
  rms(total) = 0.15087E+01    rms(broyden)= 0.15086E+01
  rms(prec ) = 0.15356E+01
  weight for this iteration     100.00

 eigenvalues of (default mixing * dielectric matrix)
  average eigenvalue GAMMA=   0.9576
  0.9576

 Free energy of the ion-electron system (eV)
  ---------------------------------------------------
  alpha Z        PSCENC =         0.12465185
  Ewald energy   TEWEN  =      4230.68337298
  -Hartree energ DENC   =     -5181.57227760
  -exchange      EXHF   =         0.00000000
  -V(xc)+E(xc)   XCENC  =       197.38382526
  PAW double counting   =      1661.49047470    -1667.12443902
  entropy T*S    EENTRO =        -0.00000000
  eigenvalues    EBANDS =      -611.86882539
  atomic energy  EATOM  =      1334.72182766
  Solvation  Ecorr_sol  =        -5.20361651
  ---------------------------------------------------
  free energy    TOTEN  =       -41.36500608 eV

  energy without entropy =      -41.36500608  energy(sigma->0) =      -41.36500608


--------------------------------------------------------------------------------------------------------




--------------------------------------- Iteration      1(   3)  ---------------------------------------


    --------------------------------------------
      INIT:  cpu time      0.4134: real time      0.4119
  FINALIZE:  cpu time     50.0418: real time     50.0264
    --------------------------------------------
    POTLOK:  cpu time     58.3111: real time     58.3143
    SETDIJ:  cpu time      0.0655: real time      0.0656
    EDDIAG:  cpu time      4.9094: real time      4.9182
  RMM-DIIS:  cpu time     16.5910: real time     16.6226
    ORTHCH:  cpu time      0.1417: real time      0.1421
       DOS:  cpu time      0.0002: real time      0.0002
    CHARGE:  cpu time      2.2758: real time      2.2802
    MIXING:  cpu time      0.2942: real time      0.2930
    --------------------------------------------
      LOOP:  cpu time     82.5890: real time     82.6362

 eigenvalue-minimisations  :   192
 total energy-change (2. order) :-0.3850781E+02  (-0.5901483E+01)
 number of electron      44.0000004 magnetization      19.2989907
 augmentation part        1.2203127 magnetization      19.1739432

 Broyden mixing:
  rms(total) = 0.91813E+00    rms(broyden)= 0.91802E+00
  rms(prec ) = 0.92617E+00
  weight for this iteration     100.00

 eigenvalues of (default mixing * dielectric matrix)
  average eigenvalue GAMMA=   1.0645
  1.3635  0.7655

 Free energy of the ion-electron system (eV)
  ---------------------------------------------------
  alpha Z        PSCENC =         0.12465185
  Ewald energy   TEWEN  =      4230.68337298
  -Hartree energ DENC   =     -5266.09465932
  -exchange      EXHF   =         0.00000000
  -V(xc)+E(xc)   XCENC  =       170.64371411
  PAW double counting   =      2380.91349093    -2387.11060329
  entropy T*S    EENTRO =        -0.00000000
  eigenvalues    EBANDS =      -533.96705521
  atomic energy  EATOM  =      1334.72182766
  Solvation  Ecorr_sol  =        -9.78756051
  ---------------------------------------------------
  free energy    TOTEN  =       -79.87282081 eV

  energy without entropy =      -79.87282081  energy(sigma->0) =      -79.87282081


--------------------------------------------------------------------------------------------------------




--------------------------------------- Iteration      1(   4)  ---------------------------------------


    --------------------------------------------
      INIT:  cpu time      0.4107: real time      0.4098
  FINALIZE:  cpu time     52.7563: real time     52.7560
    --------------------------------------------
    POTLOK:  cpu time     61.0566: real time     61.0785
    SETDIJ:  cpu time      0.0534: real time      0.0535
    EDDIAG:  cpu time      4.8719: real time      4.8812
  RMM-DIIS:  cpu time     16.1555: real time     16.1898
    ORTHCH:  cpu time      0.1444: real time      0.1447
       DOS:  cpu time      0.0002: real time      0.0002
    CHARGE:  cpu time      2.3073: real time      2.3111
    MIXING:  cpu time      0.3262: real time      0.3268
    --------------------------------------------
      LOOP:  cpu time     84.9156: real time     84.9859

 eigenvalue-minimisations  :   193
 total energy-change (2. order) :-0.8131514E+01  (-0.2078988E+01)
 number of electron      44.0000004 magnetization      18.5036169
 augmentation part        1.1708377 magnetization      18.3943986

 Broyden mixing:
  rms(total) = 0.75809E+00    rms(broyden)= 0.75799E+00
  rms(prec ) = 0.76461E+00
  weight for this iteration     100.00

 eigenvalues of (default mixing * dielectric matrix)
  average eigenvalue GAMMA=   0.9613
  1.1128  1.1128  0.6582

 Free energy of the ion-electron system (eV)
  ---------------------------------------------------
  alpha Z        PSCENC =         0.12465185
  Ewald energy   TEWEN  =      4230.68337298
  -Hartree energ DENC   =     -5302.90945304
  -exchange      EXHF   =         0.00000000
  -V(xc)+E(xc)   XCENC  =       167.62502196
  PAW double counting   =      2841.02312505    -2847.29342875
  entropy T*S    EENTRO =        -0.00000000
  eigenvalues    EBANDS =      -499.17143120
  atomic energy  EATOM  =      1334.72182766
  Solvation  Ecorr_sol  =       -12.80802124
  ---------------------------------------------------
  free energy    TOTEN  =       -88.00433474 eV

  energy without entropy =      -88.00433474  energy(sigma->0) =      -88.00433474


--------------------------------------------------------------------------------------------------------




--------------------------------------- Iteration      1(   5)  ---------------------------------------


    --------------------------------------------
      INIT:  cpu time      0.4480: real time      0.4485
  FINALIZE:  cpu time     52.7206: real time     52.7936
    --------------------------------------------
    POTLOK:  cpu time     61.0199: real time     61.1136
    SETDIJ:  cpu time      0.0531: real time      0.0532
    EDDIAG:  cpu time      4.8548: real time      4.8650
  RMM-DIIS:  cpu time     16.6418: real time     16.6764
    ORTHCH:  cpu time      0.1410: real time      0.1416
       DOS:  cpu time      0.0003: real time      0.0003
    CHARGE:  cpu time      2.2994: real time      2.3105
    MIXING:  cpu time      0.3257: real time      0.3261
    --------------------------------------------
      LOOP:  cpu time     85.3359: real time     85.4867

 eigenvalue-minimisations  :   193
 total energy-change (2. order) :-0.6948273E+01  (-0.4924000E+00)
 number of electron      44.0000004 magnetization      16.6214671
 augmentation part        1.1691065 magnetization      16.5258217

 Broyden mixing:
  rms(total) = 0.49951E+00    rms(broyden)= 0.49948E+00
  rms(prec ) = 0.50301E+00
  weight for this iteration     100.00

 eigenvalues of (default mixing * dielectric matrix)
  average eigenvalue GAMMA=   1.3591
  1.9973  1.9973  0.8184  0.6233

 Free energy of the ion-electron system (eV)
  ---------------------------------------------------
  alpha Z        PSCENC =         0.12465185
  Ewald energy   TEWEN  =      4230.68337298
  -Hartree energ DENC   =     -5298.16256749
  -exchange      EXHF   =         0.00000000
  -V(xc)+E(xc)   XCENC  =       162.57227588
  PAW double counting   =      2965.33354914    -2971.41696635
  entropy T*S    EENTRO =        -0.00000000
  eigenvalues    EBANDS =      -505.86653866
  atomic energy  EATOM  =      1334.72182766
  Solvation  Ecorr_sol  =       -12.94221278
  ---------------------------------------------------
  free energy    TOTEN  =       -94.95260780 eV

  energy without entropy =      -94.95260780  energy(sigma->0) =      -94.95260780


--------------------------------------------------------------------------------------------------------




--------------------------------------- Iteration      1(   6)  ---------------------------------------


    --------------------------------------------
      INIT:  cpu time      0.4038: real time      0.4040
  FINALIZE:  cpu time     52.9163: real time     52.9951
    --------------------------------------------
    POTLOK:  cpu time     61.2597: real time     61.3648
    SETDIJ:  cpu time      0.0572: real time      0.0573
    EDDIAG:  cpu time      4.8613: real time      4.8725
  RMM-DIIS:  cpu time     16.7521: real time     16.7883
    ORTHCH:  cpu time      0.1541: real time      0.1545
       DOS:  cpu time      0.0015: real time      0.0015
    CHARGE:  cpu time      2.3468: real time      2.3519
    MIXING:  cpu time      0.3557: real time      0.3561
    --------------------------------------------
      LOOP:  cpu time     85.7885: real time     85.9470

 eigenvalue-minimisations  :   195
 total energy-change (2. order) :-0.1455234E+02  (-0.1275255E+01)
 number of electron      44.0000004 magnetization      16.2903686
 augmentation part        1.1734265 magnetization      16.2302576

 Broyden mixing:
  rms(total) = 0.34127E+00    rms(broyden)= 0.34123E+00
  rms(prec ) = 0.34477E+00
  weight for this iteration     100.00

 eigenvalues of (default mixing * dielectric matrix)
  average eigenvalue GAMMA=   1.2562
  2.2822  1.6382  0.8595  0.8595  0.6415

 Free energy of the ion-electron system (eV)
  ---------------------------------------------------
  alpha Z        PSCENC =         0.12465185
  Ewald energy   TEWEN  =      4230.68337298
  -Hartree energ DENC   =     -5302.04501949
  -exchange      EXHF   =         0.00000000
  -V(xc)+E(xc)   XCENC  =       152.52477907
  PAW double counting   =      3257.34557978    -3263.14561944
  entropy T*S    EENTRO =        -0.00000000
  eigenvalues    EBANDS =      -507.37654263
  atomic energy  EATOM  =      1334.72182766
  Solvation  Ecorr_sol  =       -12.33797592
  ---------------------------------------------------
  free energy    TOTEN  =      -109.50494614 eV

  energy without entropy =     -109.50494614  energy(sigma->0) =     -109.50494614


--------------------------------------------------------------------------------------------------------




--------------------------------------- Iteration      1(   7)  ---------------------------------------


    --------------------------------------------
      INIT:  cpu time      0.4308: real time      0.4315
  FINALIZE:  cpu time     59.1039: real time     59.1675
    --------------------------------------------
    POTLOK:  cpu time     67.6559: real time     67.7465
    SETDIJ:  cpu time      0.0663: real time      0.0665
    EDDIAG:  cpu time      4.7985: real time      4.8099
  RMM-DIIS:  cpu time     16.8823: real time     16.9184
    ORTHCH:  cpu time      0.1426: real time      0.1429
       DOS:  cpu time      0.0003: real time      0.0003
    CHARGE:  cpu time      2.3083: real time      2.3218
    MIXING:  cpu time      0.2880: real time      0.2884
    --------------------------------------------
      LOOP:  cpu time     92.1422: real time     92.2948

 eigenvalue-minimisations  :   195
 total energy-change (2. order) :-0.5168042E+00  (-0.1830683E+00)
 number of electron      44.0000003 magnetization      15.6308896
 augmentation part        1.1539726 magnetization      15.5869324

 Broyden mixing:
  rms(total) = 0.26163E+00    rms(broyden)= 0.26161E+00
  rms(prec ) = 0.26279E+00
  weight for this iteration     100.00

 eigenvalues of (default mixing * dielectric matrix)
  average eigenvalue GAMMA=   1.1068
  2.0707  1.9429  0.7233  0.7233  0.5904  0.5904

 Free energy of the ion-electron system (eV)
  ---------------------------------------------------
  alpha Z        PSCENC =         0.12465185
  Ewald energy   TEWEN  =      4230.68337298
  -Hartree energ DENC   =     -5311.79504985
  -exchange      EXHF   =         0.00000000
  -V(xc)+E(xc)   XCENC  =       152.35961135
  PAW double counting   =      3261.28110666    -3267.19678861
  entropy T*S    EENTRO =        -0.00000000
  eigenvalues    EBANDS =      -498.71895059
  atomic energy  EATOM  =      1334.72182766
  Solvation  Ecorr_sol  =       -11.48153175
  ---------------------------------------------------
  free energy    TOTEN  =      -110.02175030 eV

  energy without entropy =     -110.02175030  energy(sigma->0) =     -110.02175030


--------------------------------------------------------------------------------------------------------




--------------------------------------- Iteration      1(   8)  ---------------------------------------


    --------------------------------------------
      INIT:  cpu time      0.4082: real time      0.4088
  FINALIZE:  cpu time     61.8937: real time     61.9562
    --------------------------------------------
    POTLOK:  cpu time     70.4662: real time     70.5469
    SETDIJ:  cpu time      0.0694: real time      0.0695
    EDDIAG:  cpu time      4.8244: real time      4.8324
  RMM-DIIS:  cpu time     16.9055: real time     16.9395
    ORTHCH:  cpu time      0.1448: real time      0.1452
       DOS:  cpu time      0.0002: real time      0.0002
    CHARGE:  cpu time      2.3009: real time      2.3088
    MIXING:  cpu time      0.3277: real time      0.3277
    --------------------------------------------
      LOOP:  cpu time     95.0392: real time     95.1702

 eigenvalue-minimisations  :   193
 total energy-change (2. order) :-0.1588923E+01  (-0.7404253E-01)
 number of electron      44.0000003 magnetization      12.5931866
 augmentation part        1.1530766 magnetization      12.5574267

 Broyden mixing:
  rms(total) = 0.21184E+00    rms(broyden)= 0.21183E+00
  rms(prec ) = 0.21259E+00
  weight for this iteration     100.00

 eigenvalues of (default mixing * dielectric matrix)
  average eigenvalue GAMMA=   1.4179
  2.7273  2.7273  1.2314  0.9645  0.9645  0.6888  0.6212

 Free energy of the ion-electron system (eV)
  ---------------------------------------------------
  alpha Z        PSCENC =         0.12465185
  Ewald energy   TEWEN  =      4230.68337298
  -Hartree energ DENC   =     -5310.08903492
  -exchange      EXHF   =         0.00000000
  -V(xc)+E(xc)   XCENC  =       150.91585355
  PAW double counting   =      3181.88723225    -3187.79409016
  entropy T*S    EENTRO =        -0.00000000
  eigenvalues    EBANDS =      -502.13582179
  atomic energy  EATOM  =      1334.72182766
  Solvation  Ecorr_sol  =        -9.92466493
  ---------------------------------------------------
  free energy    TOTEN  =      -111.61067351 eV

  energy without entropy =     -111.61067351  energy(sigma->0) =     -111.61067351


--------------------------------------------------------------------------------------------------------




--------------------------------------- Iteration      1(   9)  ---------------------------------------


    --------------------------------------------
      INIT:  cpu time      0.4320: real time      0.4343
  FINALIZE:  cpu time     56.3615: real time     56.4642
    --------------------------------------------
    POTLOK:  cpu time     64.9645: real time     65.0937
    SETDIJ:  cpu time      0.0659: real time      0.0660
    EDDIAG:  cpu time      4.8195: real time      4.8320
  RMM-DIIS:  cpu time     18.3940: real time     18.4380
    ORTHCH:  cpu time      0.1423: real time      0.1427
       DOS:  cpu time      0.0012: real time      0.0012
    CHARGE:  cpu time      2.3145: real time      2.3198
    MIXING:  cpu time      0.3327: real time      0.3328
    --------------------------------------------
      LOOP:  cpu time     91.0346: real time     91.2262

 eigenvalue-minimisations  :   207
 total energy-change (2. order) :-0.2735140E+01  (-0.4033133E+00)
 number of electron      44.0000003 magnetization      12.0400654
 augmentation part        1.1287849 magnetization      12.0319377

 Broyden mixing:
  rms(total) = 0.21572E+00    rms(broyden)= 0.21570E+00
  rms(prec ) = 0.21771E+00
  weight for this iteration     100.00

 eigenvalues of (default mixing * dielectric matrix)
  average eigenvalue GAMMA=   1.4694
  3.9119  2.5111  1.4636  0.8065  0.8065  0.8146  0.8146  0.6263

 Free energy of the ion-electron system (eV)
  ---------------------------------------------------
  alpha Z        PSCENC =         0.12465185
  Ewald energy   TEWEN  =      4230.68337298
  -Hartree energ DENC   =     -5315.07062293
  -exchange      EXHF   =         0.00000000
  -V(xc)+E(xc)   XCENC  =       148.85272594
  PAW double counting   =      2984.37206909    -2990.33619215
  entropy T*S    EENTRO =        -0.00000000
  eigenvalues    EBANDS =      -503.49807427
  atomic energy  EATOM  =      1334.72182766
  Solvation  Ecorr_sol  =        -4.19557162
  ---------------------------------------------------
  free energy    TOTEN  =      -114.34581346 eV

  energy without entropy =     -114.34581346  energy(sigma->0) =     -114.34581346


--------------------------------------------------------------------------------------------------------




--------------------------------------- Iteration      1(  10)  ---------------------------------------


    --------------------------------------------
      INIT:  cpu time      0.4318: real time      0.4319
  FINALIZE:  cpu time     59.1421: real time     59.1880
    --------------------------------------------
    POTLOK:  cpu time     67.6813: real time     67.7562
    SETDIJ:  cpu time      0.0710: real time      0.0712
    EDDIAG:  cpu time      4.8579: real time      4.8705
  RMM-DIIS:  cpu time     17.8729: real time     17.9206
    ORTHCH:  cpu time      0.1341: real time      0.1345
       DOS:  cpu time      0.0013: real time      0.0013
    CHARGE:  cpu time      2.2870: real time      2.2913
    MIXING:  cpu time      0.3422: real time      0.3427
    --------------------------------------------
      LOOP:  cpu time     93.2476: real time     93.3883

 eigenvalue-minimisations  :   195
 total energy-change (2. order) :-0.4906053E+00  (-0.1794272E-01)
 number of electron      44.0000003 magnetization      11.5048801
 augmentation part        1.1301917 magnetization      11.4987412

 Broyden mixing:
  rms(total) = 0.15493E+00    rms(broyden)= 0.15493E+00
  rms(prec ) = 0.15654E+00
  weight for this iteration     100.00

 eigenvalues of (default mixing * dielectric matrix)
  average eigenvalue GAMMA=   1.4507
  4.6291  2.1932  1.4510  0.9154  0.9154  0.8352  0.8352  0.6008  0.6812

 Free energy of the ion-electron system (eV)
  ---------------------------------------------------
  alpha Z        PSCENC =         0.12465185
  Ewald energy   TEWEN  =      4230.68337298
  -Hartree energ DENC   =     -5314.80670598
  -exchange      EXHF   =         0.00000000
  -V(xc)+E(xc)   XCENC  =       148.44859478
  PAW double counting   =      3021.01345585    -3026.94829281
  entropy T*S    EENTRO =        -0.00000000
  eigenvalues    EBANDS =      -504.74671758
  atomic energy  EATOM  =      1334.72182766
  Solvation  Ecorr_sol  =        -3.32660546
  ---------------------------------------------------
  free energy    TOTEN  =      -114.83641872 eV

  energy without entropy =     -114.83641872  energy(sigma->0) =     -114.83641872


--------------------------------------------------------------------------------------------------------




--------------------------------------- Iteration      1(  11)  ---------------------------------------


    --------------------------------------------
      INIT:  cpu time      0.3951: real time      0.3958
  FINALIZE:  cpu time     50.9272: real time     51.0105
    --------------------------------------------
    POTLOK:  cpu time     59.4619: real time     59.5730
    SETDIJ:  cpu time      0.0623: real time      0.0625
    EDDIAG:  cpu time      4.8474: real time      4.8577
  RMM-DIIS:  cpu time     16.9370: real time     16.9870
    ORTHCH:  cpu time      0.1352: real time      0.1356
       DOS:  cpu time      0.0015: real time      0.0015
    CHARGE:  cpu time      2.2844: real time      2.2910
    MIXING:  cpu time      0.3646: real time      0.3649
    --------------------------------------------
      LOOP:  cpu time     84.0943: real time     84.2733

 eigenvalue-minimisations  :   193
 total energy-change (2. order) :-0.6887627E+00  (-0.1636538E-01)
 number of electron      44.0000003 magnetization      10.0332667
 augmentation part        1.1344467 magnetization      10.0296778

 Broyden mixing:
  rms(total) = 0.94167E-01    rms(broyden)= 0.94164E-01
  rms(prec ) = 0.94743E-01
  weight for this iteration     100.00

 eigenvalues of (default mixing * dielectric matrix)
  average eigenvalue GAMMA=   1.6255
  5.9823  1.8821  1.7854  1.7854  0.9984  0.9984  0.7727  0.7727  0.6387  0.6387

 Free energy of the ion-electron system (eV)
  ---------------------------------------------------
  alpha Z        PSCENC =         0.12465185
  Ewald energy   TEWEN  =      4230.68337298
  -Hartree energ DENC   =     -5313.25027167
  -exchange      EXHF   =         0.00000000
  -V(xc)+E(xc)   XCENC  =       147.77123125
  PAW double counting   =      3055.75086209    -3061.65374087
  entropy T*S    EENTRO =        -0.00000000
  eigenvalues    EBANDS =      -506.98281925
  atomic energy  EATOM  =      1334.72182766
  Solvation  Ecorr_sol  =        -2.69029542
  ---------------------------------------------------
  free energy    TOTEN  =      -115.52518138 eV

  energy without entropy =     -115.52518138  energy(sigma->0) =     -115.52518138


--------------------------------------------------------------------------------------------------------




--------------------------------------- Iteration      1(  12)  ---------------------------------------


    --------------------------------------------
      INIT:  cpu time      0.4104: real time      0.4112
  FINALIZE:  cpu time     51.0163: real time     51.0789
    --------------------------------------------
    POTLOK:  cpu time     59.5577: real time     59.6428
    SETDIJ:  cpu time      0.0639: real time      0.0640
    EDDIAG:  cpu time      4.9103: real time      4.9202
  RMM-DIIS:  cpu time     17.4143: real time     17.4773
    ORTHCH:  cpu time      0.1446: real time      0.1451
       DOS:  cpu time      0.0012: real time      0.0012
    CHARGE:  cpu time      2.3103: real time      2.3176
    MIXING:  cpu time      0.3949: real time      0.3947
    --------------------------------------------
      LOOP:  cpu time     84.7972: real time     84.9629

 eigenvalue-minimisations  :   198
 total energy-change (2. order) :-0.1395591E+01  (-0.2593295E-01)
 number of electron      44.0000003 magnetization       9.4137559
 augmentation part        1.1389716 magnetization       9.4122423

 Broyden mixing:
  rms(total) = 0.76853E-01    rms(broyden)= 0.76847E-01
  rms(prec ) = 0.77628E-01
  weight for this iteration     100.00

 eigenvalues of (default mixing * dielectric matrix)
  average eigenvalue GAMMA=   1.6316
  6.6602  2.0493  2.0493  1.2527  1.2527  0.9847  0.8167  0.8167  0.7992  0.6236
  0.6418

 Free energy of the ion-electron system (eV)
  ---------------------------------------------------
  alpha Z        PSCENC =         0.12465185
  Ewald energy   TEWEN  =      4230.68337298
  -Hartree energ DENC   =     -5311.17987955
  -exchange      EXHF   =         0.00000000
  -V(xc)+E(xc)   XCENC  =       146.36996917
  PAW double counting   =      3083.10055961    -3088.98079403
  entropy T*S    EENTRO =        -0.00000000
  eigenvalues    EBANDS =      -510.89986429
  atomic energy  EATOM  =      1334.72182766
  Solvation  Ecorr_sol  =        -0.86061615
  ---------------------------------------------------
  free energy    TOTEN  =      -116.92077275 eV

  energy without entropy =     -116.92077275  energy(sigma->0) =     -116.92077275


--------------------------------------------------------------------------------------------------------




--------------------------------------- Iteration      1(  13)  ---------------------------------------


    --------------------------------------------
      INIT:  cpu time      0.4081: real time      0.4088
  FINALIZE:  cpu time     53.7659: real time     53.8167
    --------------------------------------------
    POTLOK:  cpu time     62.3093: real time     62.3916
    SETDIJ:  cpu time      0.0690: real time      0.0692
    EDDIAG:  cpu time      4.8615: real time      4.8724
  RMM-DIIS:  cpu time     16.9256: real time     16.9701
    ORTHCH:  cpu time      0.1352: real time      0.1355
       DOS:  cpu time      0.0002: real time      0.0002
    CHARGE:  cpu time      2.2656: real time      2.2709
    MIXING:  cpu time      0.4125: real time      0.4133
    --------------------------------------------
      LOOP:  cpu time     86.9791: real time     87.1231

 eigenvalue-minimisations  :   196
 total energy-change (2. order) :-0.1737308E+00  (-0.5359810E-02)
 number of electron      44.0000003 magnetization       8.1231830
 augmentation part        1.1360050 magnetization       8.1226211

 Broyden mixing:
  rms(total) = 0.50641E-01    rms(broyden)= 0.50639E-01
  rms(prec ) = 0.50904E-01
  weight for this iteration     100.00

 eigenvalues of (default mixing * dielectric matrix)
  average eigenvalue GAMMA=   1.6708
  7.0811  2.1643  2.1643  1.5402  1.5402  0.9410  0.9410  0.8316  0.8316  0.6906
  0.6906  0.6336

 Free energy of the ion-electron system (eV)
  ---------------------------------------------------
  alpha Z        PSCENC =         0.12465185
  Ewald energy   TEWEN  =      4230.68337298
  -Hartree energ DENC   =     -5312.53057961
  -exchange      EXHF   =         0.00000000
  -V(xc)+E(xc)   XCENC  =       146.20989030
  PAW double counting   =      3073.75163830    -3079.66161207
  entropy T*S    EENTRO =        -0.00000000
  eigenvalues    EBANDS =      -510.08014675
  atomic energy  EATOM  =      1334.72182766
  Solvation  Ecorr_sol  =        -0.31354624
  ---------------------------------------------------
  free energy    TOTEN  =      -117.09450359 eV

  energy without entropy =     -117.09450359  energy(sigma->0) =     -117.09450359


--------------------------------------------------------------------------------------------------------




--------------------------------------- Iteration      1(  14)  ---------------------------------------


    --------------------------------------------
      INIT:  cpu time      0.4084: real time      0.4084
  FINALIZE:  cpu time     50.9590: real time     51.0334
    --------------------------------------------
    POTLOK:  cpu time     59.5217: real time     59.6120
    SETDIJ:  cpu time      0.0586: real time      0.0587
    EDDIAG:  cpu time      4.8747: real time      4.8871
  RMM-DIIS:  cpu time     17.0460: real time     17.0872
    ORTHCH:  cpu time      0.1436: real time      0.1440
       DOS:  cpu time      0.0030: real time      0.0030
    CHARGE:  cpu time      2.3026: real time      2.3078
    MIXING:  cpu time      0.4079: real time      0.4085
    --------------------------------------------
      LOOP:  cpu time     84.3581: real time     84.5083

 eigenvalue-minimisations  :   195
 total energy-change (2. order) :-0.2811175E+00  (-0.6556410E-02)
 number of electron      44.0000003 magnetization       7.0166263
 augmentation part        1.1333612 magnetization       7.0160433

 Broyden mixing:
  rms(total) = 0.53319E-01    rms(broyden)= 0.53317E-01
  rms(prec ) = 0.53895E-01
  weight for this iteration     100.00

 eigenvalues of (default mixing * dielectric matrix)
  average eigenvalue GAMMA=   1.8282
  8.4481  3.4806  1.9418  1.9418  1.2719  1.2719  0.8524  0.8524  0.9439  0.8450
  0.6484  0.6342  0.6342

 Free energy of the ion-electron system (eV)
  ---------------------------------------------------
  alpha Z        PSCENC =         0.12465185
  Ewald energy   TEWEN  =      4230.68337298
  -Hartree energ DENC   =     -5311.70105849
  -exchange      EXHF   =         0.00000000
  -V(xc)+E(xc)   XCENC  =       145.91677436
  PAW double counting   =      3076.23523607    -3082.15507349
  entropy T*S    EENTRO =        -0.00000000
  eigenvalues    EBANDS =      -511.54532488
  atomic energy  EATOM  =      1334.72182766
  Solvation  Ecorr_sol  =         0.34397288
  ---------------------------------------------------
  free energy    TOTEN  =      -117.37562106 eV

  energy without entropy =     -117.37562106  energy(sigma->0) =     -117.37562106


--------------------------------------------------------------------------------------------------------




--------------------------------------- Iteration      1(  15)  ---------------------------------------


    --------------------------------------------
      INIT:  cpu time      0.4094: real time      0.4089
  FINALIZE:  cpu time     51.0164: real time     51.0665
    --------------------------------------------
    POTLOK:  cpu time     59.5985: real time     59.6660
    SETDIJ:  cpu time      0.0737: real time      0.0749
    EDDIAG:  cpu time      4.8599: real time      4.8694
  RMM-DIIS:  cpu time     17.1411: real time     17.1763
    ORTHCH:  cpu time      0.1354: real time      0.1357
       DOS:  cpu time      0.0002: real time      0.0002
    CHARGE:  cpu time      2.2971: real time      2.3024
    MIXING:  cpu time      0.4530: real time      0.4526
    --------------------------------------------
      LOOP:  cpu time     84.5590: real time     84.6776

 eigenvalue-minimisations  :   192
 total energy-change (2. order) :-0.3141136E+00  (-0.1240305E-02)
 number of electron      44.0000003 magnetization       6.4920766
 augmentation part        1.1340036 magnetization       6.4914185

 Broyden mixing:
  rms(total) = 0.34788E-01    rms(broyden)= 0.34788E-01
  rms(prec ) = 0.35043E-01
  weight for this iteration     100.00

 eigenvalues of (default mixing * dielectric matrix)
  average eigenvalue GAMMA=   1.8128
  8.8254  3.7673  1.9543  1.9543  1.3020  1.3020  0.8693  0.8693  0.9127  0.9127
  0.7308  0.7308  0.6342  0.6141

 Free energy of the ion-electron system (eV)
  ---------------------------------------------------
  alpha Z        PSCENC =         0.12465185
  Ewald energy   TEWEN  =      4230.68337298
  -Hartree energ DENC   =     -5309.44898809
  -exchange      EXHF   =         0.00000000
  -V(xc)+E(xc)   XCENC  =       145.53945805
  PAW double counting   =      3088.52097148    -3094.42570237
  entropy T*S    EENTRO =        -0.00000000
  eigenvalues    EBANDS =      -514.24787468
  atomic energy  EATOM  =      1334.72182766
  Solvation  Ecorr_sol  =         0.84254851
  ---------------------------------------------------
  free energy    TOTEN  =      -117.68973462 eV

  energy without entropy =     -117.68973462  energy(sigma->0) =     -117.68973462


--------------------------------------------------------------------------------------------------------




--------------------------------------- Iteration      1(  16)  ---------------------------------------


    --------------------------------------------
      INIT:  cpu time      0.4233: real time      0.4239
  FINALIZE:  cpu time     51.0199: real time     51.0667
    --------------------------------------------
    POTLOK:  cpu time     59.5597: real time     59.6494
    SETDIJ:  cpu time      0.0599: real time      0.0600
    EDDIAG:  cpu time      4.8621: real time      4.8721
  RMM-DIIS:  cpu time     16.8228: real time     16.8565
    ORTHCH:  cpu time      0.1337: real time      0.1339
       DOS:  cpu time      0.0002: real time      0.0002
    CHARGE:  cpu time      2.2820: real time      2.2868
    MIXING:  cpu time      0.4746: real time      0.4743
    --------------------------------------------
      LOOP:  cpu time     84.1951: real time     84.3334

 eigenvalue-minimisations  :   192
 total energy-change (2. order) :-0.5053191E-01  (-0.3277205E-02)
 number of electron      44.0000003 magnetization       5.1690648
 augmentation part        1.1364768 magnetization       5.1683827

 Broyden mixing:
  rms(total) = 0.36170E-01    rms(broyden)= 0.36169E-01
  rms(prec ) = 0.36461E-01
  weight for this iteration     100.00

 eigenvalues of (default mixing * dielectric matrix)
  average eigenvalue GAMMA=   1.8795
  9.3885  4.3475  2.1874  1.6866  1.6866  1.3644  1.3644  0.8792  0.8792  0.9019
  0.7756  0.7756  0.6945  0.6307  0.6307

 Free energy of the ion-electron system (eV)
  ---------------------------------------------------
  alpha Z        PSCENC =         0.12465185
  Ewald energy   TEWEN  =      4230.68337298
  -Hartree energ DENC   =     -5308.19032317
  -exchange      EXHF   =         0.00000000
  -V(xc)+E(xc)   XCENC  =       145.45631479
  PAW double counting   =      3092.05189805    -3097.94526947
  entropy T*S    EENTRO =        -0.00000000
  eigenvalues    EBANDS =      -515.40220441
  atomic energy  EATOM  =      1334.72182766
  Solvation  Ecorr_sol  =         0.75946519
  ---------------------------------------------------
  free energy    TOTEN  =      -117.74026652 eV

  energy without entropy =     -117.74026652  energy(sigma->0) =     -117.74026652


--------------------------------------------------------------------------------------------------------




--------------------------------------- Iteration      1(  17)  ---------------------------------------


    --------------------------------------------
      INIT:  cpu time      0.4021: real time      0.4030
  FINALIZE:  cpu time     56.3614: real time     56.3905
    --------------------------------------------
    POTLOK:  cpu time     64.8898: real time     64.9491
    SETDIJ:  cpu time      0.0606: real time      0.0607
    EDDIAG:  cpu time      4.9261: real time      4.9361
  RMM-DIIS:  cpu time     17.5946: real time     17.6299
    ORTHCH:  cpu time      0.1469: real time      0.1473
       DOS:  cpu time      0.0025: real time      0.0025
    CHARGE:  cpu time      2.2909: real time      2.2956
    MIXING:  cpu time      0.4625: real time      0.4634
    --------------------------------------------
      LOOP:  cpu time     90.3739: real time     90.4846

 eigenvalue-minimisations  :   193
 total energy-change (2. order) :-0.7465167E-01  (-0.4810811E-03)
 number of electron      44.0000003 magnetization       4.3401040
 augmentation part        1.1367011 magnetization       4.3395219

 Broyden mixing:
  rms(total) = 0.30317E-01    rms(broyden)= 0.30317E-01
  rms(prec ) = 0.30610E-01
  weight for this iteration     100.00

 eigenvalues of (default mixing * dielectric matrix)
  average eigenvalue GAMMA=   1.9317
 10.0098  5.0275  2.5898  1.8849  1.8849  1.2643  1.2643  0.8667  0.8667  0.9517
  0.9517  0.7379  0.7379  0.6406  0.6147  0.6147

 Free energy of the ion-electron system (eV)
  ---------------------------------------------------
  alpha Z        PSCENC =         0.12465185
  Ewald energy   TEWEN  =      4230.68337298
  -Hartree energ DENC   =     -5307.27321128
  -exchange      EXHF   =         0.00000000
  -V(xc)+E(xc)   XCENC  =       145.36626473
  PAW double counting   =      3085.85249736    -3091.74730650
  entropy T*S    EENTRO =        -0.00000000
  eigenvalues    EBANDS =      -515.85769391
  atomic energy  EATOM  =      1334.72182766
  Solvation  Ecorr_sol  =         0.31467893
  ---------------------------------------------------
  free energy    TOTEN  =      -117.81491819 eV

  energy without entropy =     -117.81491819  energy(sigma->0) =     -117.81491819


--------------------------------------------------------------------------------------------------------




--------------------------------------- Iteration      1(  18)  ---------------------------------------


    --------------------------------------------
      INIT:  cpu time      0.4114: real time      0.4116
  FINALIZE:  cpu time     53.6253: real time     53.6574
    --------------------------------------------
    POTLOK:  cpu time     62.1928: real time     62.2457
    SETDIJ:  cpu time      0.0631: real time      0.0632
    EDDIAG:  cpu time      4.9088: real time      4.9216
  RMM-DIIS:  cpu time     16.7201: real time     16.7609
    ORTHCH:  cpu time      0.1469: real time      0.1473
       DOS:  cpu time      0.0025: real time      0.0025
    CHARGE:  cpu time      2.2985: real time      2.3050
    MIXING:  cpu time      0.4911: real time      0.4919
    --------------------------------------------
      LOOP:  cpu time     86.8238: real time     86.9382

 eigenvalue-minimisations  :   192
 total energy-change (2. order) :-0.3470901E-01  (-0.8790274E-03)
 number of electron      44.0000003 magnetization       3.4983865
[...]




--------------------------------------- Iteration     10(   2)  ---------------------------------------


    --------------------------------------------
      INIT:  cpu time      0.4035: real time      0.4037
  FINALIZE:  cpu time     87.4415: real time     87.5619
    --------------------------------------------
    POTLOK:  cpu time     95.1685: real time     95.3229
    SETDIJ:  cpu time      0.0599: real time      0.0594
    EDDIAG:  cpu time      4.5535: real time      4.5622
  RMM-DIIS:  cpu time     16.6149: real time     16.6473
    ORTHCH:  cpu time      0.1368: real time      0.1371
       DOS:  cpu time      0.0002: real time      0.0002
    --------------------------------------------
      LOOP:  cpu time    116.5338: real time    116.7291

 eigenvalue-minimisations  :   192
 total energy-change (2. order) :-0.2702735E-05  (-0.9880900E-05)
 number of electron      44.0000004 magnetization       0.0000001
 augmentation part        1.1371778 magnetization       0.0000002

 Free energy of the ion-electron system (eV)
  ---------------------------------------------------
  alpha Z        PSCENC =         0.12465185
  Ewald energy   TEWEN  =      4234.11846615
  -Hartree energ DENC   =     -5311.04607967
  -exchange      EXHF   =         0.00000000
  -V(xc)+E(xc)   XCENC  =       145.31710659
  PAW double counting   =      3089.77598618    -3095.68431462
  entropy T*S    EENTRO =        -0.00000000
  eigenvalues    EBANDS =      -514.84038230
  atomic energy  EATOM  =      1334.72182766
  Solvation  Ecorr_sol  =        -0.42128791
  ---------------------------------------------------
  free energy    TOTEN  =      -117.93402607 eV

  energy without entropy =     -117.93402607  energy(sigma->0) =     -117.93402607


--------------------------------------------------------------------------------------------------------




 average (electrostatic) potential at core
  the test charge radii are     0.6991  0.7089  0.5201
  (the norm of the test charge is              1.0000)
       1 -58.0153       2 -59.0399       3 -59.0508       4 -58.1115       5 -58.1180
       6 -58.1573       7 -72.6575       8 -43.0154       9 -41.5765      10 -41.5956
      11 -41.5872      12 -41.4675      13 -41.5937      14 -41.5716      15 -41.5358
      16 -41.5935      17 -41.6183      18 -41.6129      19 -41.6427      20 -41.4006
      21 -41.4513      22 -41.4969
 
 
 
 E-fermi :  -4.5639     XC(G=0):  -0.0471     alpha+bet : -0.0172

 Fermi energy:        -4.5639367852

 spin component 1

 k-point     1 :       0.0000    0.0000    0.0000
  band No.  band energies     occupation 
      1     -22.3975      1.00000
      2     -19.3730      1.00000
      3     -17.8741      1.00000
      4     -16.7788      1.00000
      5     -16.6216      1.00000
      6     -14.2588      1.00000
      7     -14.1803      1.00000
      8     -11.6305      1.00000
      9     -11.3382      1.00000
     10     -10.5215      1.00000
     11     -10.2084      1.00000
     12     -10.1655      1.00000
     13      -9.6276      1.00000
     14      -9.2998      1.00000
     15      -9.1324      1.00000
     16      -9.0695      1.00000
     17      -8.4015      1.00000
     18      -8.3237      1.00000
     19      -7.8856      1.00000
     20      -7.8364      1.00000
     21      -7.6973      1.00000
     22      -4.7981      1.00000
     23      -0.5592      0.00000
     24      -0.1902      0.00000
     25      -0.1751      0.00000
     26      -0.0798      0.00000
     27       0.0078      0.00000
     28       0.0924      0.00000
     29       0.0933      0.00000
     30       0.1019      0.00000
     31       0.1049      0.00000
     32       0.1077      0.00000
     33       0.1201      0.00000
     34       0.1782      0.00000
     35       0.1832      0.00000
     36       0.1834      0.00000
     37       0.1850      0.00000
     38       0.1859      0.00000
     39       0.1882      0.00000
     40       0.1888      0.00000
     41       0.1903      0.00000
     42       0.2065      0.00000
     43       0.2151      0.00000
     44       0.2188      0.00000
     45       0.2391      0.00000
     46       0.2652      0.00000
     47       0.2722      0.00000
     48       0.2776      0.00000
 Fermi energy:        -4.5639367852

 spin component 2

 k-point     1 :       0.0000    0.0000    0.0000
  band No.  band energies     occupation 
      1     -22.3975      1.00000
      2     -19.3730      1.00000
      3     -17.8741      1.00000
      4     -16.7788      1.00000
      5     -16.6216      1.00000
      6     -14.2589      1.00000
      7     -14.1803      1.00000
      8     -11.6305      1.00000
      9     -11.3382      1.00000
     10     -10.5215      1.00000
     11     -10.2084      1.00000
     12     -10.1655      1.00000
     13      -9.6276      1.00000
     14      -9.2998      1.00000
     15      -9.1324      1.00000
     16      -9.0695      1.00000
     17      -8.4015      1.00000
     18      -8.3237      1.00000
     19      -7.8856      1.00000
     20      -7.8364      1.00000
     21      -7.6973      1.00000
     22      -4.7981      1.00000
     23      -0.5592      0.00000
     24      -0.1902      0.00000
     25      -0.1751      0.00000
     26      -0.0798      0.00000
     27       0.0079      0.00000
     28       0.0924      0.00000
     29       0.0934      0.00000
     30       0.1020      0.00000
     31       0.1050      0.00000
     32       0.1078      0.00000
     33       0.1200      0.00000
     34       0.1783      0.00000
     35       0.1833      0.00000
     36       0.1835      0.00000
     37       0.1851      0.00000
     38       0.1860      0.00000
     39       0.1883      0.00000
     40       0.1889      0.00000
     41       0.1904      0.00000
     42       0.2065      0.00000
     43       0.2151      0.00000
     44       0.2189      0.00000
     45       0.2391      0.00000
     46       0.2654      0.00000
     47       0.2721      0.00000
     48       0.2783      0.00000


--------------------------------------------------------------------------------------------------------


 soft charge-density along one line, spin component           1
         0         1         2         3         4         5         6         7         8         9
 total charge-density along one line
 
 soft charge-density along one line, spin component           2
         0         1         2         3         4         5         6         7         8         9
 total charge-density along one line
 
 pseudopotential strength for first ion, spin component:           1
 10.207  13.574  -0.000   0.000  -0.001   0.001  -0.000   0.003
 13.574  18.050  -0.000   0.000  -0.001   0.001  -0.000   0.004
 -0.000  -0.000  -4.336   0.000   0.001   8.484  -0.000  -0.001
  0.000   0.000   0.000  -4.336  -0.000  -0.000   8.484   0.000
 -0.001  -0.001   0.001  -0.000  -4.336  -0.001   0.000   8.484
  0.001   0.001   8.484  -0.000  -0.001 -18.736   0.001   0.000
 -0.000  -0.000  -0.000   8.484   0.000   0.001 -18.737  -0.000
  0.003   0.004  -0.001   0.000   8.484   0.000  -0.000 -18.736
 pseudopotential strength for first ion, spin component:           2
 10.207  13.574  -0.000   0.000  -0.001   0.001  -0.000   0.003
 13.574  18.050  -0.000   0.000  -0.001   0.001  -0.000   0.004
 -0.000  -0.000  -4.336   0.000   0.001   8.484  -0.000  -0.001
  0.000   0.000   0.000  -4.336  -0.000  -0.000   8.484   0.000
 -0.001  -0.001   0.001  -0.000  -4.336  -0.001   0.000   8.484
  0.001   0.001   8.484  -0.000  -0.001 -18.736   0.001   0.000
 -0.000  -0.000  -0.000   8.484   0.000   0.001 -18.737  -0.000
  0.003   0.004  -0.001   0.000   8.484   0.000  -0.000 -18.736
 total augmentation occupancy for first ion, spin component:           1
  7.606  -3.281  -0.044   0.005  -0.046   0.002   0.001   0.001
 -3.281   1.446   0.027  -0.004   0.035  -0.003  -0.001  -0.003
 -0.044   0.027   1.592   0.005  -0.027   0.131   0.000  -0.000
  0.005  -0.004   0.005   1.609  -0.001   0.000   0.131   0.000
 -0.046   0.035  -0.027  -0.001   1.592  -0.000   0.000   0.131
  0.002  -0.003   0.131   0.000  -0.000   0.011   0.000   0.000
  0.001  -0.001   0.000   0.131   0.000   0.000   0.011   0.000
  0.001  -0.003  -0.000   0.000   0.131   0.000   0.000   0.011
 total augmentation occupancy for first ion, spin component:           2
  0.000  -0.000   0.000   0.000  -0.000   0.000   0.000  -0.000
 -0.000   0.000  -0.000  -0.000   0.000  -0.000  -0.000   0.000
  0.000  -0.000   0.000   0.000  -0.000  -0.000  -0.000  -0.000
  0.000  -0.000   0.000   0.000   0.000  -0.000  -0.000   0.000
 -0.000   0.000  -0.000   0.000  -0.000  -0.000   0.000  -0.000
  0.000  -0.000  -0.000  -0.000  -0.000  -0.000  -0.000  -0.000
  0.000  -0.000  -0.000  -0.000   0.000  -0.000  -0.000   0.000
 -0.000   0.000  -0.000   0.000  -0.000  -0.000   0.000  -0.000


------------------------ aborting loop because EDIFF is reached ----------------------------------------


    CHARGE:  cpu time      2.3078: real time      2.3131
    FORLOC:  cpu time      0.5533: real time      0.5541
    FORNL :  cpu time      7.4786: real time      7.4933
    STRESS:  cpu time     22.4097: real time     22.4588
    FORCOR:  cpu time      6.6562: real time      6.6679
    FORHAR:  cpu time      1.0591: real time      1.0610
    MIXING:  cpu time      0.1359: real time      0.1361
    OFIELD:  cpu time      0.0001: real time      0.0000

 ---------------------------------------------------------------------------------------------

         DFTD3 V3.0 Rev 1        
 Edisp (eV)   -0.26667

 E6    (eV) :    -0.1065
 E8    (eV) :    -0.1602
 % E8        : 60.06
    FORVDW:  cpu time      0.0095: real time      0.0095

  FORCE on cell =-STRESS in cart. coord.  units (eV):
  Direction    XX          YY          ZZ          XY          YZ          ZX
  --------------------------------------------------------------------------------------
  Alpha Z     0.12465     0.12465     0.12465
  Ewald    2267.55118  1307.65923   658.90686   -21.62489   -20.08661    10.15011
  Hartree  2494.89072  1702.84959  1113.91905   -12.26340   -13.41981     7.07119
  E(xc)    -157.78434  -158.32254  -158.18400    -0.03689    -0.02378    -0.00193
  Local   -5142.75811 -3416.28415 -2142.11587    32.26886    32.82250   -18.15684
  n-local   -78.19932   -81.62811   -80.96233    -0.32546    -0.53920     0.09193
  augment     0.53835     1.30017     0.44323     0.04900     0.04817     0.01001
  Kinetic   615.44454   644.05421   607.61067     1.91897     1.18717     0.80822
  Fock        0.00000     0.00000     0.00000     0.00000     0.00000     0.00000
  vdW        -0.11329    -0.01444     0.01159    -0.01678    -0.00215     0.00591
  -------------------------------------------------------------------------------------
  Total      -0.30561    -0.26140    -0.24615    -0.03058    -0.01372    -0.02139
  in kB      -0.00765    -0.00654    -0.00616    -0.00077    -0.00034    -0.00054
  external pressure =       -0.01 kB  Pullay stress =        0.00 kB


 VOLUME and BASIS-vectors are now :
 -----------------------------------------------------------------------------
  energy-cutoff  :      500.00
  volume of cell :    64000.00
      direct lattice vectors                 reciprocal lattice vectors
    40.000000000  0.000000000  0.000000000     0.025000000  0.000000000  0.000000000
     0.000000000 40.000000000  0.000000000     0.000000000  0.025000000  0.000000000
     0.000000000  0.000000000 40.000000000     0.000000000  0.000000000  0.025000000

  length of vectors
    40.000000000 40.000000000 40.000000000     0.025000000  0.025000000  0.025000000


 FORCES acting on ions
    electron-ion (+dipol)            ewald-force                    non-local-force                 convergence-correction
 -----------------------------------------------------------------------------------------------
   0.153E+03 0.120E+03 0.288E+02   -.152E+03 -.119E+03 -.289E+02   -.960E+00 -.340E+00 0.837E-01   -.416E-02 -.100E-02 0.185E-02
   0.920E+02 -.180E+02 0.757E+02   -.944E+02 0.189E+02 -.770E+02   0.245E+01 -.938E+00 0.128E+01   -.536E-02 0.500E-02 0.350E-02
   -.971E+02 0.224E+02 0.844E+02   0.996E+02 -.217E+02 -.859E+02   -.243E+01 -.717E+00 0.153E+01   0.762E-02 0.567E-02 0.347E-03
   -.980E+02 -.162E+03 0.339E+02   0.977E+02 0.161E+03 -.338E+02   0.269E+00 0.119E+01 -.691E-01   0.446E-02 -.269E-02 0.329E-02
   -.162E+03 0.102E+03 -.477E+02   0.162E+03 -.102E+03 0.473E+02   0.630E+00 0.154E+00 0.424E+00   0.518E-02 -.363E-02 -.120E-03
   0.110E+03 -.148E+03 -.598E+02   -.110E+03 0.148E+03 0.592E+02   -.524E+00 0.577E+00 0.597E+00   -.628E-03 -.612E-02 -.335E-02
   0.532E+01 0.145E+03 -.982E+02   -.703E+01 -.168E+03 0.950E+02   0.171E+01 0.229E+02 0.316E+01   -.565E-02 -.458E-03 0.175E-01
   -.303E+01 -.172E+01 -.104E+03   0.333E+01 0.311E+01 0.111E+03   -.301E+00 -.140E+01 -.699E+01   -.412E-03 0.373E-03 0.125E-03
   -.240E+02 -.517E+02 -.580E+02   0.244E+02 0.537E+02 0.631E+02   -.361E+00 -.197E+01 -.505E+01   0.345E-03 -.114E-02 -.102E-02
   0.194E+02 -.626E+02 0.415E+02   -.232E+02 0.656E+02 -.442E+02   0.379E+01 -.294E+01 0.268E+01   0.152E-02 -.912E-03 0.127E-02
   -.682E+02 -.342E+02 0.351E+02   0.730E+02 0.352E+02 -.376E+02   -.479E+01 -.942E+00 0.246E+01   -.115E-02 -.822E-03 0.199E-02
   -.153E+02 0.793E+02 -.471E+01   0.142E+02 -.847E+02 0.460E+01   0.110E+01 0.544E+01 0.104E+00   0.110E-02 0.113E-03 0.385E-03
   -.788E+02 0.560E+01 0.227E+02   0.836E+02 -.472E+01 -.252E+02   -.484E+01 -.887E+00 0.247E+01   -.374E-03 -.100E-02 0.520E-03
   -.356E+02 -.914E+00 -.722E+02   0.362E+02 0.236E+01 0.774E+02   -.601E+00 -.145E+01 -.519E+01   0.470E-03 -.646E-03 -.352E-03
   -.131E+02 0.286E+02 0.846E+02   0.127E+02 -.303E+02 -.898E+02   0.410E+00 0.176E+01 0.521E+01   0.160E-02 0.541E-03 -.251E-03
   -.160E+02 -.744E+02 -.102E+02   0.197E+02 0.785E+02 0.102E+02   -.370E+01 -.412E+01 0.174E-01   -.796E-03 -.168E-02 -.335E-03
   0.331E+02 -.105E+02 -.748E+02   -.343E+02 0.939E+01 0.800E+02   0.117E+01 0.112E+01 -.518E+01   0.229E-03 -.956E-03 -.823E-03
   0.684E+02 -.439E+02 0.193E+02   -.730E+02 0.458E+02 -.216E+02   0.462E+01 -.188E+01 0.228E+01   0.101E-02 -.151E-02 0.272E-03
   0.674E+01 -.196E+02 0.853E+02   -.563E+01 0.209E+02 -.906E+02   -.112E+01 -.134E+01 0.524E+01   -.171E-02 -.108E-03 0.808E-03
   0.634E+01 0.703E+02 0.380E+02   -.453E+01 -.748E+02 -.407E+02   -.180E+01 0.446E+01 0.273E+01   -.117E-02 -.108E-02 0.131E-03
   0.409E+02 0.396E+02 -.576E+02   -.421E+02 -.412E+02 0.627E+02   0.119E+01 0.162E+01 -.506E+01   -.599E-03 -.578E-03 0.979E-03
   0.751E+02 -.269E+01 0.325E+02   -.797E+02 0.443E+01 -.348E+02   0.462E+01 -.175E+01 0.232E+01   -.900E-03 -.416E-03 0.628E-03
 -----------------------------------------------------------------------------------------------
   -.557E+00 -.185E+02 -.508E+01   0.711E-13 -.119E-12 0.355E-13   0.549E+00 0.185E+02 0.504E+01   0.620E-03 -.131E-01 0.273E-01
 
 
 POSITION                                       TOTAL-FORCE (eV/Angst)
 -----------------------------------------------------------------------------------
     17.68981     18.84399     19.70565         0.002710      0.004907     -0.000660
     18.76741     19.93603     19.72774         0.014964     -0.011001     -0.005345
     21.27773     19.75268     19.66923        -0.006490     -0.010511     -0.001439
     21.61327     21.25515     19.64802        -0.006356     -0.000349     -0.000537
     22.40290     18.96208     20.33912        -0.000602      0.007713      0.001501
     18.24459     21.18818     20.44643        -0.000764     -0.000461      0.006924
     20.00820     19.39951     20.31653        -0.005788     -0.002902     -0.000989
     20.05344     19.63195     21.31125        -0.002800     -0.013332      0.003111
     21.68378     21.64687     20.67505         0.000824      0.001893      0.001807
     20.84931     21.83544     19.11307        -0.007371      0.003265     -0.006470
     22.57771     21.43558     19.15034         0.003100      0.000314     -0.011421
     22.19006     17.88549     20.31512        -0.001288     -0.001374     -0.001621
     23.36478     19.14671     19.84089        -0.000784     -0.004808     -0.001812
     22.51404     19.26546     21.39270        -0.009739      0.000216      0.003843
     21.19225     19.40741     18.62292         0.002882      0.005304      0.006409
     18.98167     22.00135     20.43887         0.002360      0.007063      0.001335
     18.01327     20.94969     21.49693         0.000996     -0.002416      0.009029
     17.31842     21.55777     19.98289        -0.003904      0.009141     -0.007286
     19.00076     20.20373     18.68205         0.000208      0.002392      0.009367
     18.04431     17.96233     19.15573         0.005688      0.008377     -0.002181
     17.45019     18.52604     20.73204         0.003453      0.005130      0.000418
     16.76207     19.20665     19.23746         0.008701     -0.008560     -0.003984
 -----------------------------------------------------------------------------------
    total drift:                               -0.006776     -0.002791     -0.014009


--------------------------------------------------------------------------------------------------------



  FREE ENERGIE OF THE ION-ELECTRON SYSTEM (eV)
  ---------------------------------------------------
  free  energy   TOTEN  =      -118.20069865 eV

  energy  without entropy=     -118.20069865  energy(sigma->0) =     -118.20069865
 
 d Force = 0.9315899E-04[ 0.685E-04, 0.118E-03]  d Energy = 0.9434162E-04-0.118E-05
 d Force =-0.1181968E+00[-0.118E+00,-0.118E+00]  d Ewald  =-0.1181967E+00-0.400E-07


--------------------------------------------------------------------------------------------------------


    --------------------------------------------
      INIT:  cpu time      0.4272: real time      0.4281
  FINALIZE:  cpu time     87.7853: real time     87.9028
    --------------------------------------------
    POTLOK:  cpu time     95.6834: real time     95.8167


--------------------------------------------------------------------------------------------------------


 Conjugate gradient step on ions:
 trial-energy change:   -0.000094  1 .order   -0.000093   -0.000118   -0.000068
  (g-gl).g = 0.251E-03      g.g   = 0.277E-03  gl.gl    = 0.335E-03
 g(Force)  = 0.277E-03   g(Stress)= 0.000E+00 ortho     = 0.362E-04
 gamma     =   0.75036
 trial     =   0.38769
 opt step  =   0.92541  (harmonic =   0.92541) maximal distance =0.00190737
 next E    =  -118.200745   (d E  =  -0.00014)


--------------------------------------------------------------------------------------------------------


  
 reached required accuracy - stopping structural energy minimisation
 writing wavefunctions
     LOOP+:  cpu time    416.9848: real time    418.1293
    4ORBIT:  cpu time      0.0000: real time      0.0000

 total amount of memory used by VASP MPI-rank0   682870. kBytes
=======================================================================

   base      :      30000. kBytes
   nonlr-proj:       2154. kBytes
   fftplans  :     167689. kBytes
   grid      :     451809. kBytes
   one-center:         18. kBytes
   wavefun   :      31200. kBytes
 
  
  
 General timing and accounting informations for this job:
 ========================================================
  
                  Total CPU time used (sec):     8553.497
                            User time (sec):     7104.790
                          System time (sec):     1448.707
                         Elapsed time (sec):     8568.994
  
                   Maximum memory used (kb):     2272308.
                   Average memory used (kb):          N/A
  
                          Minor page faults:    428491457
                          Major page faults:            0
                 Voluntary context switches:       499634
