
                                 *****************
                                 * O   R   C   A *
                                 *****************

                                            #,                                       
                                            ###                                      
                                            ####                                     
                                            #####                                    
                                            ######                                   
                                           ########,                                 
                                     ,,################,,,,,                         
                               ,,#################################,,                 
                          ,,##########################################,,             
                       ,#########################################, ''#####,          
                    ,#############################################,,   '####,        
                  ,##################################################,,,,####,       
                ,###########''''           ''''###############################       
              ,#####''   ,,,,##########,,,,          '''####'''          '####       
            ,##' ,,,,###########################,,,                        '##       
           ' ,,###''''                  '''############,,,                           
         ,,##''                                '''############,,,,        ,,,,,,###''
      ,#''                                            '''#######################'''  
     '                                                          ''''####''''         
             ,#######,   #######,   ,#######,      ##                                
            ,#'     '#,  ##    ##  ,#'     '#,    #''#        ,####,   ,####,        
            ##       ##  ##   ,#'  ##            #'  '#       #'       #'  '#        
            ##       ##  #######   ##           ,######,      #####,   #    #        
            '#,     ,#'  ##    ##  '#,     ,#' ,#      #,     #,   #   #,  ,#        
             '#######'   ##     ##  '#######'  #'      '#     '####' # '####'        



                #########################################################
                #                        -***-                          #
                #          Department of theory and spectroscopy        #
                #                                                       #
                #                      Frank Neese                      #
                #                                                       #
                #     Directorship, Architecture, Infrastructure        #
                #                    SHARK, DRIVERS                     #
                #        Core code/Algorithms in most modules           #
                #                                                       #
                #        Max Planck Institute fuer Kohlenforschung      #
                #                Kaiser Wilhelm Platz 1                 #
                #                 D-45470 Muelheim/Ruhr                 #
                #                      Germany                          #
                #                                                       #
                #                  All rights reserved                  #
                #                        -***-                          #
                #########################################################


                         Program Version 6.0.0  -   RELEASE  -


 With contributions from (in alphabetic order):
   Daniel Aravena         : Magnetic Suceptibility
   Michael Atanasov       : Ab Initio Ligand Field Theory (pilot matlab implementation)
   Alexander A. Auer      : GIAO ZORA, VPT2 properties, NMR spectrum
   Ute Becker             : All parallelization in ORCA, NUMFREQ, NUMCALC
   Giovanni Bistoni       : ED, misc. LED, open-shell LED, HFLD
   Martin Brehm           : Molecular dynamics
   Dmytro Bykov           : pre 5.0 version of the SCF Hessian
   Marcos Casanova-Páez   : Triplet and SCS-CIS(D). UHF-(DLPNO)-IP/EA/STEOM-CCSD. UHF-CVS-IP/STEOM-CCSD
   Vijay G. Chilkuri      : MRCI spin determinant printing, contributions to CSF-ICE
   Pauline Colinet        : FMM embedding
   Dipayan Datta          : RHF DLPNO-CCSD density
   Achintya Kumar Dutta   : EOM-CC, STEOM-CC
   Nicolas Foglia         : Exact transition moments, OPA infrastructure, MCD improvements
   Dmitry Ganyushin       : Spin-Orbit,Spin-Spin,Magnetic field MRCI
   Miquel Garcia          : C-PCM and meta-GGA Hessian, CCSD/C-PCM, Gaussian charge scheme
   Tiago L. C. Gouveia    : GS-ROHF, GS-ROCIS
   Yang Guo               : DLPNO-NEVPT2, F12-NEVPT2, CIM, IAO-localization
   Andreas Hansen         : Spin unrestricted coupled pair/coupled cluster methods
   Ingolf Harden          : AUTO-CI MPn and infrastructure 
   Benjamin Helmich-Paris : MC-RPA, TRAH-(SCF,CASSCF), AVAS, COSX integrals, SCF dyn. polar.
   Lee Huntington         : MR-EOM, pCC
   Robert Izsak           : Overlap fitted RIJCOSX, COSX-SCS-MP3, EOM
   Riya Kayal             : Wick's Theorem for AUTO-CI, AUTO-CI UHF-CCSDT
   Emily Kempfer          : AUTO-CI, RHF CISDT and CCSDT
   Christian Kollmar      : KDIIS, OOCD, Brueckner-CCSD(T), CCSD density, CASPT2, CASPT2-K, improved NEVPT2
   Axel Koslowski         : Symmetry handling
   Simone Kossmann        : Meta GGA functionals, TD-DFT gradient, OOMP2, (MP2 Hessian; deprecated post 5.0)
   Lucas Lang             : DCDCAS
   Marvin Lechner         : AUTO-CI (C++ implementation), FIC-MRCC
   Spencer Leger          : CASSCF response
   Dagmar Lenk            : GEPOL surface, SMD, ORCA-2-JSON
   Dimitrios Liakos       : Extrapolation schemes; Compound Job, initial MDCI parallelization
   Dimitrios Manganas     : Further ROCIS development; embedding schemes. LFT, Crystal Embedding
   Dimitrios Pantazis     : SARC Basis sets
   Anastasios Papadopoulos: AUTO-CI, single reference methods and gradients
   Taras Petrenko         : pre 6.0 DFT Hessian and TD-DFT gradient, (ASA, deprecated), ECA, 1-Electron XAS/XES, NRVS
   Peter Pinski           : DLPNO-MP2, DLPNO-MP2 Gradient
   Christoph Reimann      : Effective Core Potentials
   Marius Retegan         : Local ZFS, SOC
   Christoph Riplinger    : Optimizer, TS searches, QM/MM, DLPNO-CCSD(T), (RO)-DLPNO pert. Triples
   Michael Roemelt        : Original ROCIS implementation
   Masaaki Saitow         : Open-shell DLPNO-CCSD energy and density
   Barbara Sandhoefer     : DKH picture change effects
   Kantharuban Sivalingam : CASSCF convergence/infrastructure, NEVPT2 and variants, FIC-MRCI
   Bernardo de Souza      : ESD, SOC TD-DFT
   Georgi Stoychev        : AutoAux, RI-MP2 NMR, DLPNO-MP2 response, X2C
   Van Anh Tran           : RI-MP2 g-tensors
   Willem Van den Heuvel  : Paramagnetic NMR
   Zikuan Wang            : NOTCH, Electric field optimization 
   Frank Wennmohs         : Technical directorship and infrastructure
   Hang Xu                : AUTO-CI-Response properties 


 We gratefully acknowledge several colleagues who have allowed us to
 interface, adapt or use parts of their codes:
   Stefan Grimme, W. Hujo, H. Kruse, P. Pracht,  : VdW corrections, initial TS optimization,
                  C. Bannwarth, S. Ehlert,         DFT functionals, gCP, sTDA/sTD-DF
                  L. Wittmann, M. Mueller
   Ed Valeev, F. Pavosevic, A. Kumar             : LibInt (2-el integral package), F12 methods
   Garnet Chan, S. Sharma, J. Yang, R. Olivares  : DMRG
   Ulf Ekstrom                                   : XCFun DFT Library
   Mihaly Kallay                                 : mrcc  (arbitrary order and MRCC methods)
   Frank Weinhold                                : gennbo (NPA and NBO analysis)
   Simon Mueller                                 : openCOSMO-RS
   Christopher J. Cramer and Donald G. Truhlar   : smd solvation model
   Lars Goerigk                                  : TD-DFT with DH, B97 family of functionals
   V. Asgeirsson, H. Jonsson                     : NEB implementation
   FAccTs GmbH                                   : IRC, NEB, NEB-TS, DLPNO-Multilevel, CI-OPT
                                                   MM, QMMM, 2- and 3-layer-ONIOM, Crystal-QMMM,
                                                   LR-CPCM, SF, NACMEs, symmetry and pop. for TD-DFT,
                                                   nearIR, NL-DFT gradient (VV10), updates on ESD,
                                                   ML-optimized integration grids, MBIS, APM,
                                                   GOAT, DOCKER, SOLVATOR, interface openCOSMO-RS
   S Lehtola, MJT Oliveira, MAL Marques          : LibXC Library
   Liviu Ungur et al                             : ANISO software


 Your calculation uses the libint2 library for the computation of 2-el integrals
 For citations please refer to: http://libint.valeyev.net

 Your ORCA version has been built with support for libXC version: 6.2.2
 For citations please refer to: https://libxc.gitlab.io

 This ORCA versions uses:
   CBLAS   interface :  Fast vector & matrix operations
   LAPACKE interface :  Fast linear algebra routines
   SCALAPACK package :  Parallel linear algebra routines
   Shared memory     :  Shared parallel matrices
   BLAS/LAPACK       :  OpenBLAS 0.3.27  USE64BITINT DYNAMIC_ARCH NO_AFFINITY Sandybridge SINGLE_THREADED
        Core in use  :  Sandybridge
   Copyright (c) 2011-2014, The OpenBLAS Project


NOTE: MaxCore=5000 MB was set to SCF,MP2,MDCI,CIPSI,MRCI and CIS
      => If you want to overwrite this, your respective input block should be placed after the MaxCore statement
Your calculation utilizes the atom-pairwise dispersion correction
with the Becke-Johnson damping scheme (D3BJ)


Your calculation utilizes the SMD solvation module
Please cite in your paper:
A.V. Marenich, C.J. Cramer, D.G. Truhlar J. Phys. Chem. B, 113, (2009), 6378 

Warning: RI is on but no J-basis has been assigned. Assigning Def2/J (nothing to worry about!)
================================================================================

----- Orbital basis set information -----
Your calculation utilizes the basis: aug-cc-pVTZ 
    H, B-Ne : Obtained from the ccRepo (grant-hill.group.shef.ac.uk/ccrepo) Feb. 2017
              R. A. Kendall, T. H. Dunning, Jr., R. J. Harrison, J. Chem. Phys. 96, 6796 (1992)
         He : Obtained from the ccRepo (grant-hill.group.shef.ac.uk/ccrepo) Feb. 2017
              D. E. Woon, T. H. Dunning, Jr., J. Chem. Phys. 100, 2975 (1994)
  Li-Be, Na : Obtained from the ccRepo (grant-hill.group.shef.ac.uk/ccrepo) Feb. 2017
              B. P. Prascher, D. E. Woon, K. A. Peterson, T. H. Dunning, Jr., A. K. Wilson, Theor. Chem. Acc. 128, 69 (2011)
         Mg : Obtained from the Peterson Research Group Website (tyr0.chem.wsu.edu/~kipeters) Feb. 2017
              B. P. Prascher, D. E. Woon, K. A. Peterson, T. H. Dunning, Jr., A. K. Wilson, Theor. Chem. Acc. 128, 69 (2011)
      Al-Ar : Obtained from the ccRepo (grant-hill.group.shef.ac.uk/ccrepo) Feb. 2017
              D. E. Woon, T. H. Dunning, Jr., J. Chem. Phys. 98, 1358 (1993)
      Sc-Zn : Obtained from the ccRepo (grant-hill.group.shef.ac.uk/ccrepo) Feb. 2017
              N. B. Balabanov, K. A. Peterson, J. Chem. Phys. 123, 064107 (2005)
              N. B. Balabanov, K. A. Peterson, J. Chem. Phys. 125, 074110 (2006)
      Ga-Kr : Obtained from the ccRepo (grant-hill.group.shef.ac.uk/ccrepo) Feb. 2017
              A. K. Wilson, D. E. Woon, K. A. Peterson, T. H. Dunning, Jr., J. Chem. Phys. 110, 7667 (1999)
     Ag, Au : Obtained from the Peterson Research Group Website (tyr0.chem.wsu.edu/~kipeters) Feb. 2017
              K. A. Peterson, C. Puzzarini, Theor. Chem. Acc. 114, 283 (2005)

----- AuxJ basis set information -----
Your calculation utilizes the auxiliary basis: def2/J
   F. Weigend, Phys. Chem. Chem. Phys. 8, 1057 (2006).

================================================================================
                                        WARNINGS
                       Please study these warnings very carefully!
================================================================================


WARNING: your system is open-shell and RHF/RKS was chosen
  ===> : WILL SWITCH to UHF/UKS


================================================================================
                                       INPUT FILE
================================================================================
NAME = cs_rporg_001_ox_freq_08.inp
|  1> !TPSSh freq aug-cc-pVTZ d3 TightSCF SlowConv RIJCOSX defgrid2
|  2> 
|  3> %pal
|  4> nprocs 12
|  5> end
|  6> 
|  7> %scf
|  8> MaxIter 1500
|  9> end
| 10> 
| 11> %maxcore 5000
| 12> 
| 13> !CPCM
| 14> %cpcm smd true
| 15> SMDsolvent "MeCN"
| 16> surfacetype gepol_ses
| 17> rsolv 2.19
| 18> end 
| 19> 
| 20> * xyz 1 2
| 21> C           2.43948973044866     -0.69354482645600     -0.00009831991932
| 22> C           2.43950791032828      0.69348751693080     -0.00023231402098
| 23> C           1.22908539255824      1.39779010726385     -0.00023821004942
| 24> C           0.00001144938187      0.71267156990425      0.00000625423646
| 25> C          -1.22904510635867      1.39781956808295      0.00024640529632
| 26> C          -2.43948431647736      0.69354890738834      0.00024965613298
| 27> C          -2.43950584900051     -0.69348277752848      0.00011844527196
| 28> C          -1.22908523070711     -1.39779032251601      0.00012309113767
| 29> C          -0.00000796764836     -0.71267716897200     -0.00000136306398
| 30> C           1.22905201721561     -1.39782105306064     -0.00012763100260
| 31> H           1.23362022869672     -2.48049849840068     -0.00006949428948
| 32> H          -1.23368049399585     -2.48046817678231      0.00004315771080
| 33> H          -3.37400516915866     -1.23791443394389     -0.00034784598614
| 34> H          -3.37396191196151      1.23801076257406     -0.00012768021743
| 35> H          -1.23360596788021      2.48049848025221      0.00024128839505
| 36> H           1.23367131022804      2.48047087034648     -0.00024704775034
| 37> H           3.37400283014809      1.23792388063986      0.00014788556728
| 38> H           3.37397214418272     -1.23800240572280      0.00039032255115
| 39> *
| 40> 
| 41>                          ****END OF INPUT****
================================================================================

                       ****************************
                       * Single Point Calculation *
                       ****************************

---------------------------------
CARTESIAN COORDINATES (ANGSTROEM)
---------------------------------
  C      2.439490   -0.693545   -0.000098
  C      2.439508    0.693488   -0.000232
  C      1.229085    1.397790   -0.000238
  C      0.000011    0.712672    0.000006
  C     -1.229045    1.397820    0.000246
  C     -2.439484    0.693549    0.000250
  C     -2.439506   -0.693483    0.000118
  C     -1.229085   -1.397790    0.000123
  C     -0.000008   -0.712677   -0.000001
  C      1.229052   -1.397821   -0.000128
  H      1.233620   -2.480498   -0.000069
  H     -1.233680   -2.480468    0.000043
  H     -3.374005   -1.237914   -0.000348
  H     -3.373962    1.238011   -0.000128
  H     -1.233606    2.480498    0.000241
  H      1.233671    2.480471   -0.000247
  H      3.374003    1.237924    0.000148
  H      3.373972   -1.238002    0.000390

----------------------------
CARTESIAN COORDINATES (A.U.)
----------------------------
  NO LB      ZA    FRAG     MASS         X           Y           Z
   0 C     6.0000    0    12.011    4.609967   -1.310610   -0.000186
   1 C     6.0000    0    12.011    4.610002    1.310501   -0.000439
   2 C     6.0000    0    12.011    2.322635    2.641440   -0.000450
   3 C     6.0000    0    12.011    0.000022    1.346754    0.000012
   4 C     6.0000    0    12.011   -2.322559    2.641496    0.000466
   5 C     6.0000    0    12.011   -4.609957    1.310617    0.000472
   6 C     6.0000    0    12.011   -4.609998   -1.310493    0.000224
   7 C     6.0000    0    12.011   -2.322634   -2.641441    0.000233
   8 C     6.0000    0    12.011   -0.000015   -1.346765   -0.000003
   9 C     6.0000    0    12.011    2.322572   -2.641499   -0.000241
  10 H     1.0000    0     1.008    2.331204   -4.687463   -0.000131
  11 H     1.0000    0     1.008   -2.331318   -4.687406    0.000082
  12 H     1.0000    0     1.008   -6.375946   -2.339319   -0.000657
  13 H     1.0000    0     1.008   -6.375864    2.339501   -0.000241
  14 H     1.0000    0     1.008   -2.331177    4.687463    0.000456
  15 H     1.0000    0     1.008    2.331301    4.687411   -0.000467
  16 H     1.0000    0     1.008    6.375941    2.339337    0.000279
  17 H     1.0000    0     1.008    6.375883   -2.339485    0.000738

--------------------------------
INTERNAL COORDINATES (ANGSTROEM)
--------------------------------
 C      0   0   0     0.000000000000     0.00000000     0.00000000
 C      1   0   0     1.387032349978     0.00000000     0.00000000
 C      2   1   0     1.400415941893   120.19287915     0.00000000
 C      3   2   1     1.407128362230   120.66990993     0.00000000
 C      4   3   2     1.407127518845   121.72568992   179.98847387
 C      5   4   3     1.400414311880   120.66999009   179.98869805
 C      6   5   4     1.387031691290   120.19304697     0.00000000
 C      7   6   5     1.400416791937   120.19295491     0.00000000
 C      8   7   6     1.407128624972   120.66995334     0.00000000
 C      1   2   3     1.400415817476   120.19313597     0.00000000
 H     10   1   2     1.082687084334   119.95063478   179.99714018
 H      8   7   6     1.082687609125   119.95066258   179.99861017
 H      7   6   5     1.081524398851   120.22561662   180.02873914
 H      6   5   4     1.081520795268   119.58115089   180.03435168
 H      5   4   3     1.082688518615   119.37921235     0.00000000
 H      3   2   1     1.082690475375   119.95094361   179.99413732
 H      2   1   3     1.081522932651   120.22580703   179.97052273
 H      1   2   3     1.081522850415   120.22561353   180.02967651

---------------------------
INTERNAL COORDINATES (A.U.)
---------------------------
 C      0   0   0     0.000000000000     0.00000000     0.00000000
 C      1   0   0     2.621111280348     0.00000000     0.00000000
 C      2   1   0     2.646402603756   120.19287915     0.00000000
 C      3   2   1     2.659087239888   120.66990993     0.00000000
 C      4   3   2     2.659085646120   121.72568992   179.98847387
 C      5   4   3     2.646399523477   120.66999009   179.98869805
 C      6   5   4     2.621110035608   120.19304697     0.00000000
 C      7   6   5     2.646404210105   120.19295491     0.00000000
 C      8   7   6     2.659087736398   120.66995334     0.00000000
 C      1   2   3     2.646402368641   120.19313597     0.00000000
 H     10   1   2     2.045982078125   119.95063478   179.99714018
 H      8   7   6     2.045983069836   119.95066258   179.99861017
 H      7   6   5     2.043784920983   120.22561662   180.02873914
 H      6   5   4     2.043778111197   119.58115089   180.03435168
 H      5   4   3     2.045984788523   119.37921235     0.00000000
 H      3   2   1     2.045988486264   119.95094361   179.99413732
 H      2   1   3     2.043782150265   120.22580703   179.97052273
 H      1   2   3     2.043781994863   120.22561353   180.02967651

---------------------
BASIS SET INFORMATION
---------------------
There are 2 groups of distinct atoms

 Group   1 Type C   : 19s6p3d2f contracted to 5s4p3d2f pattern {88111/3111/111/11}
 Group   2 Type H   : 6s3p2d contracted to 4s3p2d pattern {3111/111/11}

Atom   0C    basis set group =>   1
Atom   1C    basis set group =>   1
Atom   2C    basis set group =>   1
Atom   3C    basis set group =>   1
Atom   4C    basis set group =>   1
Atom   5C    basis set group =>   1
Atom   6C    basis set group =>   1
Atom   7C    basis set group =>   1
Atom   8C    basis set group =>   1
Atom   9C    basis set group =>   1
Atom  10H    basis set group =>   2
Atom  11H    basis set group =>   2
Atom  12H    basis set group =>   2
Atom  13H    basis set group =>   2
Atom  14H    basis set group =>   2
Atom  15H    basis set group =>   2
Atom  16H    basis set group =>   2
Atom  17H    basis set group =>   2
---------------------------------
AUXILIARY/J BASIS SET INFORMATION
---------------------------------
There are 2 groups of distinct atoms

 Group   1 Type C   : 12s5p4d2f1g contracted to 6s4p3d1f1g pattern {711111/2111/211/2/1}
 Group   2 Type H   : 5s2p1d contracted to 3s1p1d pattern {311/2/1}

Atom   0C    basis set group =>   1
Atom   1C    basis set group =>   1
Atom   2C    basis set group =>   1
Atom   3C    basis set group =>   1
Atom   4C    basis set group =>   1
Atom   5C    basis set group =>   1
Atom   6C    basis set group =>   1
Atom   7C    basis set group =>   1
Atom   8C    basis set group =>   1
Atom   9C    basis set group =>   1
Atom  10H    basis set group =>   2
Atom  11H    basis set group =>   2
Atom  12H    basis set group =>   2
Atom  13H    basis set group =>   2
Atom  14H    basis set group =>   2
Atom  15H    basis set group =>   2
Atom  16H    basis set group =>   2
Atom  17H    basis set group =>   2


           ************************************************************
           *        Program running with 12 parallel MPI-processes    *
           *              working on a common directory               *
           ************************************************************
------------------------------------------------------------------------------
                             ORCA STARTUP CALCULATIONS
                           -- RI-GTO INTEGRALS CHOSEN --
------------------------------------------------------------------------------
------------------------------------------------------------------------------
                   ___                                                        
                  /   \      - P O W E R E D   B Y -                         
                 /     \                                                     
                 |  |  |   _    _      __       _____    __    __             
                 |  |  |  | |  | |    /  \     |  _  \  |  |  /  |          
                  \  \/   | |  | |   /    \    | | | |  |  | /  /          
                 / \  \   | |__| |  /  /\  \   | |_| |  |  |/  /          
                |  |  |   |  __  | /  /__\  \  |    /   |      \           
                |  |  |   | |  | | |   __   |  |    \   |  |\   \          
                \     /   | |  | | |  |  |  |  | |\  \  |  | \   \       
                 \___/    |_|  |_| |__|  |__|  |_| \__\ |__|  \__/        
                                                                              
                      - O R C A' S   B I G   F R I E N D -                    
                                      &                                       
                       - I N T E G R A L  F E E D E R -                       
                                                                              
 v1 FN, 2020, v2 2021, v3 2022-2024                                           
------------------------------------------------------------------------------


----------------------
SHARK INTEGRAL PACKAGE
----------------------

Number of atoms                             ...     18
Number of basis functions                   ...    704
Number of shells                            ...    272
Maximum angular momentum                    ...      3
Integral batch strategy                     ... SHARK/LIBINT Hybrid
RI-J (if used) integral strategy            ... SPLIT-RIJ (Revised 2003 algorithm where possible)
Printlevel                                  ...      1
Contraction scheme used                     ... PARTIAL GENERAL contraction
Prescreening option                         ... SCHWARTZ
   Thresh                                   ... 2.500e-11
   Tcut                                     ... 2.500e-12
   Tpresel                                  ... 2.500e-12 
Coulomb Range Separation                    ... NOT USED
Exchange Range Separation                   ... NOT USED
Multipole approximations                    ... NOT USED
Finite Nucleus Model                        ... NOT USED
CABS basis                                  ... NOT available
Auxiliary Coulomb fitting basis             ... AVAILABLE
   # of basis functions in Aux-J            ...    578
   # of shells in Aux-J                     ...    190
   Maximum angular momentum in Aux-J        ...      4
Auxiliary J/K fitting basis                 ... NOT available
Auxiliary Correlation fitting basis         ... NOT available
Auxiliary 'external' fitting basis          ... NOT available

Checking pre-screening integrals            ... done (  0.8 sec) Dimension = 272
Save PGC pre-screening integrals            ... done (  0.8 sec) Dimension = 272
Calculate PGC overlap integrals             ... done (  0.9 sec) Dimension = 212
Calculating pre-screening integrals (ORCA)  ... done (  1.0 sec) Dimension = 212
Check shell pair data                       ... done (  0.5 sec)
Shell pair information
Shell pair cut-off parameter TPreSel        ...   2.5e-12
Total number of shell pairs                 ...     37128
Shell pairs after pre-screening             ...     31578
Total number of primitive shell pairs       ...     47640
Primitive shell pairs kept                  ...     37763
          la=0 lb=0:   7167 shell pairs
          la=1 lb=0:   7980 shell pairs
          la=1 lb=1:   1972 shell pairs
          la=2 lb=0:   5688 shell pairs
          la=2 lb=1:   2780 shell pairs
          la=2 lb=2:   1021 shell pairs
          la=3 lb=0:   2620 shell pairs
          la=3 lb=1:   1244 shell pairs
          la=3 lb=2:    896 shell pairs
          la=3 lb=3:    210 shell pairs

Calculating one electron integrals          ... done (  0.0 sec)
Calculating RI/J V-Matrix + Cholesky decomp.... done (  0.2 sec)
Calculating Nuclear repulsion               ... done (  0.0 sec) ENN=    458.411231329549 Eh

Diagonalization of the overlap matrix:
Smallest eigenvalue                        ... 2.217e-07
Time for diagonalization                   ...    0.136 sec
Threshold for overlap eigenvalues          ... 1.000e-07
Number of eigenvalues below threshold      ... 0

IMPORTANT:
Smallest eigenvalue of S below the DiffSThresh (1.000e-06) while
Thresh>1e-12 and/or TCut>1e-13! In order to avoid SCF convergence issues,
Thresh will be set to at least 1e-12 and TCut to at least 1e-13.
This can be turned off by adding %SCF DiffSThresh -1 END to the input.

Time for construction of square roots      ...    0.132 sec
Total time needed                          ...    0.827 sec

-------------------
DFT GRID GENERATION
-------------------

General Integration Accuracy     IntAcc      ... 4.388
Radial Grid Type                 RadialGrid  ... OptM3 with GC (2021)
Angular Grid (max. ang.)         AngularGrid ... 4 (Lebedev-302)
Angular grid pruning method      GridPruning ... 4 (adaptive)
Weight generation scheme         WeightScheme... mBecke (2022)
Basis function cutoff            BFCut       ... 1.0000e-11
Integration weight cutoff        WCut        ... 1.0000e-14
Partially contracted basis set               ... off
Rotationally invariant grid construction     ... off
Angular grids for H and He will be reduced by one unit
Diffuse basis detected: some atoms will have their outermost
                        angular grid increased by 1.

Total number of grid points                  ...    89616
Total number of batches                      ...     1412
Average number of points per batch           ...       63
Average number of grid points per atom       ...     4979

---------------------
SHARK GRID GENERATION
---------------------

General Integration Accuracy     IntAcc      ... 4.388
Radial Grid Type                 RadialGrid  ... OptM3 with GC (2021)
Angular Grid (max. ang.)         AngularGrid ... 4 (Lebedev-302)
Angular grid pruning method      GridPruning ... 4 (adaptive)
Weight generation scheme         WeightScheme... mBecke (2022)
Basis function cutoff            BFCut       ... 1.0000e-11
Integration weight cutoff        WCut        ... 1.0000e-14
Partially contracted basis set               ... off
Rotationally invariant grid construction     ... off
Angular grids for H and He will be reduced by one unit
Diffuse basis detected: some atoms will have their outermost
                        angular grid increased by 1.
Steep s-basis detected: some atoms will have their radial
                        grid points doubled.

Total number of grid points                  ...   152370
Total number of batches                      ...     2391
Average number of points per batch           ...       63
Average number of grid points per atom       ...     8465

--------------------
COSX GRID GENERATION
--------------------

GRIDX 1
-------
General Integration Accuracy     IntAcc      ... 3.816
Radial Grid Type                 RadialGrid  ... OptM3 with GC (2021)
Angular Grid (max. ang.)         AngularGrid ... 1 (Lebedev-50)
Angular grid pruning method      GridPruning ... 4 (adaptive)
Weight generation scheme         WeightScheme... mBecke (2022)
Basis function cutoff            BFCut       ... 1.0000e-11
Integration weight cutoff        WCut        ... 1.0000e-14
Partially contracted basis set               ... on
Rotationally invariant grid construction     ... off
Angular grids for H and He will be reduced by one unit
Diffuse basis detected: some atoms will have their outermost
                        angular grid increased by 1.

Total number of grid points                  ...    11260
Total number of batches                      ...       96
Average number of points per batch           ...      117
Average number of grid points per atom       ...      626
UseSFitting                                  ... on

GRIDX 2
-------
General Integration Accuracy     IntAcc      ... 4.020
Radial Grid Type                 RadialGrid  ... OptM3 with GC (2021)
Angular Grid (max. ang.)         AngularGrid ... 2 (Lebedev-110)
Angular grid pruning method      GridPruning ... 4 (adaptive)
Weight generation scheme         WeightScheme... mBecke (2022)
Basis function cutoff            BFCut       ... 1.0000e-11
Integration weight cutoff        WCut        ... 1.0000e-14
Partially contracted basis set               ... on
Rotationally invariant grid construction     ... off
Angular grids for H and He will be reduced by one unit
Diffuse basis detected: some atoms will have their outermost
                        angular grid increased by 1.

Total number of grid points                  ...    27422
Total number of batches                      ...      228
Average number of points per batch           ...      120
Average number of grid points per atom       ...     1523
UseSFitting                                  ... on

GRIDX 3
-------
General Integration Accuracy     IntAcc      ... 4.338
Radial Grid Type                 RadialGrid  ... OptM3 with GC (2021)
Angular Grid (max. ang.)         AngularGrid ... 3 (Lebedev-194)
Angular grid pruning method      GridPruning ... 4 (adaptive)
Weight generation scheme         WeightScheme... mBecke (2022)
Basis function cutoff            BFCut       ... 1.0000e-11
Integration weight cutoff        WCut        ... 1.0000e-14
Partially contracted basis set               ... on
Rotationally invariant grid construction     ... off
Angular grids for H and He will be reduced by one unit
Diffuse basis detected: some atoms will have their outermost
                        angular grid increased by 1.

Total number of grid points                  ...    60998
Total number of batches                      ...      490
Average number of points per batch           ...      124
Average number of grid points per atom       ...     3389
UseSFitting                                  ... on
Initializing property integral containers    ... done (  1.4 sec)

SHARK setup successfully completed in  16.5 seconds

Maximum memory used throughout the entire STARTUP-calculation: 66.4 MB


           ************************************************************
           *        Program running with 12 parallel MPI-processes    *
           *              working on a common directory               *
           ************************************************************
-------------------------------------------------------------------------------
                                 ORCA GUESS
                   Start orbitals & Density for SCF / CASSCF
-------------------------------------------------------------------------------

------------
SCF SETTINGS
------------
Hamiltonian:
 Density Functional     Method          .... DFT(GTOs)
 Exchange Functional    Exchange        .... TPSS
 Correlation Functional Correlation     .... TPSS
 LDA part of GGA corr.  LDAOpt          .... PW91-LDA
 Gradients option       PostSCFGGA      .... off
 Hybrid DFT is turned on
   Fraction HF Exchange ScalHFX         ....  0.100000
   Scaling of DF-GGA-X  ScalDFX         ....  0.900000
   Scaling of DF-GGA-C  ScalDFC         ....  1.000000
   Scaling of DF-LDA-C  ScalLDAC        ....  1.000000
   Perturbative correction              ....  0.000000
   NL short-range parameter             ....  5.200000
 RI-approximation to the Coulomb term is turned on
   Number of AuxJ basis functions       .... 578
   RIJ-COSX (HFX calculated with COS-X)).... on


General Settings:
 Integral files         IntName         .... cs_rporg_001_ox_freq_08
 Hartree-Fock type      HFTyp           .... UHF
 Total Charge           Charge          ....    1
 Multiplicity           Mult            ....    2
 Number of Electrons    NEL             ....   67
 Basis Dimension        Dim             ....  644
 Nuclear Repulsion      ENuc            ....    458.4112313295 Eh

Convergence Acceleration:
 AO-DIIS                CNVDIIS         .... on
   Start iteration      DIISMaxIt       ....     0
   Startup error        DIISStart       ....  0.200000
   # of expansion vecs  DIISMaxEq       ....     5
   Bias factor          DIISBfac        ....   1.050
   Max. coefficient     DIISMaxC        ....  10.000
 MO-DIIS                CNVKDIIS        .... off
 Trust-Rad. Augm. Hess. CNVTRAH         .... auto
   Auto Start mean grad. ratio tolernc. ....  1.125000
   Auto Start start iteration           ....    50
   Auto Start num. interpolation iter.  ....    10
   Max. Number of Micro iterations      ....    24
   Max. Number of Macro iterations      .... Maxiter - #DIIS iter
   Number of Davidson start vectors     ....     2
   Converg. threshold    (grad. norm)   ....   1.000e-05
   Grad. Scal. Fac. for Micro threshold ....   0.100
   Minimum threshold for Micro iter.    ....   1.000e-02
   NR start threshold (gradient norm)   ....   1.000e-04
   Initial trust radius                 ....   0.400
   Minimum AH scaling param. (alpha)    ....   1.000
   Maximum AH scaling param. (alpha)    .... 1000.000
   Quad. conv. algorithm                .... NR
   White noise on init. David. guess    .... on
   Maximum white noise                  ....   0.010
   Pseudo random numbers                .... off
   Inactive MOs                         .... canonical
   Orbital update algorithm             .... Taylor
   Preconditioner                       .... Diag
   Full preconditioner red. dimension   ....   250
 SOSCF                  CNVSOSCF        .... on
   Start iteration      SOSCFMaxIt      ....   150
   Startup grad/error   SOSCFStart      ....  0.001000
   Hessian update       SOSCFHessUp     .... L-BFGS
 Level Shifting         CNVShift        .... on
   Level shift para.    LevelShift      ....    0.2500
   Turn off err/grad.   ShiftErr        ....    0.0000
 Zerner damping         CNVZerner       .... off
 Static damping         CNVDamp         .... on
   Fraction old density DampFac         ....    0.8500
   Max. Damping (<1)    DampMax         ....    0.9800
   Min. Damping (>=0)   DampMin         ....    0.0000
   Turn off err/grad.   DampErr         ....    0.0300

SCF Procedure:
 Maximum # iterations   MaxIter         ....  1500
 SCF integral mode      SCFMode         .... Direct
   Integral package                     .... SHARK and LIBINT hybrid scheme
 Reset frequency        DirectResetFreq ....    20
 Integral Threshold     Thresh          ....  1.000e-12 Eh
 Primitive CutOff       TCut            ....  1.000e-13 Eh

Convergence Tolerance:
 Convergence Check Mode ConvCheckMode   .... Total+1el-Energy
 Convergence forced     ConvForced      .... 0
 Energy Change          TolE            ....  1.000e-08 Eh
 1-El. energy change                    ....  1.000e-05 Eh
 Orbital Gradient       TolG            ....  1.000e-05
 Orbital Rotation angle TolX            ....  1.000e-05
 DIIS Error             TolErr          ....  5.000e-07

------------------------------
INITIAL GUESS: MODEL POTENTIAL
------------------------------
Loading Hartree-Fock densities                     ... done
Calculating cut-offs                               ... done
Initializing the effective Hamiltonian             ... done
Setting up the integral package (SHARK)            ... done
Starting the Coulomb interaction                   ... done (   1.4 sec)
Making the grid                                    ... done (   1.1 sec)
Mapping shells                                     ... done
Starting the XC term evaluation                    ... done (   0.5 sec)
  promolecular density results
     # of electrons  =     67.992658432
     EX              =    -53.498128521
     EC              =     -2.250554154
     EX+EC           =    -55.748682675
Transforming the Hamiltonian                       ... done (   0.7 sec)
Diagonalizing the Hamiltonian                      ... done (   0.1 sec)
Back transforming the eigenvectors                 ... done (   1.0 sec)
Now organizing SCF variables                       ... done
                      ------------------
                      INITIAL GUESS DONE (  10.5 sec)
                      ------------------
             **** ENERGY FILE WAS UPDATED (cs_rporg_001_ox_freq_08.en.tmp) ****
Finished Guess after  19.5 sec
Maximum memory used throughout the entire GUESS-calculation: 48.6 MB


           ************************************************************
           *        Program running with 12 parallel MPI-processes    *
           *              working on a common directory               *
           ************************************************************

-------------------------------------------------------------------------------------------
                                      ORCA LEAN-SCF
                              memory conserving SCF solver
-------------------------------------------------------------------------------------------

--------------------
CPCM SOLVATION MODEL
--------------------
CPCM parameters:
  Epsilon                                         ...      35.6880
  Refrac                                          ...       1.3442
  Rsolv                                           ...       2.1900
  Surface type                                    ...    GEPOL SES
  Discretization scheme                           ... Constant num. charges
  Epsilon function type                           ...         CPCM
Solvent:                                          ... ACETONITRILE
SMD-CDS solvent descriptors:
  Soln                                            ...       1.3442
  Soln25                                          ...       1.3416
  Sola                                            ...       0.0700
  Solb                                            ...       0.3200
  Solg                                            ...      41.2500
  Solc                                            ...       0.0000
  Solh                                            ...       0.0000
Radii:
  Scheme                                          ... Element-dependent radii
  Radius for C  used is    3.4960 Bohr (=   1.8500 Ang.)
  Radius for H  used is    2.2677 Bohr (=   1.2000 Ang.)
Calculating surface                               ...        done! (  0.0s)
Cavity surface points                             ...          580
Cavity Volume                                     ...     974.5777
Cavity Surface-area                               ...     562.3336
Calculating surface distance matrix               ...        done! (  0.0s)
Performing Cholesky decomposition & store         ...        done! (  0.0s)
Overall time for CPCM initialization              ...                 0.1s

----------------------------------------D-I-I-S--------------------------------------------
Iteration    Energy (Eh)           Delta-E    RMSDP     MaxDP     DIISErr   Damp  Time(sec)
-------------------------------------------------------------------------------------------
               ***  Starting incremental Fock matrix formation  ***
    1    -385.7433324435728537     0.00e+00  9.36e-04  5.79e-02  4.68e-02  0.850  47.5
Warning: op=1 Small HOMO/LUMO gap (   0.055) - skipping pre-diagonalization
         Will do a full diagonalization
    2    -385.7670889916726082    -2.38e-02  8.87e-04  5.60e-02  3.70e-02  0.850  50.0
                               ***Turning on AO-DIIS***
    3    -385.7843370986806804    -1.72e-02  7.05e-04  4.37e-02  2.72e-02  0.850  45.0
    4    -385.7963637624062585    -1.20e-02  3.84e-03  2.36e-01  2.21e-02  0.000  45.1
    5    -385.8483993239481151    -5.20e-02  3.10e-04  1.78e-02  3.18e-03  0.000  45.3
    6    -385.8487715979053974    -3.72e-04  4.34e-05  1.87e-03  1.17e-03  0.000  43.2
                              *** Initializing SOSCF ***
---------------------------------------S-O-S-C-F--------------------------------------
Iteration    Energy (Eh)           Delta-E    RMSDP     MaxDP     MaxGrad    Time(sec)
--------------------------------------------------------------------------------------
    7    -385.8488530590891514    -8.15e-05  3.18e-05  1.39e-03  4.86e-04    48.7
               *** Restarting incremental Fock matrix formation ***
    8    -385.8488702865405457    -1.72e-05  1.22e-04  7.89e-03  7.81e-04    44.4
    9    -385.8488788291080027    -8.54e-06  5.58e-05  3.53e-03  3.29e-04    43.5
   10    -385.8488803276984527    -1.50e-06  5.01e-05  3.25e-03  3.00e-04    44.2
   11    -385.8488813771415380    -1.05e-06  5.82e-06  3.42e-04  7.34e-05    38.0
   12    -385.8488814016521928    -2.45e-08  4.91e-06  3.07e-04  4.13e-05    36.6
   13    -385.8488814395790314    -3.79e-08  3.57e-06  1.98e-04  1.44e-05    41.7
   14    -385.8488814472625563    -7.68e-09  2.58e-06  1.96e-04  6.43e-06    41.5
                 **** Energy Check signals convergence ****

               *****************************************************
               *                     SUCCESS                       *
               *           SCF CONVERGED AFTER  14 CYCLES          *
               *****************************************************

Recomputing exchange energy using gridx3       ... done (   16.797 sec)
Old exchange energy                            :     -5.449273685 Eh
New exchange energy                            :     -5.449309705 Eh
Exchange energy change after final integration :     -0.000036020 Eh
Total energy after final integration           :   -385.848917468 Eh

SMD CDS free energy correction energy :                -2.91425     Kcal/mol
Total Energy after SMD CDS correction =              -385.853561624 Eh
             **** ENERGY FILE WAS UPDATED (cs_rporg_001_ox_freq_08.en.tmp) ****

----------------
TOTAL SCF ENERGY
----------------

Total Energy       :       -385.85356162430799 Eh          -10499.60920 eV

Components:
Nuclear Repulsion  :        458.41123132954885 Eh           12474.00377 eV
Electronic Energy  :       -844.17729101021882 Eh          -22971.23192 eV
One Electron Energy:      -1414.95634503613701 Eh          -38502.91960 eV
Two Electron Energy:        570.77905402591819 Eh           15531.68768 eV
CPCM Dielectric    :         -0.08282176659254 Eh              -2.25369 eV
SMD CDS (Gcds)     :         -0.00464415674298 Eh              -0.12637 eV

Virial components:
Potential Energy   :       -769.60781155344739 Eh          -20942.09323 eV
Kinetic Energy     :        383.75424992913946 Eh           10442.48403 eV
Virial Ratio       :          2.00547045849149

DFT components:
N(Alpha)           :       33.999999767923 electrons
N(Beta)            :       33.000007906415 electrons
N(Total)           :       67.000007674338 electrons
E(X)               :      -49.419053569878 Eh       
E(C)               :       -2.217709869161 Eh       
E(XC)              :      -51.636763439039 Eh       

CPCM Solvation Model Properties:
Surface-charge          :         -1.03761095028478
Corrected charge        :         -1.00000000000000
Outlying charge corr.   :          0.00010491923166 Eh               0.00285 eV
Free-energy (cav+disp)  :         -0.00464415674298 Eh              -0.12637 eV

---------------
SCF CONVERGENCE
---------------

  Last Energy change         ...    7.6835e-09  Tolerance :   1.0000e-08
  Last MAX-Density change    ...    1.9596e-04  Tolerance :   1.0000e-07
  Last RMS-Density change    ...    2.5844e-06  Tolerance :   5.0000e-09
  Last DIIS Error            ...    4.8603e-04  Tolerance :   5.0000e-07
  Last Orbital Gradient      ...    6.4309e-06  Tolerance :   1.0000e-05
  Last Orbital Rotation      ...    1.8134e-05  Tolerance :   1.0000e-05


----------------------
UHF SPIN CONTAMINATION
----------------------

Warning: in a DFT calculation there is little theoretical justification to 
         calculate <S**2> as in Hartree-Fock theory. We will do it anyways
         but you should keep in mind that the values have only limited relevance

Expectation value of <S**2>     :     0.762354
Ideal value S*(S+1) for S=0.5   :     0.750000
Deviation                       :     0.012354

----------------
ORBITAL ENERGIES
----------------
                 SPIN UP ORBITALS
  NO   OCC          E(Eh)            E(eV) 
   0   1.0000     -10.172130      -276.7977 
   1   1.0000     -10.172116      -276.7973 
   2   1.0000     -10.172109      -276.7972 
   3   1.0000     -10.172099      -276.7969 
   4   1.0000     -10.160029      -276.4684 
   5   1.0000     -10.159641      -276.4579 
   6   1.0000     -10.157270      -276.3934 
   7   1.0000     -10.157270      -276.3934 
   8   1.0000     -10.156749      -276.3792 
   9   1.0000     -10.156740      -276.3790 
  10   1.0000      -0.898663       -24.4539 
  11   1.0000      -0.844611       -22.9830 
  12   1.0000      -0.798863       -21.7382 
  13   1.0000      -0.762700       -20.7541 
  14   1.0000      -0.740544       -20.1512 
  15   1.0000      -0.650234       -17.6938 
  16   1.0000      -0.628958       -17.1148 
  17   1.0000      -0.616327       -16.7711 
  18   1.0000      -0.531781       -14.4705 
  19   1.0000      -0.527335       -14.3495 
  20   1.0000      -0.510819       -13.9001 
  21   1.0000      -0.464208       -12.6317 
  22   1.0000      -0.459105       -12.4929 
  23   1.0000      -0.435382       -11.8474 
  24   1.0000      -0.434498       -11.8233 
  25   1.0000      -0.423195       -11.5157 
  26   1.0000      -0.410458       -11.1691 
  27   1.0000      -0.388986       -10.5848 
  28   1.0000      -0.361302        -9.8315 
  29   1.0000      -0.354146        -9.6368 
  30   1.0000      -0.349315        -9.5053 
  31   1.0000      -0.325124        -8.8471 
  32   1.0000      -0.277609        -7.5541 
  33   1.0000      -0.257591        -7.0094 
  34   0.0000      -0.109693        -2.9849 
  35   0.0000      -0.060178        -1.6375 
  36   0.0000      -0.038362        -1.0439 
  37   0.0000      -0.006368        -0.1733 
  38   0.0000       0.005511         0.1500 
  39   0.0000       0.008038         0.2187 
  40   0.0000       0.024708         0.6723 
  41   0.0000       0.025672         0.6986 
  42   0.0000       0.033092         0.9005 
  43   0.0000       0.033375         0.9082 
  44   0.0000       0.034301         0.9334 

                 SPIN DOWN ORBITALS
  NO   OCC          E(Eh)            E(eV) 
   0   1.0000     -10.168214      -276.6912 
   1   1.0000     -10.168197      -276.6907 
   2   1.0000     -10.168193      -276.6906 
   3   1.0000     -10.168180      -276.6902 
   4   1.0000     -10.161084      -276.4971 
   5   1.0000     -10.160697      -276.4866 
   6   1.0000     -10.156631      -276.3760 
   7   1.0000     -10.156630      -276.3760 
   8   1.0000     -10.156105      -276.3617 
   9   1.0000     -10.156097      -276.3614 
  10   1.0000      -0.894544       -24.3418 
  11   1.0000      -0.838611       -22.8198 
  12   1.0000      -0.790924       -21.5221 
  13   1.0000      -0.762145       -20.7390 
  14   1.0000      -0.729467       -19.8498 
  15   1.0000      -0.645619       -17.5682 
  16   1.0000      -0.625983       -17.0339 
  17   1.0000      -0.612105       -16.6562 
  18   1.0000      -0.529290       -14.4027 
  19   1.0000      -0.523424       -14.2431 
  20   1.0000      -0.509053       -13.8520 
  21   1.0000      -0.462449       -12.5839 
  22   1.0000      -0.458306       -12.4711 
  23   1.0000      -0.433520       -11.7967 
  24   1.0000      -0.432133       -11.7589 
  25   1.0000      -0.410808       -11.1787 
  26   1.0000      -0.408046       -11.1035 
  27   1.0000      -0.388155       -10.5622 
  28   1.0000      -0.352069        -9.5803 
  29   1.0000      -0.348713        -9.4890 
  30   1.0000      -0.343451        -9.3458 
  31   1.0000      -0.299580        -8.1520 
  32   1.0000      -0.275948        -7.5089 
  33   0.0000      -0.207407        -5.6438 
  34   0.0000      -0.084625        -2.3028 
  35   0.0000      -0.053001        -1.4422 
  36   0.0000      -0.021236        -0.5779 
  37   0.0000      -0.005450        -0.1483 
  38   0.0000       0.005960         0.1622 
  39   0.0000       0.008812         0.2398 
  40   0.0000       0.025069         0.6821 
  41   0.0000       0.026220         0.7135 
  42   0.0000       0.035583         0.9683 
  43   0.0000       0.036410         0.9908 
*Only the first 10 virtual orbitals were printed.

                    ********************************
                    * MULLIKEN POPULATION ANALYSIS *
                    ********************************

--------------------------------------------
MULLIKEN ATOMIC CHARGES AND SPIN POPULATIONS
--------------------------------------------
   0 C :   -0.266377    0.027877
   1 C :   -0.264637    0.027856
   2 C :   -0.771229    0.267905
   3 C :    1.303911   -0.095486
   4 C :   -0.771848    0.267914
   5 C :   -0.265707    0.027875
   6 C :   -0.263833    0.027868
   7 C :   -0.770481    0.267907
   8 C :    1.303954   -0.095549
   9 C :   -0.771885    0.267914
  10 H :    0.021556    0.003611
  11 H :    0.018450    0.003627
  12 H :    0.614728   -0.001639
  13 H :    0.611343   -0.001620
  14 H :    0.025782    0.003609
  15 H :    0.017390    0.003620
  16 H :    0.617583   -0.001653
  17 H :    0.611297   -0.001633
Sum of atomic charges         :    1.0000000
Sum of atomic spin populations:    1.0000000

-----------------------------------------------------
MULLIKEN REDUCED ORBITAL CHARGES AND SPIN POPULATIONS
-----------------------------------------------------
CHARGE
  0 C s       :     3.498301  s :     3.498301
      pz      :     0.875075  p :     2.629499
      px      :     0.920220
      py      :     0.834203
      dz2     :    -0.013674  d :     0.140860
      dxz     :     0.012189
      dyz     :     0.024252
      dx2y2   :     0.105299
      dxy     :     0.012794
      f0      :     0.000772  f :    -0.002283
      f+1     :     0.000409
      f-1     :     0.000697
      f+2     :     0.001038
      f-2     :     0.000376
      f+3     :    -0.007199
      f-3     :     0.001624

  1 C s       :     3.498994  s :     3.498994
      pz      :     0.875072  p :     2.627712
      px      :     0.918982
      py      :     0.833659
      dz2     :    -0.013563  d :     0.140239
      dxz     :     0.012187
      dyz     :     0.024249
      dx2y2   :     0.104576
      dxy     :     0.012790
      f0      :     0.000772  f :    -0.002309
      f+1     :     0.000407
      f-1     :     0.000700
      f+2     :     0.001038
      f-2     :     0.000376
      f+3     :    -0.007225
      f-3     :     0.001623

  2 C s       :     3.961056  s :     3.961056
      pz      :     0.818286  p :     2.556797
      px      :     0.918800
      py      :     0.819711
      dz2     :    -0.001022  d :     0.265027
      dxz     :     0.012100
      dyz     :     0.009162
      dx2y2   :     0.274594
      dxy     :    -0.029807
      f0      :     0.001287  f :    -0.011651
      f+1     :     0.000174
      f-1     :     0.000251
      f+2     :     0.000389
      f-2     :     0.001834
      f+3     :    -0.018005
      f-3     :     0.002419

  3 C s       :     3.103100  s :     3.103100
      pz      :     0.991204  p :     1.769659
      px      :     0.152458
      py      :     0.625997
      dz2     :    -0.041788  d :    -0.076880
      dxz     :    -0.025516
      dyz     :    -0.059418
      dx2y2   :     0.157274
      dxy     :    -0.107433
      f0      :     0.002213  f :    -0.099790
      f+1     :    -0.003511
      f-1     :    -0.001052
      f+2     :    -0.001628
      f-2     :    -0.000790
      f+3     :    -0.084270
      f-3     :    -0.010751

  4 C s       :     3.960649  s :     3.960649
      pz      :     0.818295  p :     2.558954
      px      :     0.920551
      py      :     0.820108
      dz2     :    -0.000930  d :     0.263927
      dxz     :     0.012082
      dyz     :     0.009157
      dx2y2   :     0.273618
      dxy     :    -0.029999
      f0      :     0.001287  f :    -0.011682
      f+1     :     0.000164
      f-1     :     0.000244
      f+2     :     0.000389
      f-2     :     0.001833
      f+3     :    -0.018018
      f-3     :     0.002418

  5 C s       :     3.499024  s :     3.499024
      pz      :     0.875082  p :     2.628838
      px      :     0.919934
      py      :     0.833822
      dz2     :    -0.013663  d :     0.140103
      dxz     :     0.012182
      dyz     :     0.024252
      dx2y2   :     0.105076
      dxy     :     0.012256
      f0      :     0.000772  f :    -0.002258
      f+1     :     0.000410
      f-1     :     0.000695
      f+2     :     0.001040
      f-2     :     0.000376
      f+3     :    -0.007168
      f-3     :     0.001618

  6 C s       :     3.498271  s :     3.498271
      pz      :     0.875083  p :     2.628510
      px      :     0.919960
      py      :     0.833467
      dz2     :    -0.013520  d :     0.139341
      dxz     :     0.012184
      dyz     :     0.024250
      dx2y2   :     0.104186
      dxy     :     0.012240
      f0      :     0.000773  f :    -0.002289
      f+1     :     0.000408
      f-1     :     0.000700
      f+2     :     0.001038
      f-2     :     0.000376
      f+3     :    -0.007203
      f-3     :     0.001620

  7 C s       :     3.960477  s :     3.960477
      pz      :     0.818308  p :     2.558310
      px      :     0.920244
      py      :     0.819759
      dz2     :    -0.000982  d :     0.263376
      dxz     :     0.012080
      dyz     :     0.009173
      dx2y2   :     0.272884
      dxy     :    -0.029780
      f0      :     0.001287  f :    -0.011682
      f+1     :     0.000171
      f-1     :     0.000249
      f+2     :     0.000390
      f-2     :     0.001830
      f+3     :    -0.018016
      f-3     :     0.002408

  8 C s       :     3.104108  s :     3.104108
      pz      :     0.991201  p :     1.772269
      px      :     0.153733
      py      :     0.627335
      dz2     :    -0.041664  d :    -0.080297
      dxz     :    -0.025632
      dyz     :    -0.059428
      dx2y2   :     0.156422
      dxy     :    -0.109995
      f0      :     0.002212  f :    -0.100035
      f+1     :    -0.003509
      f-1     :    -0.001049
      f+2     :    -0.001635
      f-2     :    -0.000792
      f+3     :    -0.084501
      f-3     :    -0.010761

  9 C s       :     3.959559  s :     3.959559
      pz      :     0.818306  p :     2.558986
      px      :     0.920514
      py      :     0.820166
      dz2     :    -0.000871  d :     0.265036
      dxz     :     0.012092
      dyz     :     0.009170
      dx2y2   :     0.273988
      dxy     :    -0.029344
      f0      :     0.001287  f :    -0.011696
      f+1     :     0.000169
      f-1     :     0.000247
      f+2     :     0.000388
      f-2     :     0.001831
      f+3     :    -0.018015
      f-3     :     0.002397

 10 H s       :     0.941835  s :     0.941835
      pz      :     0.014300  p :     0.028423
      px      :    -0.005361
      py      :     0.019484
      dz2     :    -0.000074  d :     0.008186
      dxz     :     0.000254
      dyz     :     0.004610
      dx2y2   :     0.001505
      dxy     :     0.001891

 11 H s       :     0.944422  s :     0.944422
      pz      :     0.014302  p :     0.028950
      px      :    -0.005315
      py      :     0.019964
      dz2     :    -0.000073  d :     0.008178
      dxz     :     0.000254
      dyz     :     0.004610
      dx2y2   :     0.001499
      dxy     :     0.001887

 12 H s       :     0.384767  s :     0.384767
      pz      :     0.016329  p :    -0.006702
      px      :    -0.031742
      py      :     0.008712
      dz2     :    -0.000367  d :     0.007206
      dxz     :     0.003447
      dyz     :     0.001304
      dx2y2   :     0.002065
      dxy     :     0.000758

 13 H s       :     0.387598  s :     0.387598
      pz      :     0.016327  p :    -0.006147
      px      :    -0.031349
      py      :     0.008875
      dz2     :    -0.000370  d :     0.007206
      dxz     :     0.003448
      dyz     :     0.001305
      dx2y2   :     0.002064
      dxy     :     0.000760

 14 H s       :     0.937516  s :     0.937516
      pz      :     0.014293  p :     0.028520
      px      :    -0.005215
      py      :     0.019441
      dz2     :    -0.000075  d :     0.008182
      dxz     :     0.000255
      dyz     :     0.004609
      dx2y2   :     0.001504
      dxy     :     0.001889

 15 H s       :     0.945483  s :     0.945483
      pz      :     0.014298  p :     0.028954
      px      :    -0.005427
      py      :     0.020083
      dz2     :    -0.000076  d :     0.008172
      dxz     :     0.000254
      dyz     :     0.004609
      dx2y2   :     0.001502
      dxy     :     0.001883

 16 H s       :     0.381871  s :     0.381871
      pz      :     0.016324  p :    -0.006648
      px      :    -0.031642
      py      :     0.008670
      dz2     :    -0.000370  d :     0.007193
      dxz     :     0.003447
      dyz     :     0.001304
      dx2y2   :     0.002061
      dxy     :     0.000751

 17 H s       :     0.387353  s :     0.387353
      pz      :     0.016329  p :    -0.005852
      px      :    -0.031354
      py      :     0.009173
      dz2     :    -0.000373  d :     0.007202
      dxz     :     0.003448
      dyz     :     0.001304
      dx2y2   :     0.002063
      dxy     :     0.000760


SPIN
  0 C s       :    -0.009624  s :    -0.009624
      pz      :     0.036823  p :     0.030689
      px      :    -0.001314
      py      :    -0.004820
      dz2     :    -0.000280  d :     0.007917
      dxz     :     0.002316
      dyz     :     0.008970
      dx2y2   :    -0.001889
      dxy     :    -0.001200
      f0      :    -0.000158  f :    -0.001105
      f+1     :     0.000001
      f-1     :    -0.000143
      f+2     :    -0.000108
      f-2     :    -0.000076
      f+3     :    -0.000486
      f-3     :    -0.000135

  1 C s       :    -0.009634  s :    -0.009634
      pz      :     0.036820  p :     0.030673
      px      :    -0.001322
      py      :    -0.004825
      dz2     :    -0.000279  d :     0.007924
      dxz     :     0.002315
      dyz     :     0.008972
      dx2y2   :    -0.001887
      dxy     :    -0.001197
      f0      :    -0.000157  f :    -0.001107
      f+1     :     0.000001
      f-1     :    -0.000143
      f+2     :    -0.000109
      f-2     :    -0.000076
      f+3     :    -0.000487
      f-3     :    -0.000135

  2 C s       :     0.003344  s :     0.003344
      pz      :     0.230214  p :     0.262813
      px      :     0.017111
      py      :     0.015488
      dz2     :    -0.001202  d :     0.003300
      dxz     :     0.001053
      dyz     :    -0.000055
      dx2y2   :     0.000646
      dxy     :     0.002858
      f0      :    -0.000480  f :    -0.001553
      f+1     :    -0.000186
      f-1     :    -0.000348
      f+2     :     0.000026
      f-2     :     0.000033
      f+3     :    -0.000381
      f-3     :    -0.000216

  3 C s       :    -0.003500  s :    -0.003500
      pz      :    -0.055304  p :    -0.066887
      px      :    -0.012418
      py      :     0.000835
      dz2     :     0.000566  d :    -0.021394
      dxz     :    -0.007491
      dyz     :    -0.005724
      dx2y2   :    -0.008516
      dxy     :    -0.000230
      f0      :    -0.000055  f :    -0.003705
      f+1     :     0.000004
      f-1     :     0.000149
      f+2     :    -0.000811
      f-2     :    -0.000861
      f+3     :    -0.001983
      f-3     :    -0.000149

  4 C s       :     0.003382  s :     0.003382
      pz      :     0.230211  p :     0.262785
      px      :     0.017091
      py      :     0.015483
      dz2     :    -0.001202  d :     0.003298
      dxz     :     0.001047
      dyz     :    -0.000054
      dx2y2   :     0.000641
      dxy     :     0.002866
      f0      :    -0.000480  f :    -0.001551
      f+1     :    -0.000186
      f-1     :    -0.000348
      f+2     :     0.000026
      f-2     :     0.000033
      f+3     :    -0.000380
      f-3     :    -0.000216

  5 C s       :    -0.009641  s :    -0.009641
      pz      :     0.036822  p :     0.030684
      px      :    -0.001319
      py      :    -0.004819
      dz2     :    -0.000279  d :     0.007939
      dxz     :     0.002315
      dyz     :     0.008978
      dx2y2   :    -0.001881
      dxy     :    -0.001194
      f0      :    -0.000157  f :    -0.001107
      f+1     :     0.000001
      f-1     :    -0.000143
      f+2     :    -0.000110
      f-2     :    -0.000076
      f+3     :    -0.000487
      f-3     :    -0.000135

  6 C s       :    -0.009640  s :    -0.009640
      pz      :     0.036823  p :     0.030690
      px      :    -0.001318
      py      :    -0.004815
      dz2     :    -0.000279  d :     0.007924
      dxz     :     0.002317
      dyz     :     0.008979
      dx2y2   :    -0.001892
      dxy     :    -0.001200
      f0      :    -0.000157  f :    -0.001107
      f+1     :     0.000001
      f-1     :    -0.000143
      f+2     :    -0.000110
      f-2     :    -0.000075
      f+3     :    -0.000487
      f-3     :    -0.000135

  7 C s       :     0.003355  s :     0.003355
      pz      :     0.230215  p :     0.262790
      px      :     0.017088
      py      :     0.015487
      dz2     :    -0.001200  d :     0.003313
      dxz     :     0.001047
      dyz     :    -0.000055
      dx2y2   :     0.000655
      dxy     :     0.002865
      f0      :    -0.000480  f :    -0.001552
      f+1     :    -0.000186
      f-1     :    -0.000348
      f+2     :     0.000026
      f-2     :     0.000032
      f+3     :    -0.000380
      f-3     :    -0.000215

  8 C s       :    -0.003514  s :    -0.003514
      pz      :    -0.055303  p :    -0.066909
      px      :    -0.012460
      py      :     0.000854
      dz2     :     0.000571  d :    -0.021416
      dxz     :    -0.007493
      dyz     :    -0.005723
      dx2y2   :    -0.008523
      dxy     :    -0.000250
      f0      :    -0.000055  f :    -0.003709
      f+1     :     0.000004
      f-1     :     0.000149
      f+2     :    -0.000811
      f-2     :    -0.000862
      f+3     :    -0.001985
      f-3     :    -0.000149

  9 C s       :     0.003367  s :     0.003367
      pz      :     0.230213  p :     0.262788
      px      :     0.017084
      py      :     0.015491
      dz2     :    -0.001202  d :     0.003310
      dxz     :     0.001053
      dyz     :    -0.000055
      dx2y2   :     0.000652
      dxy     :     0.002863
      f0      :    -0.000480  f :    -0.001552
      f+1     :    -0.000186
      f-1     :    -0.000348
      f+2     :     0.000026
      f-2     :     0.000032
      f+3     :    -0.000380
      f-3     :    -0.000216

 10 H s       :    -0.004223  s :    -0.004223
      pz      :     0.005633  p :     0.006744
      px      :     0.000102
      py      :     0.001009
      dz2     :     0.000044  d :     0.001089
      dxz     :     0.000002
      dyz     :     0.000858
      dx2y2   :    -0.000028
      dxy     :     0.000212

 11 H s       :    -0.004204  s :    -0.004204
      pz      :     0.005631  p :     0.006742
      px      :     0.000101
      py      :     0.001010
      dz2     :     0.000044  d :     0.001089
      dxz     :     0.000003
      dyz     :     0.000857
      dx2y2   :    -0.000028
      dxy     :     0.000212

 12 H s       :    -0.002724  s :    -0.002724
      pz      :     0.000069  p :     0.001077
      px      :     0.000821
      py      :     0.000187
      dz2     :     0.000034  d :     0.000008
      dxz     :     0.000132
      dyz     :    -0.000126
      dx2y2   :    -0.000019
      dxy     :    -0.000014

 13 H s       :    -0.002704  s :    -0.002704
      pz      :     0.000067  p :     0.001077
      px      :     0.000823
      py      :     0.000188
      dz2     :     0.000034  d :     0.000007
      dxz     :     0.000131
      dyz     :    -0.000126
      dx2y2   :    -0.000019
      dxy     :    -0.000014

 14 H s       :    -0.004222  s :    -0.004222
      pz      :     0.005631  p :     0.006742
      px      :     0.000102
      py      :     0.001008
      dz2     :     0.000044  d :     0.001089
      dxz     :     0.000003
      dyz     :     0.000858
      dx2y2   :    -0.000028
      dxy     :     0.000212

 15 H s       :    -0.004217  s :    -0.004217
      pz      :     0.005632  p :     0.006748
      px      :     0.000103
      py      :     0.001012
      dz2     :     0.000044  d :     0.001089
      dxz     :     0.000002
      dyz     :     0.000857
      dx2y2   :    -0.000028
      dxy     :     0.000212

 16 H s       :    -0.002732  s :    -0.002732
      pz      :     0.000066  p :     0.001073
      px      :     0.000820
      py      :     0.000187
      dz2     :     0.000034  d :     0.000007
      dxz     :     0.000131
      dyz     :    -0.000126
      dx2y2   :    -0.000019
      dxy     :    -0.000014

 17 H s       :    -0.002718  s :    -0.002718
      pz      :     0.000069  p :     0.001076
      px      :     0.000819
      py      :     0.000188
      dz2     :     0.000034  d :     0.000008
      dxz     :     0.000132
      dyz     :    -0.000126
      dx2y2   :    -0.000019
      dxy     :    -0.000014



                     *******************************
                     * LOEWDIN POPULATION ANALYSIS *
                     *******************************

-------------------------------------------
LOEWDIN ATOMIC CHARGES AND SPIN POPULATIONS
-------------------------------------------
   0 C :    0.282582    0.072190
   1 C :    0.282585    0.072189
   2 C :    0.303240    0.130398
   3 C :   -0.088198    0.030656
   4 C :    0.303241    0.130397
   5 C :    0.282581    0.072189
   6 C :    0.282584    0.072190
   7 C :    0.303244    0.130399
   8 C :   -0.088192    0.030655
   9 C :    0.303244    0.130398
  10 H :   -0.139167    0.025122
  11 H :   -0.139168    0.025122
  12 H :   -0.152559    0.006963
  13 H :   -0.152563    0.006963
  14 H :   -0.139165    0.025122
  15 H :   -0.139166    0.025122
  16 H :   -0.152561    0.006963
  17 H :   -0.152561    0.006963

----------------------------------------------------
LOEWDIN REDUCED ORBITAL CHARGES AND SPIN POPULATIONS
----------------------------------------------------
CHARGE
  0 C s       :     2.490576  s :     2.490576
      pz      :     0.561193  p :     2.250410
      px      :     0.836891
      py      :     0.852326
      dz2     :     0.067514  d :     0.652504
      dxz     :     0.047548
      dyz     :     0.078923
      dx2y2   :     0.199581
      dxy     :     0.258940
      f0      :     0.020341  f :     0.323927
      f+1     :     0.022818
      f-1     :     0.028668
      f+2     :     0.038033
      f-2     :     0.019014
      f+3     :     0.138543
      f-3     :     0.056510

  1 C s       :     2.490577  s :     2.490577
      pz      :     0.561193  p :     2.250409
      px      :     0.836890
      py      :     0.852326
      dz2     :     0.067513  d :     0.652503
      dxz     :     0.047547
      dyz     :     0.078923
      dx2y2   :     0.199585
      dxy     :     0.258935
      f0      :     0.020341  f :     0.323926
      f+1     :     0.022817
      f-1     :     0.028669
      f+2     :     0.038032
      f-2     :     0.019015
      f+3     :     0.138543
      f-3     :     0.056510

  2 C s       :     2.484920  s :     2.484920
      pz      :     0.515337  p :     2.201684
      px      :     0.847833
      py      :     0.838514
      dz2     :     0.068287  d :     0.677067
      dxz     :     0.121455
      dyz     :     0.035687
      dx2y2   :     0.273766
      dxy     :     0.177872
      f0      :     0.021149  f :     0.333089
      f+1     :     0.031400
      f-1     :     0.019843
      f+2     :     0.014670
      f-2     :     0.052012
      f+3     :     0.134077
      f-3     :     0.059937

  3 C s       :     2.449018  s :     2.449018
      pz      :     0.603607  p :     2.259683
      px      :     0.833585
      py      :     0.822491
      dz2     :     0.089241  d :     0.885318
      dxz     :     0.109680
      dyz     :     0.113625
      dx2y2   :     0.269386
      dxy     :     0.303386
      f0      :     0.031453  f :     0.494179
      f+1     :     0.037109
      f-1     :     0.034514
      f+2     :     0.066460
      f-2     :     0.030678
      f+3     :     0.214192
      f-3     :     0.079773

  4 C s       :     2.484918  s :     2.484918
      pz      :     0.515337  p :     2.201684
      px      :     0.847833
      py      :     0.838514
      dz2     :     0.068287  d :     0.677067
      dxz     :     0.121455
      dyz     :     0.035687
      dx2y2   :     0.273766
      dxy     :     0.177872
      f0      :     0.021149  f :     0.333090
      f+1     :     0.031400
      f-1     :     0.019843
      f+2     :     0.014670
      f-2     :     0.052013
      f+3     :     0.134078
      f-3     :     0.059937

  5 C s       :     2.490576  s :     2.490576
      pz      :     0.561193  p :     2.250411
      px      :     0.836891
      py      :     0.852326
      dz2     :     0.067514  d :     0.652505
      dxz     :     0.047548
      dyz     :     0.078923
      dx2y2   :     0.199580
      dxy     :     0.258940
      f0      :     0.020341  f :     0.323928
      f+1     :     0.022818
      f-1     :     0.028669
      f+2     :     0.038033
      f-2     :     0.019014
      f+3     :     0.138544
      f-3     :     0.056510

  6 C s       :     2.490576  s :     2.490576
      pz      :     0.561193  p :     2.250410
      px      :     0.836891
      py      :     0.852326
      dz2     :     0.067514  d :     0.652503
      dxz     :     0.047546
      dyz     :     0.078924
      dx2y2   :     0.199585
      dxy     :     0.258934
      f0      :     0.020341  f :     0.323927
      f+1     :     0.022817
      f-1     :     0.028669
      f+2     :     0.038031
      f-2     :     0.019015
      f+3     :     0.138543
      f-3     :     0.056510

  7 C s       :     2.484920  s :     2.484920
      pz      :     0.515336  p :     2.201683
      px      :     0.847832
      py      :     0.838515
      dz2     :     0.068287  d :     0.677065
      dxz     :     0.121454
      dyz     :     0.035687
      dx2y2   :     0.273765
      dxy     :     0.177872
      f0      :     0.021149  f :     0.333089
      f+1     :     0.031400
      f-1     :     0.019843
      f+2     :     0.014671
      f-2     :     0.052012
      f+3     :     0.134077
      f-3     :     0.059937

  8 C s       :     2.449018  s :     2.449018
      pz      :     0.603607  p :     2.259684
      px      :     0.833587
      py      :     0.822490
      dz2     :     0.089241  d :     0.885313
      dxz     :     0.109678
      dyz     :     0.113624
      dx2y2   :     0.269385
      dxy     :     0.303384
      f0      :     0.031453  f :     0.494177
      f+1     :     0.037109
      f-1     :     0.034513
      f+2     :     0.066460
      f-2     :     0.030677
      f+3     :     0.214190
      f-3     :     0.079773

  9 C s       :     2.484918  s :     2.484918
      pz      :     0.515336  p :     2.201684
      px      :     0.847833
      py      :     0.838515
      dz2     :     0.068286  d :     0.677065
      dxz     :     0.121455
      dyz     :     0.035687
      dx2y2   :     0.273766
      dxy     :     0.177872
      f0      :     0.021149  f :     0.333089
      f+1     :     0.031400
      f-1     :     0.019843
      f+2     :     0.014670
      f-2     :     0.052013
      f+3     :     0.134078
      f-3     :     0.059937

 10 H s       :     0.643835  s :     0.643835
      pz      :     0.063741  p :     0.286752
      px      :     0.078430
      py      :     0.144581
      dz2     :     0.023704  d :     0.208581
      dxz     :     0.003828
      dyz     :     0.051062
      dx2y2   :     0.048139
      dxy     :     0.081848

 11 H s       :     0.643835  s :     0.643835
      pz      :     0.063741  p :     0.286752
      px      :     0.078429
      py      :     0.144581
      dz2     :     0.023704  d :     0.208581
      dxz     :     0.003828
      dyz     :     0.051062
      dx2y2   :     0.048139
      dxy     :     0.081848

 12 H s       :     0.655619  s :     0.655619
      pz      :     0.070329  p :     0.288799
      px      :     0.126023
      py      :     0.092447
      dz2     :     0.022846  d :     0.208141
      dxz     :     0.041521
      dyz     :     0.016408
      dx2y2   :     0.072893
      dxy     :     0.054474

 13 H s       :     0.655620  s :     0.655620
      pz      :     0.070329  p :     0.288801
      px      :     0.126022
      py      :     0.092450
      dz2     :     0.022846  d :     0.208143
      dxz     :     0.041520
      dyz     :     0.016410
      dx2y2   :     0.072896
      dxy     :     0.054472

 14 H s       :     0.643832  s :     0.643832
      pz      :     0.063741  p :     0.286752
      px      :     0.078430
      py      :     0.144580
      dz2     :     0.023704  d :     0.208581
      dxz     :     0.003828
      dyz     :     0.051062
      dx2y2   :     0.048139
      dxy     :     0.081848

 15 H s       :     0.643834  s :     0.643834
      pz      :     0.063741  p :     0.286751
      px      :     0.078429
      py      :     0.144581
      dz2     :     0.023704  d :     0.208580
      dxz     :     0.003828
      dyz     :     0.051062
      dx2y2   :     0.048139
      dxy     :     0.081848

 16 H s       :     0.655620  s :     0.655620
      pz      :     0.070329  p :     0.288800
      px      :     0.126024
      py      :     0.092447
      dz2     :     0.022846  d :     0.208142
      dxz     :     0.041521
      dyz     :     0.016408
      dx2y2   :     0.072893
      dxy     :     0.054474

 17 H s       :     0.655619  s :     0.655619
      pz      :     0.070329  p :     0.288800
      px      :     0.126022
      py      :     0.092449
      dz2     :     0.022846  d :     0.208142
      dxz     :     0.041520
      dyz     :     0.016409
      dx2y2   :     0.072895
      dxy     :     0.054472


SPIN
  0 C s       :     0.000306  s :     0.000306
      pz      :     0.027582  p :     0.025529
      px      :    -0.001630
      py      :    -0.000423
      dz2     :    -0.000256  d :     0.030489
      dxz     :     0.007552
      dyz     :     0.022436
      dx2y2   :     0.000325
      dxy     :     0.000433
      f0      :     0.000741  f :     0.015865
      f+1     :    -0.000113
      f-1     :    -0.000132
      f+2     :     0.007277
      f-2     :     0.007611
      f+3     :     0.000219
      f-3     :     0.000263

  1 C s       :     0.000306  s :     0.000306
      pz      :     0.027581  p :     0.025528
      px      :    -0.001630
      py      :    -0.000423
      dz2     :    -0.000256  d :     0.030489
      dxz     :     0.007551
      dyz     :     0.022436
      dx2y2   :     0.000325
      dxy     :     0.000433
      f0      :     0.000741  f :     0.015865
      f+1     :    -0.000113
      f-1     :    -0.000132
      f+2     :     0.007277
      f-2     :     0.007612
      f+3     :     0.000219
      f-3     :     0.000263

  2 C s       :     0.003865  s :     0.003865
      pz      :     0.122510  p :     0.127634
      px      :     0.002505
      py      :     0.002619
      dz2     :    -0.001018  d :     0.002396
      dxz     :     0.005470
      dyz     :    -0.000730
      dx2y2   :    -0.000874
      dxy     :    -0.000452
      f0      :    -0.001640  f :    -0.003496
      f+1     :    -0.000222
      f-1     :    -0.000329
      f+2     :    -0.000452
      f-2     :    -0.000385
      f+3     :    -0.000136
      f-3     :    -0.000332

  3 C s       :    -0.001582  s :    -0.001582
      pz      :    -0.022684  p :    -0.028069
      px      :    -0.003911
      py      :    -0.001473
      dz2     :     0.000130  d :     0.029842
      dxz     :     0.033203
      dyz     :    -0.004993
      dx2y2   :     0.000593
      dxy     :     0.000910
      f0      :     0.001913  f :     0.030464
      f+1     :    -0.000111
      f-1     :     0.000000
      f+2     :    -0.000599
      f-2     :     0.028606
      f+3     :     0.000022
      f-3     :     0.000633

  4 C s       :     0.003865  s :     0.003865
      pz      :     0.122509  p :     0.127633
      px      :     0.002505
      py      :     0.002619
      dz2     :    -0.001018  d :     0.002396
      dxz     :     0.005470
      dyz     :    -0.000730
      dx2y2   :    -0.000874
      dxy     :    -0.000452
      f0      :    -0.001640  f :    -0.003496
      f+1     :    -0.000222
      f-1     :    -0.000329
      f+2     :    -0.000452
      f-2     :    -0.000385
      f+3     :    -0.000136
      f-3     :    -0.000332

  5 C s       :     0.000306  s :     0.000306
      pz      :     0.027581  p :     0.025528
      px      :    -0.001630
      py      :    -0.000423
      dz2     :    -0.000256  d :     0.030489
      dxz     :     0.007552
      dyz     :     0.022436
      dx2y2   :     0.000325
      dxy     :     0.000433
      f0      :     0.000741  f :     0.015865
      f+1     :    -0.000113
      f-1     :    -0.000132
      f+2     :     0.007278
      f-2     :     0.007611
      f+3     :     0.000219
      f-3     :     0.000263

  6 C s       :     0.000306  s :     0.000306
      pz      :     0.027583  p :     0.025529
      px      :    -0.001630
      py      :    -0.000423
      dz2     :    -0.000256  d :     0.030489
      dxz     :     0.007551
[...]
     27      -0.000605   0.000726   0.001026  -0.000734  -0.001590   0.001547
     28       0.041861  -0.041073   0.022602  -0.023710  -0.013955   0.014395
     29      -0.000000   0.000002   0.000002   0.000001   0.000002  -0.000000
     30       0.001628  -0.004034  -0.000270  -0.000930   0.001306  -0.000509
     31      -0.478662   0.471054  -0.252058   0.264822   0.149980  -0.154066
     32       0.000004  -0.000010   0.000009  -0.000009  -0.000005   0.000008
     33       0.001603   0.004054  -0.000311   0.000919   0.001281   0.000553
     34       0.474021   0.473673   0.236688   0.278995  -0.143404  -0.159488
     35       0.000013   0.000020   0.000013   0.000014  -0.000007  -0.000011
     36      -0.126698  -0.136296   0.366005   0.372926  -0.402152  -0.415667
     37      -0.075119  -0.081230   0.210912   0.214541  -0.235334  -0.242893
     38      -0.000016  -0.000018   0.000039   0.000037  -0.000052  -0.000055
     39      -0.125928  -0.135315  -0.365427  -0.372491  -0.403229  -0.416292
     40       0.074686   0.080678   0.210609   0.214310   0.235981   0.243283
     41      -0.000002  -0.000004  -0.000003  -0.000000  -0.000010  -0.000013
     42       0.001588   0.004046   0.000331  -0.000904   0.001286   0.000562
     43      -0.472946  -0.475980   0.235119   0.277713   0.143833   0.159627
     44      -0.000020  -0.000013   0.000003   0.000005   0.000003  -0.000001
     45       0.001640  -0.004031   0.000256   0.000925   0.001304  -0.000502
     46       0.477229  -0.469443  -0.252332   0.263569  -0.149831   0.153793
     47      -0.000025   0.000018   0.000006  -0.000008   0.000004  -0.000001
     48      -0.126957   0.134164  -0.386166   0.351445  -0.418511   0.399910
     49      -0.075297   0.079978  -0.222516   0.202166  -0.244897   0.233675
     50      -0.000002   0.000004  -0.000005   0.000001  -0.000011   0.000014
     51      -0.128366   0.135371   0.386359  -0.350626  -0.418483   0.400081
     52       0.076127  -0.080684  -0.222643   0.201695   0.244895  -0.233788
     53      -0.000019   0.000021   0.000049  -0.000042  -0.000062   0.000060


-----------
IR SPECTRUM
-----------

 Mode   freq       eps      Int      T**2         TX        TY        TZ
       cm**-1   L/(mol*cm) km/mol    a.u.
----------------------------------------------------------------------------
  6:    142.76   0.000819    4.14  0.001791  (-0.001679  0.000003 -0.042283)
  7:    159.15   0.000000    0.00  0.000000  ( 0.000005 -0.000386  0.000022)
  8:    338.17   0.000234    1.18  0.000216  ( 0.000000 -0.014710 -0.000004)
  9:    363.18   0.000000    0.00  0.000000  (-0.000006  0.000007 -0.000004)
 10:    403.49   0.007693   38.88  0.005950  (-0.000077  0.000005  0.077136)
 11:    414.89   0.000000    0.00  0.000000  ( 0.000233 -0.000002  0.000320)
 12:    436.52   0.000000    0.00  0.000000  (-0.000010  0.000416 -0.000025)
 13:    465.51   0.000000    0.00  0.000000  (-0.000003  0.000000 -0.000008)
 14:    507.14   0.000000    0.00  0.000000  (-0.000002 -0.000001 -0.000000)
 15:    589.57   0.005131   25.93  0.002716  (-0.052112  0.000002 -0.000111)
 16:    731.75   0.000000    0.00  0.000000  ( 0.000004  0.000006 -0.000019)
 17:    735.92   0.000000    0.00  0.000000  (-0.000105 -0.000001 -0.000158)
 18:    755.62   0.032805  165.78  0.013548  (-0.000331 -0.000002 -0.116395)
 19:    771.07   0.000000    0.00  0.000000  ( 0.000001 -0.000002  0.000009)
 20:    802.77   0.000220    1.11  0.000085  ( 0.000005  0.009239 -0.000002)
 21:    859.41   0.000000    0.00  0.000000  (-0.000001  0.000279  0.000005)
 22:    930.60   0.000000    0.00  0.000000  (-0.000060 -0.000001  0.000037)
 23:    936.72   0.000000    0.00  0.000000  (-0.000000 -0.000001 -0.000007)
 24:    973.88   0.000000    0.00  0.000000  (-0.000003  0.000009 -0.000000)
 25:    997.63   0.000847    4.28  0.000265  (-0.000285  0.000004  0.016270)
 26:   1011.06   0.000000    0.00  0.000000  (-0.000006  0.000202  0.000003)
 27:   1017.07   0.000000    0.00  0.000000  (-0.000023 -0.000002 -0.000038)
 28:   1034.36   0.001409    7.12  0.000425  ( 0.020619 -0.000001 -0.000257)
 29:   1053.50   0.000000    0.00  0.000000  (-0.000002 -0.000001 -0.000000)
 30:   1107.46   0.001234    6.24  0.000348  (-0.000016 -0.018647  0.000000)
 31:   1109.74   0.000000    0.00  0.000000  ( 0.000006 -0.000017  0.000000)
 32:   1164.33   0.006930   35.02  0.001857  ( 0.043098 -0.000000 -0.000022)
 33:   1167.87   0.000000    0.00  0.000000  (-0.000192  0.000002 -0.000000)
 34:   1221.86   0.112053  566.27  0.028618  (-0.169169  0.000001 -0.000013)
 35:   1252.34   0.000000    0.00  0.000000  (-0.000024  0.000001  0.000009)
 36:   1295.12   0.001917    9.69  0.000462  ( 0.000009 -0.021492  0.000000)
 37:   1416.74   0.008710   44.02  0.001919  ( 0.043801  0.000126 -0.000091)
 38:   1417.90   0.000000    0.00  0.000000  ( 0.000045  0.000111 -0.000000)
 39:   1419.76   0.010997   55.58  0.002417  (-0.000120  0.049165  0.000000)
 40:   1453.43   0.000000    0.00  0.000000  ( 0.000003 -0.000005  0.000007)
 41:   1490.52   0.000000    0.00  0.000000  (-0.000006  0.000000  0.000001)
 42:   1510.28   0.000000    0.00  0.000000  (-0.000008  0.000011  0.000003)
 43:   1541.82   0.033170  167.63  0.006714  ( 0.000012 -0.081937 -0.000000)
 44:   1556.85   0.031489  159.13  0.006312  (-0.079447 -0.000016  0.000085)
 45:   1618.67   0.000000    0.00  0.000000  (-0.000004 -0.000002 -0.000001)
 46:   3187.66   0.000000    0.00  0.000000  (-0.000016 -0.000041 -0.000000)
 47:   3189.03   0.000457    2.31  0.000045  (-0.000002  0.006689 -0.000000)
 48:   3191.84   0.000300    1.52  0.000029  (-0.005419 -0.000001 -0.000038)
 49:   3192.40   0.000000    0.00  0.000000  (-0.000029  0.000018  0.000000)
 50:   3201.63   0.000002    0.01  0.000000  (-0.000019  0.000473 -0.000001)
 51:   3201.85   0.002699   13.64  0.000263  (-0.000018 -0.016220 -0.000000)
 52:   3212.23   0.005629   28.45  0.000547  ( 0.023385 -0.000010 -0.000157)
 53:   3212.85   0.000002    0.01  0.000000  ( 0.000457 -0.000001 -0.000003)

* The epsilon (eps) is given for a Dirac delta lineshape.
** The dipole moment derivative (T) already includes vibrational overlap.

The first frequency considered to be a vibration is 6
The total number of vibrations considered is 48


--------------------------
THERMOCHEMISTRY AT 298.15K
--------------------------

Temperature         ...   298.15 K
Pressure            ...     1.00 atm
Total Mass          ...   128.17 AMU
Quasi RRHO          ...     True
Cut-Off Frequency   ...     1.00 cm^-1

Throughout the following assumptions are being made:
  (1) The electronic state is orbitally nondegenerate
      but the spin degeneracy is treated
  (2) There are no thermally accessible electronically excited states
  (3) Hindered rotations indicated by low frequency modes are not
      treated as such but are treated as vibrations and this may
      cause some error
  (4) All equations used are the standard statistical mechanics
      equations for an ideal gas
  (5) All vibrations are strictly harmonic

freq.     142.76  E(vib)   ...       0.41 
freq.     159.15  E(vib)   ...       0.39 
freq.     338.17  E(vib)   ...       0.24 
freq.     363.18  E(vib)   ...       0.22 
freq.     403.49  E(vib)   ...       0.19 
freq.     414.89  E(vib)   ...       0.19 
freq.     436.52  E(vib)   ...       0.17 
freq.     465.51  E(vib)   ...       0.16 
freq.     507.14  E(vib)   ...       0.14 
freq.     589.57  E(vib)   ...       0.10 
freq.     731.75  E(vib)   ...       0.06 
freq.     735.92  E(vib)   ...       0.06 
freq.     755.62  E(vib)   ...       0.06 
freq.     771.07  E(vib)   ...       0.05 
freq.     802.77  E(vib)   ...       0.05 
freq.     859.41  E(vib)   ...       0.04 
freq.     930.60  E(vib)   ...       0.03 
freq.     936.72  E(vib)   ...       0.03 
freq.     973.88  E(vib)   ...       0.03 
freq.     997.63  E(vib)   ...       0.02 
freq.    1011.06  E(vib)   ...       0.02 
freq.    1017.07  E(vib)   ...       0.02 
freq.    1034.36  E(vib)   ...       0.02 
freq.    1053.50  E(vib)   ...       0.02 
freq.    1107.46  E(vib)   ...       0.02 
freq.    1109.74  E(vib)   ...       0.02 
freq.    1164.33  E(vib)   ...       0.01 
freq.    1167.87  E(vib)   ...       0.01 
freq.    1221.86  E(vib)   ...       0.01 
freq.    1252.34  E(vib)   ...       0.01 
freq.    1295.12  E(vib)   ...       0.01 
freq.    1416.74  E(vib)   ...       0.00 
freq.    1417.90  E(vib)   ...       0.00 
freq.    1419.76  E(vib)   ...       0.00 
freq.    1453.43  E(vib)   ...       0.00 
freq.    1490.52  E(vib)   ...       0.00 
freq.    1510.28  E(vib)   ...       0.00 
freq.    1541.82  E(vib)   ...       0.00 
freq.    1556.85  E(vib)   ...       0.00 
freq.    1618.67  E(vib)   ...       0.00 
freq.    3187.66  E(vib)   ...       0.00 
freq.    3189.03  E(vib)   ...       0.00 
freq.    3191.84  E(vib)   ...       0.00 
freq.    3192.40  E(vib)   ...       0.00 
freq.    3201.63  E(vib)   ...       0.00 
freq.    3201.85  E(vib)   ...       0.00 
freq.    3212.23  E(vib)   ...       0.00 
freq.    3212.85  E(vib)   ...       0.00 

------------
INNER ENERGY
------------

The inner energy is: U= E(el) + E(ZPE) + E(vib) + E(rot) + E(trans)
    E(el)   - is the total energy from the electronic structure calculation
              = E(kin-el) + E(nuc-el) + E(el-el) + E(nuc-nuc)
    E(ZPE)  - the the zero temperature vibrational energy from the frequency calculation
    E(vib)  - the the finite temperature correction to E(ZPE) due to population
              of excited vibrational states
    E(rot)  - is the rotational thermal energy
    E(trans)- is the translational thermal energy

Summary of contributions to the inner energy U:
Electronic energy                ...   -385.87831855 Eh
Zero point energy                ...      0.14526942 Eh      91.16 kcal/mol
Thermal vibrational correction   ...      0.00451637 Eh       2.83 kcal/mol
Thermal rotational correction    ...      0.00141627 Eh       0.89 kcal/mol
Thermal translational correction ...      0.00141627 Eh       0.89 kcal/mol
-----------------------------------------------------------------------
Total thermal energy                   -385.72570022 Eh


Summary of corrections to the electronic energy:
(perhaps to be used in another calculation)
Total thermal correction                  0.00734891 Eh       4.61 kcal/mol
Non-thermal (ZPE) correction              0.14526942 Eh      91.16 kcal/mol
-----------------------------------------------------------------------
Total correction                          0.15261833 Eh      95.77 kcal/mol


--------
ENTHALPY
--------

The enthalpy is H = U + kB*T
                kB is Boltzmann's constant
Total thermal energy              ...   -385.72570022 Eh 
Thermal Enthalpy correction       ...      0.00094421 Eh       0.59 kcal/mol
-----------------------------------------------------------------------
Total Enthalpy                    ...   -385.72475601 Eh


Note: Rotational entropy computed according to Herzberg 
Infrared and Raman Spectra, Chapter V,1, Van Nostrand Reinhold, 1945 
Point Group:  C2, Symmetry Number:   2  
Rotational constants in cm-1:     0.105250     0.041063     0.029539 

Vibrational entropy computed according to the QRRHO of S. Grimme
Chem.Eur.J. 2012 18 9955 using a reference frequency of 100.0 cm-1


-------
ENTROPY
-------

The entropy contributions are T*S = T*(S(el)+S(vib)+S(rot)+S(trans))
     S(el)   - electronic entropy
     S(vib)  - vibrational entropy
     S(rot)  - rotational entropy
     S(trans)- translational entropy
The entropies will be listed as multiplied by the temperature to get
units of energy

Electronic entropy                ...      0.00065446 Eh      0.41 kcal/mol
Vibrational entropy               ...      0.00700467 Eh      4.40 kcal/mol
Rotational entropy                ...      0.01308917 Eh      8.21 kcal/mol
Translational entropy             ...      0.01922279 Eh     12.06 kcal/mol
-----------------------------------------------------------------------
Final entropy term                ...      0.03997108 Eh     25.08 kcal/mol

In case the symmetry of your molecule has not been determined correctly
or in case you have a reason to use a different symmetry number we print 
out the resulting rotational entropy values for sn=1,12:

 non-linear molecules -----------------------------------
|  sn= 1 | S(rot)=       0.01374362 Eh      8.62 kcal/mol|
|  sn= 2 | S(rot)=       0.01308917 Eh      8.21 kcal/mol|
|  sn= 3 | S(rot)=       0.01270633 Eh      7.97 kcal/mol|
|  sn= 4 | S(rot)=       0.01243471 Eh      7.80 kcal/mol|
|  sn= 5 | S(rot)=       0.01222402 Eh      7.67 kcal/mol|
|  sn= 6 | S(rot)=       0.01205188 Eh      7.56 kcal/mol|
|  sn= 7 | S(rot)=       0.01190633 Eh      7.47 kcal/mol|
|  sn= 8 | S(rot)=       0.01178025 Eh      7.39 kcal/mol|
|  sn= 9 | S(rot)=       0.01166904 Eh      7.32 kcal/mol|
|  sn=10 | S(rot)=       0.01156956 Eh      7.26 kcal/mol|
|  sn=11 | S(rot)=       0.01147957 Eh      7.20 kcal/mol|
|  sn=12 | S(rot)=       0.01139742 Eh      7.15 kcal/mol|
 linear molecules ---------------------------------------
|  Dinfh | S(rot)=       0.00865126 Eh      5.43 kcal/mol|
|  Cinfv | S(rot)=       0.00930572 Eh      5.84 kcal/mol|
 --------------------------------------------------------


-------------------
GIBBS FREE ENERGY
-------------------

The Gibbs free energy is G = H - T*S

Total enthalpy                    ...   -385.72475601 Eh 
Total entropy correction          ...     -0.03997108 Eh    -25.08 kcal/mol
-----------------------------------------------------------------------
Final Gibbs free energy         ...   -385.76472709 Eh

For completeness - the Gibbs free energy minus the electronic energy
G-E(el)                           ...      0.11359146 Eh     71.28 kcal/mol


Maximum memory used throughout the entire PROP-calculation: 384.5 MB

--------------------------------
SUGGESTED CITATIONS FOR THIS RUN
--------------------------------

Below you find a list of papers that are relevant to this ORCA run
We neither can nor want to force you to cite these papers, but we appreciate if you do
You receive ORCA, which is the product of decades of hard work by many enthusiastic individuals, for free
The only thing we kindly ask in return is that you cite our papers,
We deeply appreciate it, if you show your appreciation for ORCA by not just citing the generic ORCA reference.

Please note that relegating all ORCA citations to the supporting information does *not* help us.
SI sections are not indexed - citations you put there will not count into any citation statistics
But we need these citations in order to attract the funding resources that allow us to do what we are doing

Therefore, if you are a happy ORCA user, please consider citing a few of the papers listed below in the main body of your paper

In addition to the list printed below, the program has created the file cs_rporg_001_ox_freq_08.bibtex that contains the list in bibtex format
You can import this file easily into all common literature databanks and citation aid programs


List of essential papers. We consider these as the minimum necessary citations

  1. Neese,F.
     Software update: the ORCA program system, version 5.0
     WIRES Comput. Molec. Sci., 2022 12(1)e1606
     doi.org/10.1002/wcms.1606

List of papers to cite with high priority. The work reported in these papers was absolutely
necessary for this run to complete.
Our perspective: the developers of density functionals and basis sets usually get cited in chemistry papers
Good! But without the algorithms to do something with them, the functionals or basis sets would not do anything.
Hence, in our opinion, the algorithm design and method developments papers are equally worthy of getting cited

  1. Neese,F.
     An improvement of the resolution of the identity approximation for the formation of the Coulomb matrix
     J. Comp. Chem., 2003 24(14)1740-1747
     doi.org/10.1002/jcc.10318
  2. Neese,F.; Wennmohs,F.; Hansen,A.; Becker,U.
     Efficient, approximate and parallel Hartree-Fock and hybrid DFT calculations. A 'chain-of-spheres' algorithm for the Hartree-Fock exchange
     Chem. Phys., 2009 356(1-3)98-109
     doi.org/10.1016/j.chemphys.2008.10.036
  3. Bykov,D.; Petrenko,T.; Izsak,R.; Kossmann,S.; Becker,U.; Valeev,E.; Neese,F.
     Efficient implementation of the analytic second derivatives of Hartree-Fock and hybrid DFT energies: a detailed analysis of different approximations
     Molec. Phys., 2015 113 1961-1977
     doi.org/10.1080/00268976.2015.1025114
  4. Garcia-Rates,M.; Neese,F.
     Efficient implementation of the analytical second derivatives of hartree-fock and hybrid DFT energies within the framework of the conductor-like polarizable continuum model
     J. Comput. Chem., 2019 40 1816-1828
     doi.org/10.1002/jcc.25833
  5. Garcia-Rates,M.; Neese,F.
     Effect of the Solute Cavity on the Solvation Energy and its Derivatives within the Framework of the Gaussian Charge Scheme
     J. Comput. Chem., 2020 41 922-939
     doi.org/10.1002/jcc.26139
  6. Helmich-Paris,B.; de Souza,B.; Neese,F.; Izsák,R.
     An improved chain of spheres for exchange algorithm
     J. Chem. Phys., 2021 155 104109
     doi.org/doi: 10.1063/5.0058766.
  7. Neese,F.
     The SHARK Integral Generation and Digestion System
     J. Comp. Chem., 2022  1-16
     doi.org/10.1002/jcc.26942
  8. Grimme,S.; Antony,J.; Ehrlich,S.; Krieg,H.
     A consistent and accurate ab initio parametrization of density functional dispersion correction (DFT-D) for the 94 elements H-Pu
     J. Chem. Phys., 2010 132 154104-XXXX
     doi.org/10.1063/1.3382344
  9. Grimme,S.; Ehrlich,S.; Goerigk,L.
     Effect of the damping function in dispersion corrected density functional theory
     J. Comput. Chem., 2011 32(7)1456-1465
     doi.org/10.1002/jcc.21759

List of suggested additional citations. These are papers that are important in the 'surrounding' of 
of this run, or papers that preceded the highly important papers. If you like your results we are grateful for a citation.

  1. Izsak,R.; Neese,F.
     An overlap fitted chain of spheres exchange method
     J. Chem. Phys., 2011 135 144105
     doi.org/10.1063/1.3646921
  2. Izsak,R.; Hansen,A.; Neese,F.
     The resolution of identity and chain of spheres approximations for the LPNO-CCSD singles Fock term
     Molec. Phys., 2012 110 2413-2417
     doi.org/10.1080/00268976.2012.687466
  3. Neese,F.
     The ORCA program system
     WIRES Comput. Molec. Sci., 2012 2(1)73-78
     doi.org/10.1002/wcms.81
  4. Izsak,R.; Neese,F.; Klopper,W.
     Robust fitting techniques in the chain of spheres approximation to the Fock exchange: The role of the complementary space
     J. Chem. Phys., 2013 139 
     doi.org/10.1063/1.4819264
  5. Neese,F.
     Software update: the ORCA program system, version 4.0
     WIRES Comput. Molec. Sci., 2018 8(1)1-6
     doi.org/10.1002/wcms.1327
  6. Neese,F.; Wennmohs,F.; Becker,U.; Riplinger,C.
     The ORCA quantum chemistry program package
     J. Chem. Phys., 2020 152 Art. No. L224108
     doi.org/10.1063/5.0004608

List of optional additional citations

  1. Neese,F.
     Approximate second-order SCF convergence for spin unrestricted wavefunctions
     Chem. Phys. Lett., 2000 325(1-3)93-98
     doi.org/10.1016/s0009-2614(00)00662-x

Timings for individual modules:

Sum of individual times          ...     5609.977 sec (=  93.500 min)
Startup calculation              ...       18.473 sec (=   0.308 min)   0.3 %
SCF iterations                   ...      693.044 sec (=  11.551 min)  12.4 %
Property integrals               ...     1476.858 sec (=  24.614 min)  26.3 %
SCF Response                     ...     2293.161 sec (=  38.219 min)  40.9 %
Property calculations            ...     1128.441 sec (=  18.807 min)  20.1 %
                             ****ORCA TERMINATED NORMALLY****
TOTAL RUN TIME: 0 days 1 hours 33 minutes 40 seconds 191 msec
