
                                 *****************
                                 * O   R   C   A *
                                 *****************

                                            #,                                       
                                            ###                                      
                                            ####                                     
                                            #####                                    
                                            ######                                   
                                           ########,                                 
                                     ,,################,,,,,                         
                               ,,#################################,,                 
                          ,,##########################################,,             
                       ,#########################################, ''#####,          
                    ,#############################################,,   '####,        
                  ,##################################################,,,,####,       
                ,###########''''           ''''###############################       
              ,#####''   ,,,,##########,,,,          '''####'''          '####       
            ,##' ,,,,###########################,,,                        '##       
           ' ,,###''''                  '''############,,,                           
         ,,##''                                '''############,,,,        ,,,,,,###''
      ,#''                                            '''#######################'''  
     '                                                          ''''####''''         
             ,#######,   #######,   ,#######,      ##                                
            ,#'     '#,  ##    ##  ,#'     '#,    #''#        ,####,   ,####,        
            ##       ##  ##   ,#'  ##            #'  '#       #'       #'  '#        
            ##       ##  #######   ##           ,######,      #####,   #    #        
            '#,     ,#'  ##    ##  '#,     ,#' ,#      #,     #,   #   #,  ,#        
             '#######'   ##     ##  '#######'  #'      '#     '####' # '####'        



                #########################################################
                #                        -***-                          #
                #          Department of theory and spectroscopy        #
                #                                                       #
                #                      Frank Neese                      #
                #                                                       #
                #     Directorship, Architecture, Infrastructure        #
                #                    SHARK, DRIVERS                     #
                #        Core code/Algorithms in most modules           #
                #                                                       #
                #        Max Planck Institute fuer Kohlenforschung      #
                #                Kaiser Wilhelm Platz 1                 #
                #                 D-45470 Muelheim/Ruhr                 #
                #                      Germany                          #
                #                                                       #
                #                  All rights reserved                  #
                #                        -***-                          #
                #########################################################


                         Program Version 6.0.0  -   RELEASE  -


 With contributions from (in alphabetic order):
   Daniel Aravena         : Magnetic Suceptibility
   Michael Atanasov       : Ab Initio Ligand Field Theory (pilot matlab implementation)
   Alexander A. Auer      : GIAO ZORA, VPT2 properties, NMR spectrum
   Ute Becker             : All parallelization in ORCA, NUMFREQ, NUMCALC
   Giovanni Bistoni       : ED, misc. LED, open-shell LED, HFLD
   Martin Brehm           : Molecular dynamics
   Dmytro Bykov           : pre 5.0 version of the SCF Hessian
   Marcos Casanova-Páez   : Triplet and SCS-CIS(D). UHF-(DLPNO)-IP/EA/STEOM-CCSD. UHF-CVS-IP/STEOM-CCSD
   Vijay G. Chilkuri      : MRCI spin determinant printing, contributions to CSF-ICE
   Pauline Colinet        : FMM embedding
   Dipayan Datta          : RHF DLPNO-CCSD density
   Achintya Kumar Dutta   : EOM-CC, STEOM-CC
   Nicolas Foglia         : Exact transition moments, OPA infrastructure, MCD improvements
   Dmitry Ganyushin       : Spin-Orbit,Spin-Spin,Magnetic field MRCI
   Miquel Garcia          : C-PCM and meta-GGA Hessian, CCSD/C-PCM, Gaussian charge scheme
   Tiago L. C. Gouveia    : GS-ROHF, GS-ROCIS
   Yang Guo               : DLPNO-NEVPT2, F12-NEVPT2, CIM, IAO-localization
   Andreas Hansen         : Spin unrestricted coupled pair/coupled cluster methods
   Ingolf Harden          : AUTO-CI MPn and infrastructure 
   Benjamin Helmich-Paris : MC-RPA, TRAH-(SCF,CASSCF), AVAS, COSX integrals, SCF dyn. polar.
   Lee Huntington         : MR-EOM, pCC
   Robert Izsak           : Overlap fitted RIJCOSX, COSX-SCS-MP3, EOM
   Riya Kayal             : Wick's Theorem for AUTO-CI, AUTO-CI UHF-CCSDT
   Emily Kempfer          : AUTO-CI, RHF CISDT and CCSDT
   Christian Kollmar      : KDIIS, OOCD, Brueckner-CCSD(T), CCSD density, CASPT2, CASPT2-K, improved NEVPT2
   Axel Koslowski         : Symmetry handling
   Simone Kossmann        : Meta GGA functionals, TD-DFT gradient, OOMP2, (MP2 Hessian; deprecated post 5.0)
   Lucas Lang             : DCDCAS
   Marvin Lechner         : AUTO-CI (C++ implementation), FIC-MRCC
   Spencer Leger          : CASSCF response
   Dagmar Lenk            : GEPOL surface, SMD, ORCA-2-JSON
   Dimitrios Liakos       : Extrapolation schemes; Compound Job, initial MDCI parallelization
   Dimitrios Manganas     : Further ROCIS development; embedding schemes. LFT, Crystal Embedding
   Dimitrios Pantazis     : SARC Basis sets
   Anastasios Papadopoulos: AUTO-CI, single reference methods and gradients
   Taras Petrenko         : pre 6.0 DFT Hessian and TD-DFT gradient, (ASA, deprecated), ECA, 1-Electron XAS/XES, NRVS
   Peter Pinski           : DLPNO-MP2, DLPNO-MP2 Gradient
   Christoph Reimann      : Effective Core Potentials
   Marius Retegan         : Local ZFS, SOC
   Christoph Riplinger    : Optimizer, TS searches, QM/MM, DLPNO-CCSD(T), (RO)-DLPNO pert. Triples
   Michael Roemelt        : Original ROCIS implementation
   Masaaki Saitow         : Open-shell DLPNO-CCSD energy and density
   Barbara Sandhoefer     : DKH picture change effects
   Kantharuban Sivalingam : CASSCF convergence/infrastructure, NEVPT2 and variants, FIC-MRCI
   Bernardo de Souza      : ESD, SOC TD-DFT
   Georgi Stoychev        : AutoAux, RI-MP2 NMR, DLPNO-MP2 response, X2C
   Van Anh Tran           : RI-MP2 g-tensors
   Willem Van den Heuvel  : Paramagnetic NMR
   Zikuan Wang            : NOTCH, Electric field optimization 
   Frank Wennmohs         : Technical directorship and infrastructure
   Hang Xu                : AUTO-CI-Response properties 


 We gratefully acknowledge several colleagues who have allowed us to
 interface, adapt or use parts of their codes:
   Stefan Grimme, W. Hujo, H. Kruse, P. Pracht,  : VdW corrections, initial TS optimization,
                  C. Bannwarth, S. Ehlert,         DFT functionals, gCP, sTDA/sTD-DF
                  L. Wittmann, M. Mueller
   Ed Valeev, F. Pavosevic, A. Kumar             : LibInt (2-el integral package), F12 methods
   Garnet Chan, S. Sharma, J. Yang, R. Olivares  : DMRG
   Ulf Ekstrom                                   : XCFun DFT Library
   Mihaly Kallay                                 : mrcc  (arbitrary order and MRCC methods)
   Frank Weinhold                                : gennbo (NPA and NBO analysis)
   Simon Mueller                                 : openCOSMO-RS
   Christopher J. Cramer and Donald G. Truhlar   : smd solvation model
   Lars Goerigk                                  : TD-DFT with DH, B97 family of functionals
   V. Asgeirsson, H. Jonsson                     : NEB implementation
   FAccTs GmbH                                   : IRC, NEB, NEB-TS, DLPNO-Multilevel, CI-OPT
                                                   MM, QMMM, 2- and 3-layer-ONIOM, Crystal-QMMM,
                                                   LR-CPCM, SF, NACMEs, symmetry and pop. for TD-DFT,
                                                   nearIR, NL-DFT gradient (VV10), updates on ESD,
                                                   ML-optimized integration grids, MBIS, APM,
                                                   GOAT, DOCKER, SOLVATOR, interface openCOSMO-RS
   S Lehtola, MJT Oliveira, MAL Marques          : LibXC Library
   Liviu Ungur et al                             : ANISO software


 Your calculation uses the libint2 library for the computation of 2-el integrals
 For citations please refer to: http://libint.valeyev.net

 Your ORCA version has been built with support for libXC version: 6.2.2
 For citations please refer to: https://libxc.gitlab.io

 This ORCA versions uses:
   CBLAS   interface :  Fast vector & matrix operations
   LAPACKE interface :  Fast linear algebra routines
   SCALAPACK package :  Parallel linear algebra routines
   Shared memory     :  Shared parallel matrices
   BLAS/LAPACK       :  OpenBLAS 0.3.27  USE64BITINT DYNAMIC_ARCH NO_AFFINITY Sandybridge SINGLE_THREADED
        Core in use  :  Sandybridge
   Copyright (c) 2011-2014, The OpenBLAS Project


NOTE: MaxCore=3000 MB was set to SCF,MP2,MDCI,CIPSI,MRCI and CIS
      => If you want to overwrite this, your respective input block should be placed after the MaxCore statement
Your calculation utilizes the atom-pairwise dispersion correction
with the Becke-Johnson damping scheme (D3BJ)


Your calculation utilizes the SMD solvation module
Please cite in your paper:
A.V. Marenich, C.J. Cramer, D.G. Truhlar J. Phys. Chem. B, 113, (2009), 6378 

Warning: RI is on but no J-basis has been assigned. Assigning Def2/J (nothing to worry about!)
================================================================================

----- Orbital basis set information -----
Your calculation utilizes the basis: aug-cc-pVTZ 
    H, B-Ne : Obtained from the ccRepo (grant-hill.group.shef.ac.uk/ccrepo) Feb. 2017
              R. A. Kendall, T. H. Dunning, Jr., R. J. Harrison, J. Chem. Phys. 96, 6796 (1992)
         He : Obtained from the ccRepo (grant-hill.group.shef.ac.uk/ccrepo) Feb. 2017
              D. E. Woon, T. H. Dunning, Jr., J. Chem. Phys. 100, 2975 (1994)
  Li-Be, Na : Obtained from the ccRepo (grant-hill.group.shef.ac.uk/ccrepo) Feb. 2017
              B. P. Prascher, D. E. Woon, K. A. Peterson, T. H. Dunning, Jr., A. K. Wilson, Theor. Chem. Acc. 128, 69 (2011)
         Mg : Obtained from the Peterson Research Group Website (tyr0.chem.wsu.edu/~kipeters) Feb. 2017
              B. P. Prascher, D. E. Woon, K. A. Peterson, T. H. Dunning, Jr., A. K. Wilson, Theor. Chem. Acc. 128, 69 (2011)
      Al-Ar : Obtained from the ccRepo (grant-hill.group.shef.ac.uk/ccrepo) Feb. 2017
              D. E. Woon, T. H. Dunning, Jr., J. Chem. Phys. 98, 1358 (1993)
      Sc-Zn : Obtained from the ccRepo (grant-hill.group.shef.ac.uk/ccrepo) Feb. 2017
              N. B. Balabanov, K. A. Peterson, J. Chem. Phys. 123, 064107 (2005)
              N. B. Balabanov, K. A. Peterson, J. Chem. Phys. 125, 074110 (2006)
      Ga-Kr : Obtained from the ccRepo (grant-hill.group.shef.ac.uk/ccrepo) Feb. 2017
              A. K. Wilson, D. E. Woon, K. A. Peterson, T. H. Dunning, Jr., J. Chem. Phys. 110, 7667 (1999)
     Ag, Au : Obtained from the Peterson Research Group Website (tyr0.chem.wsu.edu/~kipeters) Feb. 2017
              K. A. Peterson, C. Puzzarini, Theor. Chem. Acc. 114, 283 (2005)

----- AuxJ basis set information -----
Your calculation utilizes the auxiliary basis: def2/J
   F. Weigend, Phys. Chem. Chem. Phys. 8, 1057 (2006).

================================================================================
                                        WARNINGS
                       Please study these warnings very carefully!
================================================================================


WARNING: your system is open-shell and RHF/RKS was chosen
  ===> : WILL SWITCH to UHF/UKS


================================================================================
                                       INPUT FILE
================================================================================
NAME = cs_rporg_010_ox_solv_04.inp
|  1> !PBE0 aug-cc-pVTZ d3 TightSCF SlowConv RIJCOSX defgrid2
|  2>  
|  3> %pal
|  4> nprocs 4
|  5> end
|  6>  
|  7> %scf
|  8> MaxIter 1500
|  9> end
| 10>  
| 11> %maxcore 3000
| 12>  
| 13> !CPCM
| 14> %cpcm smd true
| 15> SMDsolvent "MeCN"
| 16> surfacetype gepol_ses
| 17> rsolv 2.19
| 18> end 
| 19>  
| 20> * xyz 1 2
| 21> C           0.40691282511463     -1.70325741551343      0.00016490908038
| 22> C          -0.96671189262499     -1.83667983985275      0.00018183586636
| 23> C          -1.68805707115252     -0.64261847572794      0.00008964722041
| 24> C          -1.04965590853916      0.63174029183313     -0.00002815696193
| 25> C           0.31128268883802      0.76926444998310     -0.00006174051828
| 26> C           1.07563281783288     -0.42742383238868      0.00003976058398
| 27> C           2.50697376337741     -0.44842167152090      0.00002305530846
| 28> C           3.33194801420144      0.64326709175403     -0.00015920562991
| 29> C           4.80599658250123      0.57741183606312     -0.00011946162688
| 30> H           5.18832353952918     -0.45487585344274     -0.00025429959810
| 31> H           5.21029428249422      1.11436451749660     -0.88040742471441
| 32> H           5.21019265645541      1.11403585874487      0.88042635965306
| 33> H           2.89207932946336      1.64904733647115     -0.00030687813280
| 34> H           2.97508026944189     -1.43956967985044      0.00016270833927
| 35> H           0.76741616602726      1.75937954473271     -0.00014274226054
| 36> O          -1.99397501474410      1.57230653765351     -0.00008671930137
| 37> C          -3.25136220491207      0.93015345618164     -0.00001294315373
| 38> H          -3.81339036666005      1.19156590903578     -0.91179779853392
| 39> H          -3.81336621741767      1.19172534012324      0.91174226589655
| 40> O          -2.99199983018881     -0.47270763267778      0.00010157254283
| 41> H          -1.46695007676095     -2.80656600519405      0.00027477962737
| 42> H           1.02699584772340     -2.60385336390417      0.00024457631318
| 43> *
| 44> 
| 45>                          ****END OF INPUT****
================================================================================

                       ****************************
                       * Single Point Calculation *
                       ****************************

---------------------------------
CARTESIAN COORDINATES (ANGSTROEM)
---------------------------------
  C      0.406913   -1.703257    0.000165
  C     -0.966712   -1.836680    0.000182
  C     -1.688057   -0.642618    0.000090
  C     -1.049656    0.631740   -0.000028
  C      0.311283    0.769264   -0.000062
  C      1.075633   -0.427424    0.000040
  C      2.506974   -0.448422    0.000023
  C      3.331948    0.643267   -0.000159
  C      4.805997    0.577412   -0.000119
  H      5.188324   -0.454876   -0.000254
  H      5.210294    1.114365   -0.880407
  H      5.210193    1.114036    0.880426
  H      2.892079    1.649047   -0.000307
  H      2.975080   -1.439570    0.000163
  H      0.767416    1.759380   -0.000143
  O     -1.993975    1.572307   -0.000087
  C     -3.251362    0.930153   -0.000013
  H     -3.813390    1.191566   -0.911798
  H     -3.813366    1.191725    0.911742
  O     -2.992000   -0.472708    0.000102
  H     -1.466950   -2.806566    0.000275
  H      1.026996   -2.603853    0.000245

----------------------------
CARTESIAN COORDINATES (A.U.)
----------------------------
  NO LB      ZA    FRAG     MASS         X           Y           Z
   0 C     6.0000    0    12.011    0.768954   -3.218690    0.000312
   1 C     6.0000    0    12.011   -1.826821   -3.470822    0.000344
   2 C     6.0000    0    12.011   -3.189966   -1.214373    0.000169
   3 C     6.0000    0    12.011   -1.983562    1.193816   -0.000053
   4 C     6.0000    0    12.011    0.588239    1.453699   -0.000117
   5 C     6.0000    0    12.011    2.032651   -0.807714    0.000075
   6 C     6.0000    0    12.011    4.737494   -0.847394    0.000044
   7 C     6.0000    0    12.011    6.296469    1.215599   -0.000301
   8 C     6.0000    0    12.011    9.082017    1.091150   -0.000226
   9 H     1.0000    0     1.008    9.804511   -0.859591   -0.000481
  10 H     1.0000    0     1.008    9.846029    2.105844   -1.663729
  11 H     1.0000    0     1.008    9.845837    2.105223    1.663765
  12 H     1.0000    0     1.008    5.465238    3.116248   -0.000580
  13 H     1.0000    0     1.008    5.622087   -2.720392    0.000307
  14 H     1.0000    0     1.008    1.450206    3.324746   -0.000270
  15 O     8.0000    0    15.999   -3.768067    2.971229   -0.000164
  16 C     6.0000    0    12.011   -6.144184    1.757735   -0.000024
  17 H     1.0000    0     1.008   -7.206263    2.251733   -1.723048
  18 H     1.0000    0     1.008   -7.206218    2.252035    1.722943
  19 O     8.0000    0    15.999   -5.654060   -0.893288    0.000192
  20 H     1.0000    0     1.008   -2.772134   -5.303641    0.000519
  21 H     1.0000    0     1.008    1.940741   -4.920570    0.000462

--------------------------------
INTERNAL COORDINATES (ANGSTROEM)
--------------------------------
 C      0   0   0     0.000000000000     0.00000000     0.00000000
 C      1   0   0     1.380089275659     0.00000000     0.00000000
 C      2   1   0     1.395034557414   115.58879099     0.00000000
 C      3   2   1     1.425323235889   122.25439962     0.00000000
 C      4   3   2     1.367869423971   122.37918629     0.00000000
 C      5   4   3     1.419962666820   116.79702537     0.00000000
 C      6   5   4     1.431494957001   123.40770347   180.00014221
 C      7   6   5     1.368344585111   126.23737032     0.00000000
 C      8   7   6     1.475518924985   124.51977055   179.99764214
 H      9   8   7     1.100814150598   112.88111868     0.00000000
 H      9   8   7     1.107556639759   110.06052401   122.21539591
 H      9   8   7     1.107565235683   110.05819030   237.82773087
 H      8   7   6     1.097760621576   119.30043980     0.00000000
 H      7   6   5     1.096128685392   116.12123691   179.99688918
 H      5   4   3     1.090131027182   120.50513161   180.00060285
 O      4   3   2     1.332817857230   108.27694303   180.00040154
 C     16   4   3     1.411872207916   108.06047943     0.00000000
 H     17  16   4     1.102526075703   110.24914265   241.81944528
 H     17  16   4     1.102527061696   110.24919396   118.18152113
 O      3   2   1     1.314966316516   128.56074206   180.00109049
 H      2   1   3     1.091291630696   122.83115548   180.00081940
 H      1   2   3     1.093423990743   119.00056163   179.99937198

---------------------------
INTERNAL COORDINATES (A.U.)
---------------------------
 C      0   0   0     0.000000000000     0.00000000     0.00000000
 C      1   0   0     2.607990771357     0.00000000     0.00000000
 C      2   1   0     2.636233260868   115.58879099     0.00000000
 C      3   2   1     2.693470568144   122.25439962     0.00000000
 C      4   3   2     2.584898598269   122.37918629     0.00000000
 C      5   4   3     2.683340560682   116.79702537     0.00000000
 C      6   5   4     2.705133430821   123.40770347   180.00014221
 C      7   6   5     2.585796522694   126.23737032     0.00000000
 C      8   7   6     2.788326673639   124.51977055   179.99764214
 H      9   8   7     2.080237268975   112.88111868     0.00000000
 H      9   8   7     2.092978726951   110.06052401   122.21539591
 H      9   8   7     2.092994970892   110.05819030   237.82773087
 H      8   7   6     2.074466935382   119.30043980     0.00000000
 H      7   6   5     2.071383022925   116.12123691   179.99688918
 H      5   4   3     2.060049091464   120.50513161   180.00060285
 O      4   3   2     2.518660736564   108.27694303   180.00040154
 C     16   4   3     2.668051809056   108.06047943     0.00000000
 H     17  16   4     2.083472338586   110.24914265   241.81944528
 H     17  16   4     2.083474201842   110.24919396   118.18152113
 O      3   2   1     2.484926213546   128.56074206   180.00109049
 H      2   1   3     2.062242314255   122.83115548   180.00081940
 H      1   2   3     2.066271890763   119.00056163   179.99937198

---------------------
BASIS SET INFORMATION
---------------------
There are 3 groups of distinct atoms

 Group   1 Type C   : 19s6p3d2f contracted to 5s4p3d2f pattern {88111/3111/111/11}
 Group   2 Type H   : 6s3p2d contracted to 4s3p2d pattern {3111/111/11}
 Group   3 Type O   : 19s6p3d2f contracted to 5s4p3d2f pattern {88111/3111/111/11}

Atom   0C    basis set group =>   1
Atom   1C    basis set group =>   1
Atom   2C    basis set group =>   1
Atom   3C    basis set group =>   1
Atom   4C    basis set group =>   1
Atom   5C    basis set group =>   1
Atom   6C    basis set group =>   1
Atom   7C    basis set group =>   1
Atom   8C    basis set group =>   1
Atom   9H    basis set group =>   2
Atom  10H    basis set group =>   2
Atom  11H    basis set group =>   2
Atom  12H    basis set group =>   2
Atom  13H    basis set group =>   2
Atom  14H    basis set group =>   2
Atom  15O    basis set group =>   3
Atom  16C    basis set group =>   1
Atom  17H    basis set group =>   2
Atom  18H    basis set group =>   2
Atom  19O    basis set group =>   3
Atom  20H    basis set group =>   2
Atom  21H    basis set group =>   2
---------------------------------
AUXILIARY/J BASIS SET INFORMATION
---------------------------------
There are 3 groups of distinct atoms

 Group   1 Type C   : 12s5p4d2f1g contracted to 6s4p3d1f1g pattern {711111/2111/211/2/1}
 Group   2 Type H   : 5s2p1d contracted to 3s1p1d pattern {311/2/1}
 Group   3 Type O   : 12s5p4d2f1g contracted to 6s4p3d1f1g pattern {711111/2111/211/2/1}

Atom   0C    basis set group =>   1
Atom   1C    basis set group =>   1
Atom   2C    basis set group =>   1
Atom   3C    basis set group =>   1
Atom   4C    basis set group =>   1
Atom   5C    basis set group =>   1
Atom   6C    basis set group =>   1
Atom   7C    basis set group =>   1
Atom   8C    basis set group =>   1
Atom   9H    basis set group =>   2
Atom  10H    basis set group =>   2
Atom  11H    basis set group =>   2
Atom  12H    basis set group =>   2
Atom  13H    basis set group =>   2
Atom  14H    basis set group =>   2
Atom  15O    basis set group =>   3
Atom  16C    basis set group =>   1
Atom  17H    basis set group =>   2
Atom  18H    basis set group =>   2
Atom  19O    basis set group =>   3
Atom  20H    basis set group =>   2
Atom  21H    basis set group =>   2


           ************************************************************
           *        Program running with 4 parallel MPI-processes     *
           *              working on a common directory               *
           ************************************************************
------------------------------------------------------------------------------
                             ORCA STARTUP CALCULATIONS
                           -- RI-GTO INTEGRALS CHOSEN --
------------------------------------------------------------------------------
------------------------------------------------------------------------------
                   ___                                                        
                  /   \      - P O W E R E D   B Y -                         
                 /     \                                                     
                 |  |  |   _    _      __       _____    __    __             
                 |  |  |  | |  | |    /  \     |  _  \  |  |  /  |          
                  \  \/   | |  | |   /    \    | | | |  |  | /  /          
                 / \  \   | |__| |  /  /\  \   | |_| |  |  |/  /          
                |  |  |   |  __  | /  /__\  \  |    /   |      \           
                |  |  |   | |  | | |   __   |  |    \   |  |\   \          
                \     /   | |  | | |  |  |  |  | |\  \  |  | \   \       
                 \___/    |_|  |_| |__|  |__|  |_| \__\ |__|  \__/        
                                                                              
                      - O R C A' S   B I G   F R I E N D -                    
                                      &                                       
                       - I N T E G R A L  F E E D E R -                       
                                                                              
 v1 FN, 2020, v2 2021, v3 2022-2024                                           
------------------------------------------------------------------------------


----------------------
SHARK INTEGRAL PACKAGE
----------------------

Number of atoms                             ...     22
Number of basis functions                   ...    854
Number of shells                            ...    330
Maximum angular momentum                    ...      3
Integral batch strategy                     ... SHARK/LIBINT Hybrid
RI-J (if used) integral strategy            ... SPLIT-RIJ (Revised 2003 algorithm where possible)
Printlevel                                  ...      1
Contraction scheme used                     ... PARTIAL GENERAL contraction
Prescreening option                         ... SCHWARTZ
   Thresh                                   ... 2.500e-11
   Tcut                                     ... 2.500e-12
   Tpresel                                  ... 2.500e-12 
Coulomb Range Separation                    ... NOT USED
Exchange Range Separation                   ... NOT USED
Multipole approximations                    ... NOT USED
Finite Nucleus Model                        ... NOT USED
CABS basis                                  ... NOT available
Auxiliary Coulomb fitting basis             ... AVAILABLE
   # of basis functions in Aux-J            ...    698
   # of shells in Aux-J                     ...    230
   Maximum angular momentum in Aux-J        ...      4
Auxiliary J/K fitting basis                 ... NOT available
Auxiliary Correlation fitting basis         ... NOT available
Auxiliary 'external' fitting basis          ... NOT available

Checking pre-screening integrals            ... done (  0.0 sec) Dimension = 330
Save PGC pre-screening integrals            ... done (  0.0 sec) Dimension = 330
Calculate PGC overlap integrals             ... done (  0.1 sec) Dimension = 258
Calculating pre-screening integrals (ORCA)  ... done (  0.3 sec) Dimension = 258
Check shell pair data                       ... done (  0.0 sec)
Shell pair information
Shell pair cut-off parameter TPreSel        ...   2.5e-12
Total number of shell pairs                 ...     54615
Shell pairs after pre-screening             ...     42306
Total number of primitive shell pairs       ...     70191
Primitive shell pairs kept                  ...     50087
          la=0 lb=0:   9543 shell pairs
          la=1 lb=0:  10821 shell pairs
          la=1 lb=1:   2764 shell pairs
          la=2 lb=0:   7515 shell pairs
          la=2 lb=1:   3820 shell pairs
          la=2 lb=2:   1359 shell pairs
          la=3 lb=0:   3341 shell pairs
          la=3 lb=1:   1673 shell pairs
          la=3 lb=2:   1191 shell pairs
          la=3 lb=3:    279 shell pairs

Calculating one electron integrals          ... done (  0.1 sec)
Calculating RI/J V-Matrix + Cholesky decomp.... done (  0.1 sec)
Calculating Nuclear repulsion               ... done (  0.0 sec) ENN=    653.879011351310 Eh

Diagonalization of the overlap matrix:
Smallest eigenvalue                        ... 4.867e-07
Time for diagonalization                   ...    0.205 sec
Threshold for overlap eigenvalues          ... 1.000e-07
Number of eigenvalues below threshold      ... 0

IMPORTANT:
Smallest eigenvalue of S below the DiffSThresh (1.000e-06) while
Thresh>1e-12 and/or TCut>1e-13! In order to avoid SCF convergence issues,
Thresh will be set to at least 1e-12 and TCut to at least 1e-13.
This can be turned off by adding %SCF DiffSThresh -1 END to the input.

Time for construction of square roots      ...    0.136 sec
Total time needed                          ...    0.370 sec

-------------------
DFT GRID GENERATION
-------------------

General Integration Accuracy     IntAcc      ... 4.388
Radial Grid Type                 RadialGrid  ... OptM3 with GC (2021)
Angular Grid (max. ang.)         AngularGrid ... 4 (Lebedev-302)
Angular grid pruning method      GridPruning ... 4 (adaptive)
Weight generation scheme         WeightScheme... mBecke (2022)
Basis function cutoff            BFCut       ... 1.0000e-11
Integration weight cutoff        WCut        ... 1.0000e-14
Partially contracted basis set               ... off
Rotationally invariant grid construction     ... off
Angular grids for H and He will be reduced by one unit
Diffuse basis detected: some atoms will have their outermost
                        angular grid increased by 1.

Total number of grid points                  ...   109191
Total number of batches                      ...     1718
Average number of points per batch           ...       63
Average number of grid points per atom       ...     4963

---------------------
SHARK GRID GENERATION
---------------------

General Integration Accuracy     IntAcc      ... 4.388
Radial Grid Type                 RadialGrid  ... OptM3 with GC (2021)
Angular Grid (max. ang.)         AngularGrid ... 4 (Lebedev-302)
Angular grid pruning method      GridPruning ... 4 (adaptive)
Weight generation scheme         WeightScheme... mBecke (2022)
Basis function cutoff            BFCut       ... 1.0000e-11
Integration weight cutoff        WCut        ... 1.0000e-14
Partially contracted basis set               ... off
Rotationally invariant grid construction     ... off
Angular grids for H and He will be reduced by one unit
Diffuse basis detected: some atoms will have their outermost
                        angular grid increased by 1.
Steep s-basis detected: some atoms will have their radial
                        grid points doubled.

Total number of grid points                  ...   184808
Total number of batches                      ...     2898
Average number of points per batch           ...       63
Average number of grid points per atom       ...     8400

--------------------
COSX GRID GENERATION
--------------------

GRIDX 1
-------
General Integration Accuracy     IntAcc      ... 3.816
Radial Grid Type                 RadialGrid  ... OptM3 with GC (2021)
Angular Grid (max. ang.)         AngularGrid ... 1 (Lebedev-50)
Angular grid pruning method      GridPruning ... 4 (adaptive)
Weight generation scheme         WeightScheme... mBecke (2022)
Basis function cutoff            BFCut       ... 1.0000e-11
Integration weight cutoff        WCut        ... 1.0000e-14
Partially contracted basis set               ... on
Rotationally invariant grid construction     ... off
Angular grids for H and He will be reduced by one unit
Diffuse basis detected: some atoms will have their outermost
                        angular grid increased by 1.

Total number of grid points                  ...    13720
Total number of batches                      ...      119
Average number of points per batch           ...      115
Average number of grid points per atom       ...      624
UseSFitting                                  ... on

GRIDX 2
-------
General Integration Accuracy     IntAcc      ... 4.020
Radial Grid Type                 RadialGrid  ... OptM3 with GC (2021)
Angular Grid (max. ang.)         AngularGrid ... 2 (Lebedev-110)
Angular grid pruning method      GridPruning ... 4 (adaptive)
Weight generation scheme         WeightScheme... mBecke (2022)
Basis function cutoff            BFCut       ... 1.0000e-11
Integration weight cutoff        WCut        ... 1.0000e-14
Partially contracted basis set               ... on
Rotationally invariant grid construction     ... off
Angular grids for H and He will be reduced by one unit
Diffuse basis detected: some atoms will have their outermost
                        angular grid increased by 1.

Total number of grid points                  ...    33295
Total number of batches                      ...      274
Average number of points per batch           ...      121
Average number of grid points per atom       ...     1513
UseSFitting                                  ... on

GRIDX 3
-------
General Integration Accuracy     IntAcc      ... 4.338
Radial Grid Type                 RadialGrid  ... OptM3 with GC (2021)
Angular Grid (max. ang.)         AngularGrid ... 3 (Lebedev-194)
Angular grid pruning method      GridPruning ... 4 (adaptive)
Weight generation scheme         WeightScheme... mBecke (2022)
Basis function cutoff            BFCut       ... 1.0000e-11
Integration weight cutoff        WCut        ... 1.0000e-14
Partially contracted basis set               ... on
Rotationally invariant grid construction     ... off
Angular grids for H and He will be reduced by one unit
Diffuse basis detected: some atoms will have their outermost
                        angular grid increased by 1.

Total number of grid points                  ...    73845
Total number of batches                      ...      588
Average number of points per batch           ...      125
Average number of grid points per atom       ...     3357
UseSFitting                                  ... on
Initializing property integral containers    ... done (  0.1 sec)

SHARK setup successfully completed in  12.7 seconds

Maximum memory used throughout the entire STARTUP-calculation: 102.0 MB


           ************************************************************
           *        Program running with 4 parallel MPI-processes     *
           *              working on a common directory               *
           ************************************************************
-------------------------------------------------------------------------------
                                 ORCA GUESS
                   Start orbitals & Density for SCF / CASSCF
-------------------------------------------------------------------------------

------------
SCF SETTINGS
------------
Hamiltonian:
 Density Functional     Method          .... DFT(GTOs)
 Exchange Functional    Exchange        .... PBE
   PBE kappa parameter   XKappa         ....  0.804000
   PBE mue parameter    XMuePBE         ....  0.219520
 Correlation Functional Correlation     .... PBE
   PBE beta parameter  CBetaPBE         ....  0.066725
 LDA part of GGA corr.  LDAOpt          .... PW91-LDA
 Gradients option       PostSCFGGA      .... off
 Hybrid DFT is turned on
   Fraction HF Exchange ScalHFX         ....  0.250000
   Scaling of DF-GGA-X  ScalDFX         ....  0.750000
   Scaling of DF-GGA-C  ScalDFC         ....  1.000000
   Scaling of DF-LDA-C  ScalLDAC        ....  1.000000
   Perturbative correction              ....  0.000000
   NL short-range parameter             ....  6.900000
 RI-approximation to the Coulomb term is turned on
   Number of AuxJ basis functions       .... 698
   RIJ-COSX (HFX calculated with COS-X)).... on


General Settings:
 Integral files         IntName         .... cs_rporg_010_ox_solv_04
 Hartree-Fock type      HFTyp           .... UHF
 Total Charge           Charge          ....    1
 Multiplicity           Mult            ....    2
 Number of Electrons    NEL             ....   85
 Basis Dimension        Dim             ....  782
 Nuclear Repulsion      ENuc            ....    653.8790113513 Eh

Convergence Acceleration:
 AO-DIIS                CNVDIIS         .... on
   Start iteration      DIISMaxIt       ....     0
   Startup error        DIISStart       ....  0.200000
   # of expansion vecs  DIISMaxEq       ....     5
   Bias factor          DIISBfac        ....   1.050
   Max. coefficient     DIISMaxC        ....  10.000
 MO-DIIS                CNVKDIIS        .... off
 Trust-Rad. Augm. Hess. CNVTRAH         .... auto
   Auto Start mean grad. ratio tolernc. ....  1.125000
   Auto Start start iteration           ....    50
   Auto Start num. interpolation iter.  ....    10
   Max. Number of Micro iterations      ....    24
   Max. Number of Macro iterations      .... Maxiter - #DIIS iter
   Number of Davidson start vectors     ....     2
   Converg. threshold    (grad. norm)   ....   1.000e-05
   Grad. Scal. Fac. for Micro threshold ....   0.100
   Minimum threshold for Micro iter.    ....   1.000e-02
   NR start threshold (gradient norm)   ....   1.000e-04
   Initial trust radius                 ....   0.400
   Minimum AH scaling param. (alpha)    ....   1.000
   Maximum AH scaling param. (alpha)    .... 1000.000
   Quad. conv. algorithm                .... NR
   White noise on init. David. guess    .... on
   Maximum white noise                  ....   0.010
   Pseudo random numbers                .... off
   Inactive MOs                         .... canonical
   Orbital update algorithm             .... Taylor
   Preconditioner                       .... Diag
   Full preconditioner red. dimension   ....   250
 SOSCF                  CNVSOSCF        .... on
   Start iteration      SOSCFMaxIt      ....   150
   Startup grad/error   SOSCFStart      ....  0.001000
   Hessian update       SOSCFHessUp     .... L-BFGS
 Level Shifting         CNVShift        .... on
   Level shift para.    LevelShift      ....    0.2500
   Turn off err/grad.   ShiftErr        ....    0.0000
 Zerner damping         CNVZerner       .... off
 Static damping         CNVDamp         .... on
   Fraction old density DampFac         ....    0.8500
   Max. Damping (<1)    DampMax         ....    0.9800
   Min. Damping (>=0)   DampMin         ....    0.0000
   Turn off err/grad.   DampErr         ....    0.0300

SCF Procedure:
 Maximum # iterations   MaxIter         ....  1500
 SCF integral mode      SCFMode         .... Direct
   Integral package                     .... SHARK and LIBINT hybrid scheme
 Reset frequency        DirectResetFreq ....    20
 Integral Threshold     Thresh          ....  1.000e-12 Eh
 Primitive CutOff       TCut            ....  1.000e-13 Eh

Convergence Tolerance:
 Convergence Check Mode ConvCheckMode   .... Total+1el-Energy
 Convergence forced     ConvForced      .... 0
 Energy Change          TolE            ....  1.000e-08 Eh
 1-El. energy change                    ....  1.000e-05 Eh
 Orbital Gradient       TolG            ....  1.000e-05
 Orbital Rotation angle TolX            ....  1.000e-05
 DIIS Error             TolErr          ....  5.000e-07

------------------------------
INITIAL GUESS: MODEL POTENTIAL
------------------------------
Loading Hartree-Fock densities                     ... done
Calculating cut-offs                               ... done
Initializing the effective Hamiltonian             ... done
Setting up the integral package (SHARK)            ... done
Starting the Coulomb interaction                   ... done (   1.2 sec)
Making the grid                                    ... done (   0.6 sec)
Mapping shells                                     ... done
Starting the XC term evaluation                    ... done (   1.2 sec)
  promolecular density results
     # of electrons  =     85.995293541
     EX              =    -70.439475923
     EC              =     -2.878894624
     EX+EC           =    -73.318370547
Transforming the Hamiltonian                       ... done (   0.1 sec)
Diagonalizing the Hamiltonian                      ... done (   0.2 sec)
Back transforming the eigenvectors                 ... done (   0.1 sec)
Now organizing SCF variables                       ... done
                      ------------------
                      INITIAL GUESS DONE (   3.8 sec)
                      ------------------
             **** ENERGY FILE WAS UPDATED (cs_rporg_010_ox_solv_04.en.tmp) ****
Finished Guess after   5.0 sec
Maximum memory used throughout the entire GUESS-calculation: 76.4 MB


           ************************************************************
           *        Program running with 4 parallel MPI-processes     *
           *              working on a common directory               *
           ************************************************************

-------------------------------------------------------------------------------------------
                                      ORCA LEAN-SCF
                              memory conserving SCF solver
-------------------------------------------------------------------------------------------

--------------------
CPCM SOLVATION MODEL
--------------------
CPCM parameters:
  Epsilon                                         ...      35.6880
  Refrac                                          ...       1.3442
  Rsolv                                           ...       2.1900
  Surface type                                    ...    GEPOL SES
  Discretization scheme                           ... Constant num. charges
  Epsilon function type                           ...         CPCM
Solvent:                                          ... ACETONITRILE
SMD-CDS solvent descriptors:
  Soln                                            ...       1.3442
  Soln25                                          ...       1.3416
  Sola                                            ...       0.0700
  Solb                                            ...       0.3200
  Solg                                            ...      41.2500
  Solc                                            ...       0.0000
  Solh                                            ...       0.0000
Radii:
  Scheme                                          ... Element-dependent radii
  Radius for C  used is    3.4960 Bohr (=   1.8500 Ang.)
  Radius for H  used is    2.2677 Bohr (=   1.2000 Ang.)
  Radius for O  used is    4.0969 Bohr (=   2.1680 Ang.)
Calculating surface                               ...        done! (  0.0s)
Cavity surface points                             ...          728
Cavity Volume                                     ...    1302.9192
Cavity Surface-area                               ...     725.1055
Calculating surface distance matrix               ...        done! (  0.0s)
Performing Cholesky decomposition & store         ...        done! (  0.0s)
Overall time for CPCM initialization              ...                 0.1s

----------------------------------------D-I-I-S--------------------------------------------
Iteration    Energy (Eh)           Delta-E    RMSDP     MaxDP     DIISErr   Damp  Time(sec)
-------------------------------------------------------------------------------------------
               ***  Starting incremental Fock matrix formation  ***
    1    -536.6958682321688912     0.00e+00  4.73e-04  3.79e-02  9.29e-02  0.850  44.4
Warning: op=1 Small HOMO/LUMO gap (   0.069) - skipping pre-diagonalization
         Will do a full diagonalization
    2    -536.7412514506899015    -4.54e-02  4.41e-04  3.44e-02  7.13e-02  0.850  26.8
                               ***Turning on AO-DIIS***
    3    -536.7731849519310572    -3.19e-02  3.58e-04  3.15e-02  5.01e-02  0.850  25.1
    4    -536.7945177969285169    -2.13e-02  3.03e-04  2.75e-02  3.94e-02  0.850  24.9
    5    -536.8101871598720436    -1.57e-02  2.58e-04  2.42e-02  3.25e-02  0.850  24.5
    6    -536.8225537773363385    -1.24e-02  2.20e-04  2.13e-02  2.73e-02  0.850  24.4
    7    -536.8326949832545552    -1.01e-02  1.25e-03  1.24e-01  2.32e-02  0.000  24.0
    8    -536.8844991485683522    -5.18e-02  4.07e-05  2.22e-03  2.15e-03  0.000  25.3
    9    -536.8846547350668743    -1.56e-04  2.00e-05  1.08e-03  1.57e-03  0.000  23.2
   10    -536.8847308001844567    -7.61e-05  2.33e-05  1.64e-03  1.36e-03  0.000  22.6
                              *** Initializing SOSCF ***
---------------------------------------S-O-S-C-F--------------------------------------
Iteration    Energy (Eh)           Delta-E    RMSDP     MaxDP     MaxGrad    Time(sec)
--------------------------------------------------------------------------------------
   11    -536.8847909368547562    -6.01e-05  1.39e-05  1.01e-03  9.83e-04    23.9
               *** Restarting incremental Fock matrix formation ***
   12    -536.8848187673146413    -2.78e-05  4.58e-04  4.14e-02  1.13e-03    43.8
   13    -536.8848466448968111    -2.79e-05  6.05e-04  7.29e-02  5.44e-04    38.2
   14    -536.8848643735610722    -1.77e-05  5.40e-04  6.52e-02  3.93e-04    37.5
   15    -536.8848705060501061    -6.13e-06  1.35e-04  1.43e-02  1.28e-04    36.5
   16    -536.8848707084240459    -2.02e-07  5.31e-05  5.59e-03  1.06e-04    35.2
   17    -536.8848712776408547    -5.69e-07  2.47e-05  2.64e-03  1.62e-05    34.4
   18    -536.8848712936907077    -1.60e-08  2.19e-06  2.15e-04  1.41e-05    33.1
   19    -536.8848713081748656    -1.45e-08  3.12e-06  3.82e-04  3.67e-06    30.0
   20    -536.8848713116370845    -3.46e-09  8.24e-07  9.55e-05  4.90e-06    29.6
                 **** Energy Check signals convergence ****

               *****************************************************
               *                     SUCCESS                       *
               *           SCF CONVERGED AFTER  20 CYCLES          *
               *****************************************************

Recomputing exchange energy using gridx3       ... done (   63.613 sec)
Old exchange energy                            :    -17.885862983 Eh
New exchange energy                            :    -17.885909681 Eh
Exchange energy change after final integration :     -0.000046698 Eh
Total energy after final integration           :   -536.884918010 Eh

SMD CDS free energy correction energy :                -1.86391     Kcal/mol
Total Energy after SMD CDS correction =              -536.887888335 Eh
             **** ENERGY FILE WAS UPDATED (cs_rporg_010_ox_solv_04.en.tmp) ****

----------------
TOTAL SCF ENERGY
----------------

Total Energy       :       -536.88788833546187 Eh          -14609.46217 eV

Components:
Nuclear Repulsion  :        653.87901135130994 Eh           17792.95248 eV
Electronic Energy  :      -1190.68395519404339 Eh          -32400.15761 eV
One Electron Energy:      -2010.29648383554377 Eh          -54702.94837 eV
Two Electron Energy:        819.61252864150026 Eh           22302.79076 eV
CPCM Dielectric    :         -0.07992746890344 Eh              -2.17494 eV
SMD CDS (Gcds)     :         -0.00297032577675 Eh              -0.08083 eV

Virial components:
Potential Energy   :      -1070.38437948859610 Eh          -29126.63974 eV
Kinetic Energy     :        533.49649115313423 Eh           14517.17756 eV
Virial Ratio       :          2.00635692500057

DFT components:
N(Alpha)           :       43.000022708460 electrons
N(Beta)            :       42.000020652528 electrons
N(Total)           :       85.000043360988 electrons
E(X)               :      -53.542055439337 Eh       
E(C)               :       -2.843324789048 Eh       
E(XC)              :      -56.385380228384 Eh       

CPCM Solvation Model Properties:
Surface-charge          :         -1.03456830302598
Corrected charge        :         -1.00000000000000
Outlying charge corr.   :          0.00007752370912 Eh               0.00211 eV
Free-energy (cav+disp)  :         -0.00297032577675 Eh              -0.08083 eV

---------------
SCF CONVERGENCE
---------------

  Last Energy change         ...    3.4622e-09  Tolerance :   1.0000e-08
  Last MAX-Density change    ...    9.5546e-05  Tolerance :   1.0000e-07
  Last RMS-Density change    ...    8.2401e-07  Tolerance :   5.0000e-09
  Last DIIS Error            ...    9.8333e-04  Tolerance :   5.0000e-07
  Last Orbital Gradient      ...    4.9003e-06  Tolerance :   1.0000e-05
  Last Orbital Rotation      ...    2.0827e-05  Tolerance :   1.0000e-05


----------------------
UHF SPIN CONTAMINATION
----------------------

Warning: in a DFT calculation there is little theoretical justification to 
         calculate <S**2> as in Hartree-Fock theory. We will do it anyways
         but you should keep in mind that the values have only limited relevance

Expectation value of <S**2>     :     0.776676
Ideal value S*(S+1) for S=0.5   :     0.750000
Deviation                       :     0.026676

----------------
ORBITAL ENERGIES
----------------
                 SPIN UP ORBITALS
  NO   OCC          E(Eh)            E(eV) 
   0   1.0000     -19.324002      -525.8328 
   1   1.0000     -19.307569      -525.3857 
   2   1.0000     -10.369896      -282.1792 
   3   1.0000     -10.356700      -281.8201 
   4   1.0000     -10.342740      -281.4403 
   5   1.0000     -10.298924      -280.2480 
   6   1.0000     -10.282653      -279.8052 
   7   1.0000     -10.279935      -279.7313 
   8   1.0000     -10.272378      -279.5256 
   9   1.0000     -10.266434      -279.3639 
  10   1.0000     -10.261069      -279.2179 
  11   1.0000     -10.231672      -278.4179 
  12   1.0000      -1.231010       -33.4975 
  13   1.0000      -1.136430       -30.9238 
  14   1.0000      -0.936041       -25.4710 
  15   1.0000      -0.868174       -23.6242 
  16   1.0000      -0.827401       -22.5147 
  17   1.0000      -0.816801       -22.2263 
  18   1.0000      -0.757035       -20.6000 
  19   1.0000      -0.718757       -19.5584 
  20   1.0000      -0.691148       -18.8071 
  21   1.0000      -0.680873       -18.5275 
  22   1.0000      -0.609124       -16.5751 
  23   1.0000      -0.585023       -15.9193 
  24   1.0000      -0.584981       -15.9182 
  25   1.0000      -0.573070       -15.5940 
  26   1.0000      -0.543168       -14.7804 
  27   1.0000      -0.499382       -13.5889 
  28   1.0000      -0.490075       -13.3356 
  29   1.0000      -0.482836       -13.1386 
  30   1.0000      -0.463378       -12.6091 
  31   1.0000      -0.454934       -12.3794 
  32   1.0000      -0.451798       -12.2940 
  33   1.0000      -0.441740       -12.0204 
  34   1.0000      -0.439850       -11.9689 
  35   1.0000      -0.439209       -11.9515 
  36   1.0000      -0.405006       -11.0208 
  37   1.0000      -0.394846       -10.7443 
  38   1.0000      -0.391536       -10.6542 
  39   1.0000      -0.380163       -10.3448 
  40   1.0000      -0.326443        -8.8830 
  41   1.0000      -0.287502        -7.8233 
  42   1.0000      -0.252713        -6.8767 
  43   0.0000      -0.078001        -2.1225 
  44   0.0000      -0.038524        -1.0483 
  45   0.0000      -0.002231        -0.0607 
  46   0.0000       0.007115         0.1936 
  47   0.0000       0.011549         0.3143 
  48   0.0000       0.014111         0.3840 
  49   0.0000       0.021795         0.5931 
  50   0.0000       0.024507         0.6669 
  51   0.0000       0.026309         0.7159 
  52   0.0000       0.033013         0.8983 
  53   0.0000       0.034438         0.9371 

                 SPIN DOWN ORBITALS
  NO   OCC          E(Eh)            E(eV) 
   0   1.0000     -19.319468      -525.7095 
   1   1.0000     -19.305296      -525.3238 
   2   1.0000     -10.370086      -282.1844 
   3   1.0000     -10.352970      -281.7186 
   4   1.0000     -10.341413      -281.4042 
   5   1.0000     -10.296089      -280.1708 
   6   1.0000     -10.280066      -279.7348 
   7   1.0000     -10.275112      -279.6000 
   8   1.0000     -10.273058      -279.5441 
   9   1.0000     -10.267676      -279.3977 
  10   1.0000     -10.261864      -279.2395 
  11   1.0000     -10.231864      -278.4232 
  12   1.0000      -1.225084       -33.3362 
  13   1.0000      -1.129883       -30.7457 
  14   1.0000      -0.929979       -25.3060 
  15   1.0000      -0.861066       -23.4308 
  16   1.0000      -0.823666       -22.4131 
  17   1.0000      -0.811017       -22.0689 
  18   1.0000      -0.755695       -20.5635 
  19   1.0000      -0.712173       -19.3792 
  20   1.0000      -0.687791       -18.7157 
  21   1.0000      -0.676643       -18.4124 
  22   1.0000      -0.604931       -16.4610 
  23   1.0000      -0.582917       -15.8620 
  24   1.0000      -0.572829       -15.5875 
  25   1.0000      -0.570547       -15.5254 
  26   1.0000      -0.540238       -14.7006 
  27   1.0000      -0.496935       -13.5223 
  28   1.0000      -0.489470       -13.3192 
  29   1.0000      -0.479735       -13.0543 
  30   1.0000      -0.449350       -12.2274 
  31   1.0000      -0.442733       -12.0474 
  32   1.0000      -0.441548       -12.0151 
  33   1.0000      -0.439376       -11.9560 
  34   1.0000      -0.437308       -11.8997 
  35   1.0000      -0.429299       -11.6818 
  36   1.0000      -0.403330       -10.9752 
  37   1.0000      -0.393074       -10.6961 
  38   1.0000      -0.378508       -10.2997 
  39   1.0000      -0.373576       -10.1655 
  40   1.0000      -0.311977        -8.4893 
  41   1.0000      -0.275220        -7.4891 
  42   0.0000      -0.172551        -4.6953 
  43   0.0000      -0.053244        -1.4488 
  44   0.0000      -0.023354        -0.6355 
  45   0.0000      -0.001635        -0.0445 
  46   0.0000       0.007647         0.2081 
  47   0.0000       0.011670         0.3175 
  48   0.0000       0.022151         0.6028 
  49   0.0000       0.022670         0.6169 
  50   0.0000       0.024788         0.6745 
  51   0.0000       0.031607         0.8601 
  52   0.0000       0.034749         0.9456 
*Only the first 10 virtual orbitals were printed.

                    ********************************
                    * MULLIKEN POPULATION ANALYSIS *
                    ********************************

--------------------------------------------
MULLIKEN ATOMIC CHARGES AND SPIN POPULATIONS
--------------------------------------------
   0 C :   -0.902501    0.138973
   1 C :   -0.620575   -0.047320
   2 C :    0.787681    0.208486
   3 C :    0.861673    0.090578
   4 C :   -0.539045   -0.097476
   5 C :    1.098285    0.200048
   6 C :   -0.321056   -0.011730
   7 C :   -0.286327    0.309544
   8 C :   -0.795848   -0.031163
   9 H :    0.282415   -0.005322
  10 H :    0.250465    0.020931
  11 H :    0.251083    0.021127
  12 H :    0.238035   -0.027377
  13 H :    0.194116    0.002620
  14 H :    0.159064    0.011412
  15 O :   -0.591261    0.069297
  16 C :   -0.121200   -0.025352
  17 H :    0.313573    0.017466
  18 H :    0.312392    0.017450
  19 O :   -0.580378    0.142403
  20 H :    0.656092   -0.000110
  21 H :    0.353315   -0.004483
Sum of atomic charges         :    1.0000000
Sum of atomic spin populations:    1.0000000

-----------------------------------------------------
MULLIKEN REDUCED ORBITAL CHARGES AND SPIN POPULATIONS
-----------------------------------------------------
CHARGE
  0 C s       :     3.980218  s :     3.980218
      pz      :     0.853510  p :     2.718319
      px      :     0.813599
      py      :     1.051210
      dz2     :    -0.015615  d :     0.207996
      dxz     :     0.021068
      dyz     :     0.001820
      dx2y2   :    -0.016587
      dxy     :     0.217310
      f0      :     0.001858  f :    -0.004033
      f+1     :    -0.001260
      f-1     :     0.000786
      f+2     :     0.001301
      f-2     :     0.000199
      f+3     :    -0.000555
      f-3     :    -0.006362

  1 C s       :     3.770866  s :     3.770866
      pz      :     1.007577  p :     2.632154
      px      :     0.728727
      py      :     0.895850
      dz2     :    -0.001467  d :     0.240806
      dxz     :     0.036127
      dyz     :     0.022623
      dx2y2   :     0.025210
      dxy     :     0.158313
      f0      :     0.001498  f :    -0.023252
      f+1     :     0.000331
      f-1     :     0.002021
      f+2     :     0.000918
      f-2     :     0.000143
      f+3     :    -0.004030
      f-3     :    -0.024134

  2 C s       :     3.200191  s :     3.200191
      pz      :     0.826761  p :     2.034671
      px      :     0.482968
      py      :     0.724941
      dz2     :    -0.021245  d :    -0.007923
      dxz     :     0.027515
      dyz     :     0.008011
      dx2y2   :    -0.029049
      dxy     :     0.006845
      f0      :     0.004639  f :    -0.014620
      f+1     :    -0.000117
      f-1     :    -0.000708
      f+2     :     0.011134
      f-2     :     0.002237
      f+3     :    -0.003079
      f-3     :    -0.028726

  3 C s       :     3.175506  s :     3.175506
      pz      :     0.867002  p :     1.908107
      px      :     0.531343
      py      :     0.509762
      dz2     :     0.015523  d :     0.071793
      dxz     :     0.028460
      dyz     :     0.005822
      dx2y2   :     0.021686
      dxy     :     0.000302
      f0      :     0.004338  f :    -0.017078
      f+1     :    -0.002883
      f-1     :     0.000439
      f+2     :     0.001301
      f-2     :     0.011379
      f+3     :    -0.003212
      f-3     :    -0.028442

  4 C s       :     3.972660  s :     3.972660
      pz      :     1.063323  p :     2.524727
      px      :     0.497906
      py      :     0.963498
      dz2     :    -0.013209  d :     0.074670
      dxz     :     0.020541
      dyz     :     0.012730
      dx2y2   :    -0.096156
      dxy     :     0.150763
      f0      :     0.001650  f :    -0.033012
      f+1     :     0.000342
      f-1     :     0.000911
      f+2     :     0.001277
      f-2     :    -0.000056
      f+3     :    -0.004447
      f-3     :    -0.032689

  5 C s       :     2.847164  s :     2.847164
      pz      :     0.882296  p :     2.137316
      px      :     0.372319
      py      :     0.882700
      dz2     :    -0.017634  d :    -0.020200
      dxz     :    -0.049679
      dyz     :    -0.010456
      dx2y2   :    -0.040340
      dxy     :     0.097908
      f0      :     0.003056  f :    -0.062564
      f+1     :    -0.004079
      f-1     :    -0.000630
      f+2     :     0.002066
      f-2     :    -0.000438
      f+3     :    -0.017500
      f-3     :    -0.045040

  6 C s       :     3.809722  s :     3.809722
      pz      :     0.987151  p :     2.570039
      px      :     0.727161
      py      :     0.855727
      dz2     :     0.009936  d :    -0.037349
      dxz     :    -0.019075
      dyz     :     0.012902
      dx2y2   :    -0.061008
      dxy     :     0.019895
      f0      :     0.001207  f :    -0.021356
      f+1     :    -0.000691
      f-1     :    -0.000953
      f+2     :     0.001257
      f-2     :    -0.000804
      f+3     :     0.000560
      f-3     :    -0.021931

  7 C s       :     3.598582  s :     3.598582
      pz      :     0.776859  p :     2.582041
      px      :     0.813235
      py      :     0.991947
      dz2     :    -0.001184  d :     0.111853
      dxz     :     0.020339
      dyz     :     0.013989
      dx2y2   :    -0.001545
      dxy     :     0.080254
      f0      :     0.000406  f :    -0.006149
      f+1     :     0.000612
      f-1     :     0.000471
      f+2     :     0.000297
      f-2     :     0.000488
      f+3     :    -0.003745
      f-3     :    -0.004678

  8 C s       :     3.484786  s :     3.484786
      pz      :     1.122365  p :     3.217464
      px      :     0.937822
      py      :     1.157277
      dz2     :     0.013227  d :     0.081965
      dxz     :     0.016784
      dyz     :     0.019166
      dx2y2   :     0.017762
      dxy     :     0.015026
      f0      :     0.001966  f :     0.011634
      f+1     :     0.000041
      f-1     :     0.002567
      f+2     :     0.001724
      f-2     :    -0.000098
      f+3     :     0.001701
      f-3     :     0.003734

  9 H s       :     0.665046  s :     0.665046
      pz      :     0.010941  p :     0.045037
      px      :     0.020561
      py      :     0.013535
      dz2     :     0.000014  d :     0.007501
      dxz     :     0.000728
      dyz     :     0.003371
      dx2y2   :     0.001829
      dxy     :     0.001559

 10 H s       :     0.696865  s :     0.696865
      pz      :     0.015164  p :     0.045762
      px      :     0.019273
      py      :     0.011324
      dz2     :     0.002333  d :     0.006909
      dxz     :     0.000896
      dyz     :     0.000277
      dx2y2   :     0.002631
      dxy     :     0.000772

 11 H s       :     0.696335  s :     0.696335
      pz      :     0.015159  p :     0.045681
      px      :     0.019266
      py      :     0.011256
      dz2     :     0.002325  d :     0.006900
      dxz     :     0.000897
      dyz     :     0.000288
      dx2y2   :     0.002623
      dxy     :     0.000767

 12 H s       :     0.713686  s :     0.713686
      pz      :     0.017788  p :     0.043867
      px      :    -0.010978
      py      :     0.037056
      dz2     :     0.000249  d :     0.004412
      dxz     :     0.000756
      dyz     :     0.002849
      dx2y2   :    -0.001043
      dxy     :     0.001601

 13 H s       :     0.788905  s :     0.788905
      pz      :     0.019370  p :     0.010683
      px      :    -0.005047
      py      :    -0.003640
      dz2     :     0.000616  d :     0.006296
      dxz     :     0.001411
      dyz     :     0.002947
      dx2y2   :    -0.000714
      dxy     :     0.002037

 14 H s       :     0.821520  s :     0.821520
      pz      :     0.018463  p :     0.017528
      px      :    -0.001824
      py      :     0.000889
      dz2     :    -0.000162  d :     0.001887
      dxz     :     0.001034
      dyz     :     0.003676
      dx2y2   :    -0.000377
      dxy     :    -0.002283

 15 O s       :     4.060601  s :     4.060601
      pz      :     1.717127  p :     4.437915
      px      :     1.220206
      py      :     1.500582
      dz2     :     0.000737  d :     0.083878
      dxz     :     0.022593
      dyz     :     0.014878
      dx2y2   :     0.027863
      dxy     :     0.017806
      f0      :     0.001213  f :     0.008867
      f+1     :     0.000610
      f-1     :     0.000244
      f+2     :     0.000244
      f-2     :     0.001639
      f+3     :     0.003296
      f-3     :     0.001621

 16 C s       :     3.297626  s :     3.297626
      pz      :     1.080769  p :     2.501389
      px      :     0.838491
      py      :     0.582129
      dz2     :     0.024915  d :     0.289048
      dxz     :     0.092974
      dyz     :     0.044323
      dx2y2   :     0.061180
      dxy     :     0.065656
      f0      :     0.006436  f :     0.033137
      f+1     :     0.002981
      f-1     :     0.002524
      f+2     :     0.007822
      f-2     :     0.006292
      f+3     :     0.004821
      f-3     :     0.002261

 17 H s       :     0.662786  s :     0.662786
      pz      :     0.009068  p :     0.023033
      px      :     0.012054
      py      :     0.001911
      dz2     :     0.002921  d :     0.000608
      dxz     :     0.000613
      dyz     :    -0.000060
      dx2y2   :    -0.001875
      dxy     :    -0.000992

 18 H s       :     0.663981  s :     0.663981
      pz      :     0.009145  p :     0.023034
      px      :     0.012007
      py      :     0.001882
      dz2     :     0.002921  d :     0.000593
      dxz     :     0.000614
      dyz     :    -0.000061
      dx2y2   :    -0.001886
      dxy     :    -0.000994

 19 O s       :     4.117894  s :     4.117894
      pz      :     1.660248  p :     4.377508
      px      :     1.382945
      py      :     1.334315
      dz2     :    -0.000554  d :     0.076265
      dxz     :     0.021953
      dyz     :     0.014750
      dx2y2   :     0.019784
      dxy     :     0.020332
      f0      :     0.001170  f :     0.008711
      f+1     :     0.000247
      f-1     :     0.000466
      f+2     :     0.001803
      f-2     :     0.000093
      f+3     :     0.002220
      f-3     :     0.002712

 20 H s       :     0.342790  s :     0.342790
      pz      :     0.018529  p :    -0.001896
      px      :    -0.010397
      py      :    -0.010027
      dz2     :    -0.000629  d :     0.003014
      dxz     :     0.000953
      dyz     :     0.003598
      dx2y2   :    -0.000398
      dxy     :    -0.000511

 21 H s       :     0.619705  s :     0.619705
      pz      :     0.016678  p :     0.018942
      px      :    -0.013303
      py      :     0.015567
      dz2     :    -0.000320  d :     0.008038
      dxz     :     0.001664
      dyz     :     0.002717
      dx2y2   :     0.003789
      dxy     :     0.000188


SPIN
  0 C s       :    -0.025307  s :    -0.025307
      pz      :     0.150308  p :     0.154384
      px      :     0.000871
      py      :     0.003205
      dz2     :    -0.000543  d :     0.011819
      dxz     :     0.003279
      dyz     :     0.002626
      dx2y2   :     0.004060
      dxy     :     0.002398
      f0      :    -0.000333  f :    -0.001923
      f+1     :    -0.000306
      f-1     :    -0.000147
      f+2     :     0.000211
      f-2     :    -0.000383
      f+3     :    -0.000578
      f-3     :    -0.000387

  1 C s       :     0.003890  s :     0.003890
      pz      :    -0.041600  p :    -0.058552
      px      :    -0.012535
      py      :    -0.004416
      dz2     :    -0.000110  d :     0.008346
      dxz     :     0.006346
      dyz     :     0.003038
      dx2y2   :     0.000465
      dxy     :    -0.001394
      f0      :    -0.000103  f :    -0.001003
      f+1     :    -0.000087
      f-1     :     0.000115
      f+2     :     0.000574
      f-2     :    -0.000917
      f+3     :    -0.000417
      f-3     :    -0.000167

  2 C s       :    -0.007017  s :    -0.007017
      pz      :     0.203552  p :     0.203788
      px      :    -0.002169
      py      :     0.002406
      dz2     :    -0.000504  d :     0.012085
      dxz     :     0.009135
      dyz     :     0.002457
      dx2y2   :    -0.001906
      dxy     :     0.002902
      f0      :    -0.000109  f :    -0.000370
      f+1     :    -0.000221
      f-1     :    -0.000213
      f+2     :     0.001516
      f-2     :     0.000643
      f+3     :    -0.000272
      f-3     :    -0.001714

  3 C s       :     0.005603  s :     0.005603
      pz      :     0.078603  p :     0.084445
      px      :     0.005862
      py      :    -0.000019
      dz2     :    -0.000793  d :     0.001921
      dxz     :    -0.002854
      dyz     :     0.005514
      dx2y2   :    -0.001382
      dxy     :     0.001435
      f0      :    -0.000117  f :    -0.001391
      f+1     :    -0.000075
      f-1     :    -0.000079
      f+2     :    -0.000038
      f-2     :     0.000018
      f+3     :    -0.000878
      f-3     :    -0.000221

  4 C s       :    -0.003740  s :    -0.003740
      pz      :    -0.070874  p :    -0.094628
      px      :    -0.018228
      py      :    -0.005525
      dz2     :     0.000925  d :     0.002323
      dxz     :     0.000035
      dyz     :     0.000641
      dx2y2   :     0.003379
      dxy     :    -0.002657
      f0      :    -0.000045  f :    -0.001432
      f+1     :     0.000009
      f-1     :     0.000160
      f+2     :    -0.000154
      f-2     :    -0.000840
      f+3     :    -0.000478
      f-3     :    -0.000084

  5 C s       :     0.018171  s :     0.018171
      pz      :     0.150815  p :     0.165133
      px      :    -0.005957
      py      :     0.020275
      dz2     :    -0.000043  d :     0.015935
      dxz     :     0.001176
      dyz     :     0.003622
      dx2y2   :     0.002966
      dxy     :     0.008214
      f0      :    -0.000227  f :     0.000809
      f+1     :    -0.000251
      f-1     :    -0.000087
      f+2     :     0.001145
      f-2     :     0.000277
      f+3     :     0.000004
      f-3     :    -0.000052

  6 C s       :     0.011088  s :     0.011088
      pz      :    -0.046782  p :    -0.035963
      px      :     0.005878
      py      :     0.004940
      dz2     :     0.000082  d :     0.012293
      dxz     :     0.009216
      dyz     :     0.002879
      dx2y2   :    -0.002099
      dxy     :     0.002216
      f0      :     0.000129  f :     0.000851
      f+1     :     0.000152
      f-1     :     0.000193
      f+2     :     0.000395
      f-2     :     0.000074
      f+3     :     0.000009
      f-3     :    -0.000102

  7 C s       :    -0.007650  s :    -0.007650
      pz      :     0.271408  p :     0.299702
      px      :     0.019657
      py      :     0.008637
      dz2     :    -0.001370  d :     0.018152
      dxz     :     0.004558
      dyz     :     0.002913
      dx2y2   :     0.004654
      dxy     :     0.007397
      f0      :    -0.000419  f :    -0.000660
      f+1     :    -0.000308
      f-1     :    -0.000331
      f+2     :     0.000476
      f-2     :     0.000216
      f+3     :     0.000068
      f-3     :    -0.000360

  8 C s       :    -0.030972  s :    -0.030972
      pz      :    -0.004656  p :    -0.014658
      px      :    -0.007157
      py      :    -0.002845
      dz2     :     0.000922  d :     0.013130
      dxz     :     0.008539
      dyz     :     0.001847
      dx2y2   :     0.000284
      dxy     :     0.001538
      f0      :     0.000516  f :     0.001337
      f+1     :     0.000129
      f-1     :     0.000116
      f+2     :     0.000343
      f-2     :     0.000234
      f+3     :     0.000003
      f-3     :    -0.000004

  9 H s       :    -0.005429  s :    -0.005429
      pz      :    -0.000423  p :    -0.000082
      px      :    -0.000133
      py      :     0.000474
      dz2     :     0.000015  d :     0.000189
      dxz     :     0.000074
      dyz     :     0.000101
      dx2y2   :    -0.000016
      dxy     :     0.000015

 10 H s       :     0.017697  s :     0.017697
      pz      :     0.000929  p :     0.002882
      px      :     0.001805
      py      :     0.000147
      dz2     :     0.000134  d :     0.000352
      dxz     :     0.000026
      dyz     :     0.000044
      dx2y2   :     0.000123
      dxy     :     0.000026

 11 H s       :     0.017855  s :     0.017855
      pz      :     0.000941  p :     0.002915
      px      :     0.001822
      py      :     0.000152
      dz2     :     0.000134  d :     0.000357
      dxz     :     0.000028
      dyz     :     0.000044
      dx2y2   :     0.000125
      dxy     :     0.000026

 12 H s       :    -0.034984  s :    -0.034984
      pz      :     0.005894  p :     0.006659
      px      :     0.001166
      py      :    -0.000400
      dz2     :    -0.000031  d :     0.000948
      dxz     :     0.000172
      dyz     :     0.000625
      dx2y2   :     0.000114
      dxy     :     0.000067

 13 H s       :     0.003875  s :     0.003875
      pz      :    -0.002106  p :    -0.001273
      px      :    -0.001541
      py      :     0.002373
      dz2     :     0.000086  d :     0.000019
      dxz     :    -0.000110
      dyz     :    -0.000123
      dx2y2   :     0.000214
      dxy     :    -0.000048

 14 H s       :     0.014353  s :     0.014353
      pz      :    -0.002703  p :    -0.002688
      px      :     0.000677
      py      :    -0.000662
      dz2     :     0.000045  d :    -0.000253
      dxz     :    -0.000076
      dyz     :    -0.000228
      dx2y2   :    -0.000036
      dxy     :     0.000042

 15 O s       :     0.002931  s :     0.002931
      pz      :     0.060908  p :     0.065800
      px      :     0.003191
      py      :     0.001701
      dz2     :     0.000107  d :     0.000464
      dxz     :     0.000359
      dyz     :     0.000177
      dx2y2   :    -0.000248
      dxy     :     0.000068
      f0      :    -0.000006  f :     0.000101
      f+1     :    -0.000022
      f-1     :    -0.000011
      f+2     :    -0.000010
      f-2     :     0.000106
      f+3     :     0.000035
      f-3     :     0.000010

 16 C s       :    -0.022254  s :    -0.022254
      pz      :     0.006096  p :    -0.004940
      px      :    -0.004583
      py      :    -0.006452
      dz2     :    -0.000222  d :     0.000200
      dxz     :     0.001958
      dyz     :    -0.001030
      dx2y2   :    -0.000171
      dxy     :    -0.000334
      f0      :    -0.000148  f :     0.001641
      f+1     :     0.000003
      f-1     :     0.000120
      f+2     :     0.000820
      f-2     :     0.001112
      f+3     :    -0.000271
      f-3     :     0.000004

 17 H s       :     0.016221  s :     0.016221
      pz      :     0.001109  p :     0.001235
      px      :     0.000001
      py      :     0.000124
      dz2     :     0.000048  d :     0.000010
      dxz     :    -0.000008
      dyz     :    -0.000019
      dx2y2   :    -0.000000
      dxy     :    -0.000011

 18 H s       :     0.016208  s :     0.016208
      pz      :     0.001105  p :     0.001232
      px      :     0.000002
      py      :     0.000125
      dz2     :     0.000048  d :     0.000010
      dxz     :    -0.000008
      dyz     :    -0.000019
      dx2y2   :    -0.000000
      dxy     :    -0.000011

 19 O s       :     0.005578  s :     0.005578
      pz      :     0.119921  p :     0.132802
      px      :     0.005644
      py      :     0.007237
      dz2     :     0.000226  d :     0.003657
      dxz     :     0.003302
      dyz     :     0.000081
      dx2y2   :     0.000150
      dxy     :    -0.000102
      f0      :     0.000008  f :     0.000365
      f+1     :    -0.000028
      f-1     :    -0.000024
      f+2     :     0.000222
      f-2     :     0.000033
      f+3     :     0.000039
      f-3     :     0.000115

 20 H s       :     0.002544  s :     0.002544
      pz      :    -0.002372  p :    -0.002431
      px      :    -0.000693
      py      :     0.000634
      dz2     :     0.000074  d :    -0.000223
      dxz     :    -0.000186
      dyz     :    -0.000215
      dx2y2   :     0.000082
      dxy     :     0.000022

 21 H s       :    -0.007627  s :    -0.007627
      pz      :     0.002973  p :     0.002463
      px      :    -0.001110
      py      :     0.000600
      dz2     :     0.000067  d :     0.000681
      dxz     :     0.000057
      dyz     :     0.000409
      dx2y2   :     0.000075
      dxy     :     0.000073



                     *******************************
                     * LOEWDIN POPULATION ANALYSIS *
                     *******************************

-------------------------------------------
LOEWDIN ATOMIC CHARGES AND SPIN POPULATIONS
-------------------------------------------
   0 C :    0.263731    0.107040
   1 C :    0.291464    0.040949
   2 C :   -0.348428    0.141491
   3 C :   -0.347978    0.070500
   4 C :    0.279849   -0.004504
   5 C :   -0.097016    0.101290
   6 C :    0.254526    0.052293
   7 C :    0.267685    0.156112
   8 C :    0.589018    0.050644
   9 H :   -0.157495    0.001080
  10 H :   -0.144323    0.010909
  11 H :   -0.144305    0.010917
  12 H :   -0.153578    0.028674
  13 H :   -0.162436   -0.003299
  14 H :   -0.155021   -0.007678
  15 O :    0.661974    0.062731
  16 C :   -0.059784    0.020213
  17 H :   -0.117700    0.007193
  18 H :   -0.117703    0.007193
  19 O :    0.676596    0.131192
  20 H :   -0.137781   -0.002915
  21 H :   -0.141294    0.017976

----------------------------------------------------
LOEWDIN REDUCED ORBITAL CHARGES AND SPIN POPULATIONS
----------------------------------------------------
CHARGE
  0 C s       :     2.481900  s :     2.481900
      pz      :     0.550561  p :     2.226201
      px      :     0.852839
      py      :     0.822801
      dz2     :     0.069963  d :     0.690740
      dxz     :     0.104972
      dyz     :     0.058912
      dx2y2   :     0.197382
      dxy     :     0.259511
      f0      :     0.022196  f :     0.337429
      f+1     :     0.029381
      f-1     :     0.022695
      f+2     :     0.045749
      f-2     :     0.021470
      f+3     :     0.064872
      f-3     :     0.131064

  1 C s       :     2.490912  s :     2.490912
      pz      :     0.611785  p :     2.285564
      px      :     0.842839
      py      :     0.830940
      dz2     :     0.064850  d :     0.616302
      dxz     :     0.081869
      dyz     :     0.049697
      dx2y2   :     0.187319
      dxy     :     0.232567
      f0      :     0.021788  f :     0.315758
      f+1     :     0.028226
      f-1     :     0.022538
      f+2     :     0.033739
      f-2     :     0.027263
      f+3     :     0.059565
      f-3     :     0.122640

  2 C s       :     2.454971  s :     2.454971
      pz      :     0.565934  p :     2.167563
      px      :     0.733382
      py      :     0.868247
      dz2     :     0.102669  d :     1.067161
      dxz     :     0.188666
      dyz     :     0.131240
      dx2y2   :     0.337454
      dxy     :     0.307133
      f0      :     0.043802  f :     0.658734
      f+1     :     0.050770
      f-1     :     0.039799
      f+2     :     0.088196
      f-2     :     0.066290
      f+3     :     0.138221
      f-3     :     0.231655

  3 C s       :     2.451149  s :     2.451149
      pz      :     0.600093  p :     2.188440
      px      :     0.838425
      py      :     0.749922
      dz2     :     0.101652  d :     1.055914
      dxz     :     0.191114
      dyz     :     0.125720
      dx2y2   :     0.301515
      dxy     :     0.335912
      f0      :     0.042629  f :     0.652476
      f+1     :     0.049310
      f-1     :     0.041346
      f+2     :     0.054220
      f-2     :     0.097953
      f+3     :     0.161186
      f-3     :     0.205832

  4 C s       :     2.475287  s :     2.475287
      pz      :     0.624206  p :     2.285463
      px      :     0.828012
      py      :     0.833244
      dz2     :     0.067260  d :     0.635002
      dxz     :     0.100663
      dyz     :     0.050506
      dx2y2   :     0.213545
      dxy     :     0.203028
      f0      :     0.023258  f :     0.324399
      f+1     :     0.029365
      f-1     :     0.021883
      f+2     :     0.036398
      f-2     :     0.030675
      f+3     :     0.061362
      f-3     :     0.121457

  5 C s       :     2.464913  s :     2.464913
      pz      :     0.561742  p :     2.226879
      px      :     0.835893
      py      :     0.829243
      dz2     :     0.088580  d :     0.919354
      dxz     :     0.143646
      dyz     :     0.117566
      dx2y2   :     0.297899
      dxy     :     0.271663
      f0      :     0.030790  f :     0.485869
      f+1     :     0.034991
      f-1     :     0.033176
      f+2     :     0.036288
      f-2     :     0.063952
      f+3     :     0.076402
      f-3     :     0.210270

  6 C s       :     2.484492  s :     2.484492
      pz      :     0.601512  p :     2.272819
      px      :     0.832755
      py      :     0.838552
      dz2     :     0.070999  d :     0.670842
      dxz     :     0.096348
      dyz     :     0.034517
      dx2y2   :     0.236678
      dxy     :     0.232300
      f0      :     0.020696  f :     0.317320
      f+1     :     0.030055
      f-1     :     0.021693
      f+2     :     0.026734
      f-2     :     0.022628
      f+3     :     0.066069
      f-3     :     0.129444

  7 C s       :     2.495074  s :     2.495074
      pz      :     0.508821  p :     2.192435
      px      :     0.827751
      py      :     0.855862
      dz2     :     0.064289  d :     0.724643
      dxz     :     0.147363
      dyz     :     0.041342
      dx2y2   :     0.241756
      dxy     :     0.229893
      f0      :     0.025773  f :     0.320163
      f+1     :     0.022702
      f-1     :     0.020087
      f+2     :     0.042982
      f-2     :     0.023305
      f+3     :     0.056651
      f-3     :     0.128662

  8 C s       :     2.459859  s :     2.459859
      pz      :     0.768673  p :     2.293603
[...]
      f+2     :     0.009005
      f-2     :     0.000493
      f+3     :     0.000374
      f-3     :     0.000273

  9 H s       :     0.000077  s :     0.000077
      pz      :    -0.000119  p :    -0.000499
      px      :    -0.000355
      py      :    -0.000025
      dz2     :    -0.000011  d :     0.001501
      dxz     :     0.000832
      dyz     :     0.000992
      dx2y2   :    -0.000036
      dxy     :    -0.000276

 10 H s       :     0.009500  s :     0.009500
      pz      :     0.000098  p :     0.000963
      px      :     0.000786
      py      :     0.000079
      dz2     :    -0.000015  d :     0.000446
      dxz     :    -0.000197
      dyz     :     0.000025
      dx2y2   :     0.000522
      dxy     :     0.000109

 11 H s       :     0.009509  s :     0.009509
      pz      :     0.000098  p :     0.000963
      px      :     0.000787
      py      :     0.000079
      dz2     :    -0.000015  d :     0.000445
      dxz     :    -0.000197
      dyz     :     0.000025
      dx2y2   :     0.000523
      dxy     :     0.000109

 12 H s       :    -0.004054  s :    -0.004054
      pz      :     0.015951  p :     0.017817
      px      :     0.000357
      py      :     0.001510
      dz2     :    -0.000058  d :     0.014910
      dxz     :     0.001002
      dyz     :     0.013058
      dx2y2   :     0.000465
      dxy     :     0.000444

 13 H s       :     0.000601  s :     0.000601
      pz      :    -0.003805  p :    -0.004334
      px      :    -0.000323
      py      :    -0.000206
      dz2     :    -0.000024  d :     0.000433
      dxz     :    -0.000934
      dyz     :     0.001797
      dx2y2   :    -0.000158
      dxy     :    -0.000248

 14 H s       :     0.000755  s :     0.000755
      pz      :    -0.004172  p :    -0.005046
      px      :    -0.000453
      py      :    -0.000422
      dz2     :    -0.000030  d :    -0.003387
      dxz     :    -0.000895
      dyz     :    -0.001930
      dx2y2   :    -0.000338
      dxy     :    -0.000195

 15 O s       :     0.001373  s :     0.001373
      pz      :     0.053026  p :     0.054413
      px      :     0.001297
      py      :     0.000090
      dz2     :     0.000020  d :     0.004493
      dxz     :    -0.000540
      dyz     :     0.005467
      dx2y2   :    -0.000338
      dxy     :    -0.000116
      f0      :     0.001488  f :     0.002452
      f+1     :    -0.000027
      f-1     :    -0.000025
      f+2     :    -0.000109
      f-2     :     0.001315
      f+3     :    -0.000151
      f-3     :    -0.000039

 16 C s       :    -0.000791  s :    -0.000791
      pz      :     0.002781  p :    -0.001661
      px      :    -0.001749
      py      :    -0.002693
      dz2     :     0.000295  d :     0.008161
      dxz     :     0.006426
      dyz     :     0.001575
      dx2y2   :     0.000064
      dxy     :    -0.000200
      f0      :     0.004560  f :     0.014503
      f+1     :     0.000160
      f-1     :     0.000093
      f+2     :     0.004739
      f-2     :     0.004703
      f+3     :    -0.000096
      f-3     :     0.000344

 17 H s       :     0.008142  s :     0.008142
      pz      :     0.000202  p :    -0.000427
      px      :    -0.000250
      py      :    -0.000379
      dz2     :    -0.000137  d :    -0.000522
      dxz     :    -0.000046
      dyz     :    -0.000145
      dx2y2   :    -0.000109
      dxy     :    -0.000085

 18 H s       :     0.008141  s :     0.008141
      pz      :     0.000202  p :    -0.000426
      px      :    -0.000250
      py      :    -0.000379
      dz2     :    -0.000137  d :    -0.000522
      dxz     :    -0.000046
      dyz     :    -0.000145
      dx2y2   :    -0.000109
      dxy     :    -0.000085

 19 O s       :     0.002795  s :     0.002795
      pz      :     0.104819  p :     0.107854
      px      :     0.000391
      py      :     0.002644
      dz2     :     0.000071  d :     0.013767
      dxz     :     0.013542
      dyz     :     0.000056
      dx2y2   :     0.000193
      dxy     :    -0.000094
      f0      :     0.003241  f :     0.006776
      f+1     :    -0.000044
      f-1     :    -0.000041
      f+2     :     0.002796
      f-2     :     0.000783
      f+3     :     0.000043
      f-3     :    -0.000002

 20 H s       :     0.000286  s :     0.000286
      pz      :    -0.002172  p :    -0.002735
      px      :    -0.000363
      py      :    -0.000200
      dz2     :    -0.000015  d :    -0.000465
      dxz     :    -0.000796
      dyz     :     0.000749
      dx2y2   :    -0.000226
      dxy     :    -0.000177

 21 H s       :    -0.002495  s :    -0.002495
      pz      :     0.010261  p :     0.011192
      px      :     0.000221
      py      :     0.000710
      dz2     :    -0.000025  d :     0.009279
      dxz     :     0.000774
      dyz     :     0.008192
      dx2y2   :     0.000070
      dxy     :     0.000269



                      *****************************
                      * MAYER POPULATION ANALYSIS *
                      *****************************

  NA   - Mulliken gross atomic population
  ZA   - Total nuclear charge
  QA   - Mulliken gross atomic charge
  VA   - Mayer's total valence
  BVA  - Mayer's bonded valence
  FA   - Mayer's free valence

  ATOM       NA         ZA         QA         VA         BVA        FA
  0 C      6.9025     6.0000    -0.9025     2.6861     2.6597     0.0264
  1 C      6.6206     6.0000    -0.6206     2.5874     2.5839     0.0034
  2 C      5.2123     6.0000     0.7877     2.4403     2.3904     0.0499
  3 C      5.1383     6.0000     0.8617     2.2459     2.2376     0.0082
  4 C      6.5390     6.0000    -0.5390     2.2935     2.2881     0.0054
  5 C      4.9017     6.0000     1.0983     1.7018     1.6728     0.0290
  6 C      6.3211     6.0000    -0.3211     2.4443     2.4370     0.0073
  7 C      6.2863     6.0000    -0.2863     2.9560     2.8783     0.0777
  8 C      6.7958     6.0000    -0.7958     3.6416     3.6395     0.0021
  9 H      0.7176     1.0000     0.2824     0.9589     0.9589     0.0000
 10 H      0.7495     1.0000     0.2505     0.9804     0.9801     0.0003
 11 H      0.7489     1.0000     0.2511     0.9796     0.9793     0.0003
 12 H      0.7620     1.0000     0.2380     0.9738     0.9727     0.0012
 13 H      0.8059     1.0000     0.1941     1.0429     1.0429     0.0000
 14 H      0.8409     1.0000     0.1591     1.0487     1.0485     0.0002
 15 O      8.5913     8.0000    -0.5913     1.8000     1.7956     0.0044
 16 C      6.1212     6.0000    -0.1212     3.6542     3.6532     0.0010
 17 H      0.6864     1.0000     0.3136     0.9382     0.9380     0.0002
 18 H      0.6876     1.0000     0.3124     0.9396     0.9394     0.0002
 19 O      8.5804     8.0000    -0.5804     1.8030     1.7855     0.0175
 20 H      0.3439     1.0000     0.6561     0.4420     0.4420     0.0000
 21 H      0.6467     1.0000     0.3533     0.9490     0.9490     0.0000

  Mayer bond orders larger than 0.100000
B(  0-C ,  1-C ) :   1.5189 B(  0-C ,  2-C ) :  -0.2532 B(  0-C ,  3-C ) :  -0.1224 
B(  0-C ,  4-C ) :  -0.1558 B(  0-C ,  5-C ) :   0.6807 B(  0-C ,  6-C ) :  -0.1178 
B(  0-C ,  7-C ) :   0.2453 B(  0-C , 21-H ) :   0.8463 B(  1-C ,  2-C ) :   0.7593 
B(  1-C , 20-H ) :   0.2344 B(  2-C ,  3-C ) :   1.1400 B(  2-C ,  4-C ) :  -0.1320 
B(  2-C ,  6-C ) :   0.1594 B(  2-C , 19-O ) :   0.5034 B(  2-C , 20-H ) :   0.1043 
B(  3-C ,  4-C ) :   0.6233 B(  3-C ,  5-C ) :   0.2635 B(  3-C , 14-H ) :  -0.1048 
B(  3-C , 15-O ) :   0.2605 B(  3-C , 19-O ) :   0.1430 B(  4-C ,  5-C ) :   0.6364 
B(  4-C ,  7-C ) :  -0.1111 B(  4-C , 12-H ) :  -0.1464 B(  4-C , 14-H ) :   1.1778 
B(  4-C , 15-O ) :   0.2519 B(  5-C ,  6-C ) :   0.2707 B(  5-C ,  7-C ) :  -0.1512 
B(  5-C , 12-H ) :  -0.1324 B(  6-C ,  7-C ) :   0.9677 B(  6-C , 12-H ) :   0.1290 
B(  6-C , 13-H ) :   1.1057 B(  7-C ,  8-C ) :   0.8174 B(  7-C , 12-H ) :   1.1647 
B(  8-C ,  9-H ) :   0.9128 B(  8-C , 10-H ) :   0.9478 B(  8-C , 11-H ) :   0.9473 
B( 14-H , 15-O ) :   0.1053 B( 15-O , 16-C ) :   0.9095 B( 16-C , 17-H ) :   0.8618 
B( 16-C , 18-H ) :   0.8634 B( 16-C , 19-O ) :   0.8862 

-------
TIMINGS
-------

Total SCF time: 0 days 0 hours 11 min 14 sec 

Total time                  ....     674.184 sec
Sum of individual times     ....     674.114 sec  (100.0%)

SCF preparation             ....       1.261 sec  (  0.2%)
Fock matrix formation       ....     639.039 sec  ( 94.8%)
  Startup                   ....       2.223 sec  (  0.3% of F)
  Split-RI-J                ....      32.400 sec  (  5.1% of F)
  Chain of spheres X        ....     446.237 sec  ( 69.8% of F)
  XC integration            ....     138.250 sec  ( 21.6% of F)
    XC Preparation          ....       0.000 sec  (  0.0% of XC)
    Basis function eval.    ....      12.278 sec  (  8.9% of XC)
    Density eval.           ....      47.313 sec  ( 34.2% of XC)
    XC-Functional eval.     ....       0.804 sec  (  0.6% of XC)
    XC-Potential eval.      ....      73.696 sec  ( 53.3% of XC)
  CPCM terms                ....      14.132 sec  (  2.2% of F)
Diagonalization             ....       0.000 sec  (  0.0%)
Density matrix formation    ....       4.663 sec  (  0.7%)
Total Energy calculation    ....       2.173 sec  (  0.3%)
Population analysis         ....       0.759 sec  (  0.1%)
Orbital Transformation      ....       2.818 sec  (  0.4%)
Orbital Orthonormalization  ....       0.000 sec  (  0.0%)
DIIS solution               ....      15.893 sec  (  2.4%)
SOSCF solution              ....       7.508 sec  (  1.1%)
Finished LeanSCF after 674.6 sec

Maximum memory used throughout the entire LEANSCF-calculation: 145.2 MB


-------------------------------------------------------------------------------
                          DFT DISPERSION CORRECTION                            
                                                                               
                              DFTD3 V3.1  Rev 1                                
                          USING Becke-Johnson damping                          
-------------------------------------------------------------------------------
The PBE0 functional is recognized
Active option DFTDOPT                   ...         4   

molecular C6(AA) [au] = 5215.134190 


            DFT-D V3
 parameters
 s6 scaling factor         :     1.0000 
 a1 scaling factor         :     0.4145 
 s8 scaling factor         :     1.2177 
 a2 scaling factor         :     4.8593 
 ad hoc parameters k1-k3   :    16.0000     1.3333    -4.0000 

 Edisp/kcal,au: -12.475600372276  -0.019881132568 
 E6   /kcal   :  -7.816126188 
 E8   /kcal   :  -4.659474185 
 % E8         :  37.348697021 

-------------------------   ----------------
Dispersion correction           -0.019881133
-------------------------   ----------------


-------------------------   --------------------
FINAL SINGLE POINT ENERGY      -536.907769468030
-------------------------   --------------------



           ************************************************************
           *        Program running with 4 parallel MPI-processes     *
           *              working on a common directory               *
           ************************************************************

------------------------------------------------------------------------------
                              ORCA PROPERTY CALCULATIONS
------------------------------------------------------------------------------

GBWName                                 ... cs_rporg_010_ox_solv_04.gbw
Number of atoms                         ...     22
Number of basis functions               ...    854
Max core memory                         ...   3000 MB

Electric properties:
Dipole moment                           ... YES
Quadrupole moment                       ...  NO
Static polarizability (Dipole/Dipole)   ...  NO
Static polarizability (Dipole/Quad.)    ...  NO
Static polarizability (Quad./Quad.)     ...  NO
Static polarizability (Velocity)        ...  NO

Atomic electric properties:
Dipole moment                           ...  NO
Quadrupole moment                       ...  NO
Static polarizability                   ...  NO

Choice of electric origin               ... Center of mass
Position of electric origin             ...     0.004373     0.002541     0.000019

General magnetic properties:
Magnetizability                         ...  NO

EPR properties:
g-Tensor (aka g-matrix)                 ...  NO
Zero-Field splitting spin-orbit         ...  NO
Zero-field splitting spin-spin          ...  NO
Hyperfine couplings                     ...  NO (   0 nuclei)
Quadrupole couplings                    ...  NO (   0 nuclei)
Contact density                         ...  NO (   0 nuclei)

NMR properties:
Chemical shifts                         ...  NO (   0 nuclei)
Spin-rotation constants                 ...  NO (   0 nuclei)
Spin-spin couplings                     ...  NO (   0 nuclei,    0 pairs)

Choice of magnetic origin               ... GIAO
Position of magnetic origin             ...     0.000000     0.000000     0.000000

Properties with geometric perturbations:
SCF Hessian                             ...  NO
IR spectrum                             ...  NO
VCD spectrum                            ...  NO
X-ray spectroscopy properties:
SCF XES/XAS/RIXS spectra                ...  NO


-------------
DIPOLE MOMENT
-------------

Method             : SCF
Type of density    : Electron Density
Multiplicity       :   2
Irrep              :   0
Energy             :  -536.8878883354618665 Eh
Relativity type    : 
Basis              : AO
                                X                 Y                 Z
Electronic contribution:    -13.008100977      -0.695398156      -0.000059027
Nuclear contribution   :     13.204705509       0.674639604      -0.000147023
                        -----------------------------------------
Total Dipole Moment    :      0.196604532      -0.020758552      -0.000206051
                        -----------------------------------------
Magnitude (a.u.)       :      0.197697501
Magnitude (Debye)      :      0.502507114



--------------------
Rotational spectrum 
--------------------
 
Rotational constants in cm-1:             0.088323             0.016345             0.013866 
Rotational constants in MHz :          2647.863415           489.996572           415.683402 

Dipole components along the rotational axes: 
x,y,z [a.u.] :     0.196590     0.020900    -0.000204 
x,y,z [Debye]:     0.499691     0.053124    -0.000520 

 

Dipole moment calculation done in   0.1 sec 

Maximum memory used throughout the entire PROP-calculation: 83.0 MB

--------------------------------
SUGGESTED CITATIONS FOR THIS RUN
--------------------------------

Below you find a list of papers that are relevant to this ORCA run
We neither can nor want to force you to cite these papers, but we appreciate if you do
You receive ORCA, which is the product of decades of hard work by many enthusiastic individuals, for free
The only thing we kindly ask in return is that you cite our papers,
We deeply appreciate it, if you show your appreciation for ORCA by not just citing the generic ORCA reference.

Please note that relegating all ORCA citations to the supporting information does *not* help us.
SI sections are not indexed - citations you put there will not count into any citation statistics
But we need these citations in order to attract the funding resources that allow us to do what we are doing

Therefore, if you are a happy ORCA user, please consider citing a few of the papers listed below in the main body of your paper

In addition to the list printed below, the program has created the file cs_rporg_010_ox_solv_04.bibtex that contains the list in bibtex format
You can import this file easily into all common literature databanks and citation aid programs


List of essential papers. We consider these as the minimum necessary citations

  1. Neese,F.
     Software update: the ORCA program system, version 5.0
     WIRES Comput. Molec. Sci., 2022 12(1)e1606
     doi.org/10.1002/wcms.1606

List of papers to cite with high priority. The work reported in these papers was absolutely
necessary for this run to complete.
Our perspective: the developers of density functionals and basis sets usually get cited in chemistry papers
Good! But without the algorithms to do something with them, the functionals or basis sets would not do anything.
Hence, in our opinion, the algorithm design and method developments papers are equally worthy of getting cited

  1. Neese,F.
     An improvement of the resolution of the identity approximation for the formation of the Coulomb matrix
     J. Comp. Chem., 2003 24(14)1740-1747
     doi.org/10.1002/jcc.10318
  2. Neese,F.; Wennmohs,F.; Hansen,A.; Becker,U.
     Efficient, approximate and parallel Hartree-Fock and hybrid DFT calculations. A 'chain-of-spheres' algorithm for the Hartree-Fock exchange
     Chem. Phys., 2009 356(1-3)98-109
     doi.org/10.1016/j.chemphys.2008.10.036
  3. Garcia-Rates,M.; Neese,F.
     Effect of the Solute Cavity on the Solvation Energy and its Derivatives within the Framework of the Gaussian Charge Scheme
     J. Comput. Chem., 2020 41 922-939
     doi.org/10.1002/jcc.26139
  4. Helmich-Paris,B.; de Souza,B.; Neese,F.; Izsák,R.
     An improved chain of spheres for exchange algorithm
     J. Chem. Phys., 2021 155 104109
     doi.org/doi: 10.1063/5.0058766.
  5. Neese,F.
     The SHARK Integral Generation and Digestion System
     J. Comp. Chem., 2022  1-16
     doi.org/10.1002/jcc.26942
  6. Grimme,S.; Antony,J.; Ehrlich,S.; Krieg,H.
     A consistent and accurate ab initio parametrization of density functional dispersion correction (DFT-D) for the 94 elements H-Pu
     J. Chem. Phys., 2010 132 154104-XXXX
     doi.org/10.1063/1.3382344
  7. Grimme,S.; Ehrlich,S.; Goerigk,L.
     Effect of the damping function in dispersion corrected density functional theory
     J. Comput. Chem., 2011 32(7)1456-1465
     doi.org/10.1002/jcc.21759

List of suggested additional citations. These are papers that are important in the 'surrounding' of 
of this run, or papers that preceded the highly important papers. If you like your results we are grateful for a citation.

  1. Izsak,R.; Neese,F.
     An overlap fitted chain of spheres exchange method
     J. Chem. Phys., 2011 135 144105
     doi.org/10.1063/1.3646921
  2. Izsak,R.; Hansen,A.; Neese,F.
     The resolution of identity and chain of spheres approximations for the LPNO-CCSD singles Fock term
     Molec. Phys., 2012 110 2413-2417
     doi.org/10.1080/00268976.2012.687466
  3. Neese,F.
     The ORCA program system
     WIRES Comput. Molec. Sci., 2012 2(1)73-78
     doi.org/10.1002/wcms.81
  4. Izsak,R.; Neese,F.; Klopper,W.
     Robust fitting techniques in the chain of spheres approximation to the Fock exchange: The role of the complementary space
     J. Chem. Phys., 2013 139 
     doi.org/10.1063/1.4819264
  5. Neese,F.
     Software update: the ORCA program system, version 4.0
     WIRES Comput. Molec. Sci., 2018 8(1)1-6
     doi.org/10.1002/wcms.1327
  6. Neese,F.; Wennmohs,F.; Becker,U.; Riplinger,C.
     The ORCA quantum chemistry program package
     J. Chem. Phys., 2020 152 Art. No. L224108
     doi.org/10.1063/5.0004608

List of optional additional citations

  1. Neese,F.
     Approximate second-order SCF convergence for spin unrestricted wavefunctions
     Chem. Phys. Lett., 2000 325(1-3)93-98
     doi.org/10.1016/s0009-2614(00)00662-x

Timings for individual modules:

Sum of individual times          ...      700.074 sec (=  11.668 min)
Startup calculation              ...       16.082 sec (=   0.268 min)   2.3 %
SCF iterations                   ...      682.111 sec (=  11.369 min)  97.4 %
Property calculations            ...        1.882 sec (=   0.031 min)   0.3 %
                             ****ORCA TERMINATED NORMALLY****
TOTAL RUN TIME: 0 days 0 hours 11 minutes 42 seconds 772 msec
