
                                 *****************
                                 * O   R   C   A *
                                 *****************

                                            #,                                       
                                            ###                                      
                                            ####                                     
                                            #####                                    
                                            ######                                   
                                           ########,                                 
                                     ,,################,,,,,                         
                               ,,#################################,,                 
                          ,,##########################################,,             
                       ,#########################################, ''#####,          
                    ,#############################################,,   '####,        
                  ,##################################################,,,,####,       
                ,###########''''           ''''###############################       
              ,#####''   ,,,,##########,,,,          '''####'''          '####       
            ,##' ,,,,###########################,,,                        '##       
           ' ,,###''''                  '''############,,,                           
         ,,##''                                '''############,,,,        ,,,,,,###''
      ,#''                                            '''#######################'''  
     '                                                          ''''####''''         
             ,#######,   #######,   ,#######,      ##                                
            ,#'     '#,  ##    ##  ,#'     '#,    #''#        ,####,   ,####,        
            ##       ##  ##   ,#'  ##            #'  '#       #'       #'  '#        
            ##       ##  #######   ##           ,######,      #####,   #    #        
            '#,     ,#'  ##    ##  '#,     ,#' ,#      #,     #,   #   #,  ,#        
             '#######'   ##     ##  '#######'  #'      '#     '####' # '####'        



                #########################################################
                #                        -***-                          #
                #          Department of theory and spectroscopy        #
                #                                                       #
                #                      Frank Neese                      #
                #                                                       #
                #     Directorship, Architecture, Infrastructure        #
                #                    SHARK, DRIVERS                     #
                #        Core code/Algorithms in most modules           #
                #                                                       #
                #        Max Planck Institute fuer Kohlenforschung      #
                #                Kaiser Wilhelm Platz 1                 #
                #                 D-45470 Muelheim/Ruhr                 #
                #                      Germany                          #
                #                                                       #
                #                  All rights reserved                  #
                #                        -***-                          #
                #########################################################


                         Program Version 6.0.0  -   RELEASE  -


 With contributions from (in alphabetic order):
   Daniel Aravena         : Magnetic Suceptibility
   Michael Atanasov       : Ab Initio Ligand Field Theory (pilot matlab implementation)
   Alexander A. Auer      : GIAO ZORA, VPT2 properties, NMR spectrum
   Ute Becker             : All parallelization in ORCA, NUMFREQ, NUMCALC
   Giovanni Bistoni       : ED, misc. LED, open-shell LED, HFLD
   Martin Brehm           : Molecular dynamics
   Dmytro Bykov           : pre 5.0 version of the SCF Hessian
   Marcos Casanova-Páez   : Triplet and SCS-CIS(D). UHF-(DLPNO)-IP/EA/STEOM-CCSD. UHF-CVS-IP/STEOM-CCSD
   Vijay G. Chilkuri      : MRCI spin determinant printing, contributions to CSF-ICE
   Pauline Colinet        : FMM embedding
   Dipayan Datta          : RHF DLPNO-CCSD density
   Achintya Kumar Dutta   : EOM-CC, STEOM-CC
   Nicolas Foglia         : Exact transition moments, OPA infrastructure, MCD improvements
   Dmitry Ganyushin       : Spin-Orbit,Spin-Spin,Magnetic field MRCI
   Miquel Garcia          : C-PCM and meta-GGA Hessian, CCSD/C-PCM, Gaussian charge scheme
   Tiago L. C. Gouveia    : GS-ROHF, GS-ROCIS
   Yang Guo               : DLPNO-NEVPT2, F12-NEVPT2, CIM, IAO-localization
   Andreas Hansen         : Spin unrestricted coupled pair/coupled cluster methods
   Ingolf Harden          : AUTO-CI MPn and infrastructure 
   Benjamin Helmich-Paris : MC-RPA, TRAH-(SCF,CASSCF), AVAS, COSX integrals, SCF dyn. polar.
   Lee Huntington         : MR-EOM, pCC
   Robert Izsak           : Overlap fitted RIJCOSX, COSX-SCS-MP3, EOM
   Riya Kayal             : Wick's Theorem for AUTO-CI, AUTO-CI UHF-CCSDT
   Emily Kempfer          : AUTO-CI, RHF CISDT and CCSDT
   Christian Kollmar      : KDIIS, OOCD, Brueckner-CCSD(T), CCSD density, CASPT2, CASPT2-K, improved NEVPT2
   Axel Koslowski         : Symmetry handling
   Simone Kossmann        : Meta GGA functionals, TD-DFT gradient, OOMP2, (MP2 Hessian; deprecated post 5.0)
   Lucas Lang             : DCDCAS
   Marvin Lechner         : AUTO-CI (C++ implementation), FIC-MRCC
   Spencer Leger          : CASSCF response
   Dagmar Lenk            : GEPOL surface, SMD, ORCA-2-JSON
   Dimitrios Liakos       : Extrapolation schemes; Compound Job, initial MDCI parallelization
   Dimitrios Manganas     : Further ROCIS development; embedding schemes. LFT, Crystal Embedding
   Dimitrios Pantazis     : SARC Basis sets
   Anastasios Papadopoulos: AUTO-CI, single reference methods and gradients
   Taras Petrenko         : pre 6.0 DFT Hessian and TD-DFT gradient, (ASA, deprecated), ECA, 1-Electron XAS/XES, NRVS
   Peter Pinski           : DLPNO-MP2, DLPNO-MP2 Gradient
   Christoph Reimann      : Effective Core Potentials
   Marius Retegan         : Local ZFS, SOC
   Christoph Riplinger    : Optimizer, TS searches, QM/MM, DLPNO-CCSD(T), (RO)-DLPNO pert. Triples
   Michael Roemelt        : Original ROCIS implementation
   Masaaki Saitow         : Open-shell DLPNO-CCSD energy and density
   Barbara Sandhoefer     : DKH picture change effects
   Kantharuban Sivalingam : CASSCF convergence/infrastructure, NEVPT2 and variants, FIC-MRCI
   Bernardo de Souza      : ESD, SOC TD-DFT
   Georgi Stoychev        : AutoAux, RI-MP2 NMR, DLPNO-MP2 response, X2C
   Van Anh Tran           : RI-MP2 g-tensors
   Willem Van den Heuvel  : Paramagnetic NMR
   Zikuan Wang            : NOTCH, Electric field optimization 
   Frank Wennmohs         : Technical directorship and infrastructure
   Hang Xu                : AUTO-CI-Response properties 


 We gratefully acknowledge several colleagues who have allowed us to
 interface, adapt or use parts of their codes:
   Stefan Grimme, W. Hujo, H. Kruse, P. Pracht,  : VdW corrections, initial TS optimization,
                  C. Bannwarth, S. Ehlert,         DFT functionals, gCP, sTDA/sTD-DF
                  L. Wittmann, M. Mueller
   Ed Valeev, F. Pavosevic, A. Kumar             : LibInt (2-el integral package), F12 methods
   Garnet Chan, S. Sharma, J. Yang, R. Olivares  : DMRG
   Ulf Ekstrom                                   : XCFun DFT Library
   Mihaly Kallay                                 : mrcc  (arbitrary order and MRCC methods)
   Frank Weinhold                                : gennbo (NPA and NBO analysis)
   Simon Mueller                                 : openCOSMO-RS
   Christopher J. Cramer and Donald G. Truhlar   : smd solvation model
   Lars Goerigk                                  : TD-DFT with DH, B97 family of functionals
   V. Asgeirsson, H. Jonsson                     : NEB implementation
   FAccTs GmbH                                   : IRC, NEB, NEB-TS, DLPNO-Multilevel, CI-OPT
                                                   MM, QMMM, 2- and 3-layer-ONIOM, Crystal-QMMM,
                                                   LR-CPCM, SF, NACMEs, symmetry and pop. for TD-DFT,
                                                   nearIR, NL-DFT gradient (VV10), updates on ESD,
                                                   ML-optimized integration grids, MBIS, APM,
                                                   GOAT, DOCKER, SOLVATOR, interface openCOSMO-RS
   S Lehtola, MJT Oliveira, MAL Marques          : LibXC Library
   Liviu Ungur et al                             : ANISO software


 Your calculation uses the libint2 library for the computation of 2-el integrals
 For citations please refer to: http://libint.valeyev.net

 Your ORCA version has been built with support for libXC version: 6.2.2
 For citations please refer to: https://libxc.gitlab.io

 This ORCA versions uses:
   CBLAS   interface :  Fast vector & matrix operations
   LAPACKE interface :  Fast linear algebra routines
   SCALAPACK package :  Parallel linear algebra routines
   Shared memory     :  Shared parallel matrices
   BLAS/LAPACK       :  OpenBLAS 0.3.27  USE64BITINT DYNAMIC_ARCH NO_AFFINITY Sandybridge SINGLE_THREADED
        Core in use  :  Sandybridge
   Copyright (c) 2011-2014, The OpenBLAS Project


NOTE: MaxCore=3000 MB was set to SCF,MP2,MDCI,CIPSI,MRCI and CIS
      => If you want to overwrite this, your respective input block should be placed after the MaxCore statement
Your calculation utilizes the atom-pairwise dispersion correction
with the Becke-Johnson damping scheme (D3BJ)


Your calculation utilizes the SMD solvation module
Please cite in your paper:
A.V. Marenich, C.J. Cramer, D.G. Truhlar J. Phys. Chem. B, 113, (2009), 6378 

Warning: RI is on but no J-basis has been assigned. Assigning Def2/J (nothing to worry about!)
================================================================================

----- Orbital basis set information -----
Your calculation utilizes the basis: aug-cc-pVTZ 
    H, B-Ne : Obtained from the ccRepo (grant-hill.group.shef.ac.uk/ccrepo) Feb. 2017
              R. A. Kendall, T. H. Dunning, Jr., R. J. Harrison, J. Chem. Phys. 96, 6796 (1992)
         He : Obtained from the ccRepo (grant-hill.group.shef.ac.uk/ccrepo) Feb. 2017
              D. E. Woon, T. H. Dunning, Jr., J. Chem. Phys. 100, 2975 (1994)
  Li-Be, Na : Obtained from the ccRepo (grant-hill.group.shef.ac.uk/ccrepo) Feb. 2017
              B. P. Prascher, D. E. Woon, K. A. Peterson, T. H. Dunning, Jr., A. K. Wilson, Theor. Chem. Acc. 128, 69 (2011)
         Mg : Obtained from the Peterson Research Group Website (tyr0.chem.wsu.edu/~kipeters) Feb. 2017
              B. P. Prascher, D. E. Woon, K. A. Peterson, T. H. Dunning, Jr., A. K. Wilson, Theor. Chem. Acc. 128, 69 (2011)
      Al-Ar : Obtained from the ccRepo (grant-hill.group.shef.ac.uk/ccrepo) Feb. 2017
              D. E. Woon, T. H. Dunning, Jr., J. Chem. Phys. 98, 1358 (1993)
      Sc-Zn : Obtained from the ccRepo (grant-hill.group.shef.ac.uk/ccrepo) Feb. 2017
              N. B. Balabanov, K. A. Peterson, J. Chem. Phys. 123, 064107 (2005)
              N. B. Balabanov, K. A. Peterson, J. Chem. Phys. 125, 074110 (2006)
      Ga-Kr : Obtained from the ccRepo (grant-hill.group.shef.ac.uk/ccrepo) Feb. 2017
              A. K. Wilson, D. E. Woon, K. A. Peterson, T. H. Dunning, Jr., J. Chem. Phys. 110, 7667 (1999)
     Ag, Au : Obtained from the Peterson Research Group Website (tyr0.chem.wsu.edu/~kipeters) Feb. 2017
              K. A. Peterson, C. Puzzarini, Theor. Chem. Acc. 114, 283 (2005)

----- AuxJ basis set information -----
Your calculation utilizes the auxiliary basis: def2/J
   F. Weigend, Phys. Chem. Chem. Phys. 8, 1057 (2006).

================================================================================
                                        WARNINGS
                       Please study these warnings very carefully!
================================================================================

Using LibXC functional ID 497 : Re-regularized SCAN exchange by Furness et al
[ 1]  J. W. Furness, A. D. Kaplan, J. Ning, J. P. Perdew, and J. Sun.,  J. Phys. Chem. Lett. 11, 8208-8215 (2020)
[ 2]  J. W. Furness, A. D. Kaplan, J. Ning, J. P. Perdew, and J. Sun.,  J. Phys. Chem. Lett. 11, 9248-9248 (2020)
Using LibXC functional ID 498 : Re-regularized SCAN correlation by Furness et al
[ 1]  J. W. Furness, A. D. Kaplan, J. Ning, J. P. Perdew, and J. Sun.,  J. Phys. Chem. Lett. 11, 8208-8215 (2020)
[ 2]  J. W. Furness, A. D. Kaplan, J. Ning, J. P. Perdew, and J. Sun.,  J. Phys. Chem. Lett. 11, 9248-9248 (2020)
Using LibXC functional ID 497 : Re-regularized SCAN exchange by Furness et al
[ 1]  J. W. Furness, A. D. Kaplan, J. Ning, J. P. Perdew, and J. Sun.,  J. Phys. Chem. Lett. 11, 8208-8215 (2020)
[ 2]  J. W. Furness, A. D. Kaplan, J. Ning, J. P. Perdew, and J. Sun.,  J. Phys. Chem. Lett. 11, 9248-9248 (2020)
Using LibXC functional ID 498 : Re-regularized SCAN correlation by Furness et al
[ 1]  J. W. Furness, A. D. Kaplan, J. Ning, J. P. Perdew, and J. Sun.,  J. Phys. Chem. Lett. 11, 8208-8215 (2020)
[ 2]  J. W. Furness, A. D. Kaplan, J. Ning, J. P. Perdew, and J. Sun.,  J. Phys. Chem. Lett. 11, 9248-9248 (2020)

================================================================================
                                       INPUT FILE
================================================================================
NAME = cs_rporg_009_red_solv_04.inp
|  1> !r2SCANh aug-cc-pVTZ d3 TightSCF SlowConv RIJCOSX defgrid2
|  2>  
|  3> %pal
|  4> nprocs 4
|  5> end
|  6>  
|  7> %scf
|  8> MaxIter 1500
|  9> end
| 10>  
| 11> %maxcore 3000
| 12>  
| 13> !CPCM
| 14> %cpcm smd true
| 15> SMDsolvent "MeCN"
| 16> surfacetype gepol_ses
| 17> rsolv 2.19
| 18> end 
| 19>  
| 20> * xyz 0 1
| 21> C           0.86930262577353     -1.20261880029345      0.00017105333715
| 22> C           1.23795362702926      0.14976029336823      0.00011888618076
| 23> C           0.20861669065532      1.10178711313028      0.00004997159606
| 24> C          -1.14266539481067      0.75277814049696     -0.00001496332606
| 25> C          -1.49510132454858     -0.61091836423424      0.00001993066330
| 26> C          -0.47134803669840     -1.56560486246111      0.00011663608289
| 27> H          -0.73825756953350     -2.62759517616832      0.00016986000597
| 28> C          -2.93561352812274     -1.03199819846802     -0.00003268925957
| 29> H          -3.03042597379354     -2.12984128685189      0.00005376751285
| 30> H          -3.47239583982485     -0.64683793793607     -0.88649052066934
| 31> H          -3.47250072897996     -0.64668878799144      0.88629702354134
| 32> C          -2.20261220725801      1.81656948866912     -0.00009254079027
| 33> H          -2.85825633400454      1.73802365829102      0.88648022833246
| 34> H          -2.85834169985167      1.73782693594634     -0.88658224699833
| 35> H          -1.75673523006564      2.82424393630291     -0.00022124376864
| 36> H           0.47747434540426      2.16407970597621      0.00002545328680
| 37> C           2.63224685704945      0.60848489545892      0.00012709034736
| 38> C           3.73948848691454     -0.14591897511127     -0.00036178438147
| 39> H           3.70645882304827     -1.24152951701146     -0.00086807767724
| 40> H           4.73244049250843      0.31559854639130     -0.00029313441000
| 41> H           2.75218557093434      1.69979268676539      0.00055539249904
| 42> H           1.63531784817470     -1.98284589426942      0.00029190789491
| 43> *
| 44> 
| 45>                          ****END OF INPUT****
================================================================================

                       ****************************
                       * Single Point Calculation *
                       ****************************

---------------------------------
CARTESIAN COORDINATES (ANGSTROEM)
---------------------------------
  C      0.869303   -1.202619    0.000171
  C      1.237954    0.149760    0.000119
  C      0.208617    1.101787    0.000050
  C     -1.142665    0.752778   -0.000015
  C     -1.495101   -0.610918    0.000020
  C     -0.471348   -1.565605    0.000117
  H     -0.738258   -2.627595    0.000170
  C     -2.935614   -1.031998   -0.000033
  H     -3.030426   -2.129841    0.000054
  H     -3.472396   -0.646838   -0.886491
  H     -3.472501   -0.646689    0.886297
  C     -2.202612    1.816569   -0.000093
  H     -2.858256    1.738024    0.886480
  H     -2.858342    1.737827   -0.886582
  H     -1.756735    2.824244   -0.000221
  H      0.477474    2.164080    0.000025
  C      2.632247    0.608485    0.000127
  C      3.739488   -0.145919   -0.000362
  H      3.706459   -1.241530   -0.000868
  H      4.732440    0.315599   -0.000293
  H      2.752186    1.699793    0.000555
  H      1.635318   -1.982846    0.000292

----------------------------
CARTESIAN COORDINATES (A.U.)
----------------------------
  NO LB      ZA    FRAG     MASS         X           Y           Z
   0 C     6.0000    0    12.011    1.642744   -2.272620    0.000323
   1 C     6.0000    0    12.011    2.339393    0.283006    0.000225
   2 C     6.0000    0    12.011    0.394228    2.082076    0.000094
   3 C     6.0000    0    12.011   -2.159325    1.422545   -0.000028
   4 C     6.0000    0    12.011   -2.825332   -1.154468    0.000038
   5 C     6.0000    0    12.011   -0.890719   -2.958564    0.000220
   6 H     1.0000    0     1.008   -1.395105   -4.965435    0.000321
   7 C     6.0000    0    12.011   -5.547506   -1.950194   -0.000062
   8 H     1.0000    0     1.008   -5.726675   -4.024817    0.000102
   9 H     1.0000    0     1.008   -6.561877   -1.222347   -1.675224
  10 H     1.0000    0     1.008   -6.562075   -1.222065    1.674859
  11 C     6.0000    0    12.011   -4.162334    3.432819   -0.000175
  12 H     1.0000    0     1.008   -5.401322    3.284389    1.675205
  13 H     1.0000    0     1.008   -5.401483    3.284017   -1.675398
  14 H     1.0000    0     1.008   -3.319748    5.337048   -0.000418
  15 H     1.0000    0     1.008    0.902296    4.089518    0.000048
  16 C     6.0000    0    12.011    4.974226    1.149870    0.000240
  17 C     6.0000    0    12.011    7.066609   -0.275747   -0.000684
  18 H     1.0000    0     1.008    7.004192   -2.346151   -0.001640
  19 H     1.0000    0     1.008    8.943016    0.596395   -0.000554
  20 H     1.0000    0     1.008    5.200877    3.212143    0.001050
  21 H     1.0000    0     1.008    3.090303   -3.747036    0.000552

--------------------------------
INTERNAL COORDINATES (ANGSTROEM)
--------------------------------
 C      0   0   0     0.000000000000     0.00000000     0.00000000
 C      1   0   0     1.401724928943     0.00000000     0.00000000
 C      2   1   0     1.402101850394   117.51749644     0.00000000
 C      3   2   1     1.395625501951   122.75260751     0.00000000
 C      4   3   2     1.408502482356   118.97241173     0.00000000
 C      1   2   3     1.388921553968   120.39784818     0.00000000
 H      6   1   2     1.095017866502   119.25773116   180.00066056
 C      5   4   3     1.500794335748   120.78485466   179.99935091
 H      8   5   4     1.101929604848   111.23026307   180.00275406
 H      8   5   4     1.105572776129   111.61110090    59.58647879
 H      8   5   4     1.105572959166   111.61091166   300.41892947
 C      4   3   2     1.501712117445   120.41441708   180.00023363
 H     12   4   3     1.105463677991   111.60755506   239.61447692
 H     12   4   3     1.105461693719   111.60829227   120.40134415
 H     12   4   3     1.101913829557   111.23523256     0.00000000
 H      3   2   1     1.095787384456   118.56267614   179.99898935
 C      2   1   3     1.467815339854   123.45931827   180.00027146
 C     17   2   1     1.339816952362   127.52068912     0.02937245
 H     18  17   2     1.096108422808   122.54124025     0.00000000
 H     18  17   2     1.094966717658   120.80327959   180.00018875
 H     17   2   1     1.097878943189   114.48312687   180.02718223
 H      1   2   3     1.093404615744   120.27857021   180.00402382

---------------------------
INTERNAL COORDINATES (A.U.)
---------------------------
 C      0   0   0     0.000000000000     0.00000000     0.00000000
 C      1   0   0     2.648876230793     0.00000000     0.00000000
 C      2   1   0     2.649588509109   117.51749644     0.00000000
 C      3   2   1     2.637349984204   122.75260751     0.00000000
 C      4   3   2     2.661683950602   118.97241173     0.00000000
 C      1   2   3     2.624681358499   120.39784818     0.00000000
 H      6   1   2     2.069283879440   119.25773116   180.00066056
 C      5   4   3     2.836090277904   120.78485466   179.99935091
 H      8   5   4     2.082345172023   111.23026307   180.00275406
 H      8   5   4     2.089229768002   111.61110090    59.58647879
 H      8   5   4     2.089230113893   111.61091166   300.41892947
 C      4   3   2     2.837824633962   120.41441708   180.00023363
 H     12   4   3     2.089023602400   111.60755506   239.61447692
 H     12   4   3     2.089019852669   111.60829227   120.40134415
 H     12   4   3     2.082315361043   111.23523256     0.00000000
 H      3   2   1     2.070738057628   118.56267614   179.99898935
 C      2   1   3     2.773769007493   123.45931827   180.00027146
 C     17   2   1     2.531887109549   127.52068912     0.02937245
 H     18  17   2     2.071344732192   122.54124025     0.00000000
 H     18  17   2     2.069187222133   120.80327959   180.00018875
 H     17   2   1     2.074690530826   114.48312687   180.02718223
 H      1   2   3     2.066235277322   120.27857021   180.00402382

---------------------
BASIS SET INFORMATION
---------------------
There are 2 groups of distinct atoms

 Group   1 Type C   : 19s6p3d2f contracted to 5s4p3d2f pattern {88111/3111/111/11}
 Group   2 Type H   : 6s3p2d contracted to 4s3p2d pattern {3111/111/11}

Atom   0C    basis set group =>   1
Atom   1C    basis set group =>   1
Atom   2C    basis set group =>   1
Atom   3C    basis set group =>   1
Atom   4C    basis set group =>   1
Atom   5C    basis set group =>   1
Atom   6H    basis set group =>   2
Atom   7C    basis set group =>   1
Atom   8H    basis set group =>   2
Atom   9H    basis set group =>   2
Atom  10H    basis set group =>   2
Atom  11C    basis set group =>   1
Atom  12H    basis set group =>   2
Atom  13H    basis set group =>   2
Atom  14H    basis set group =>   2
Atom  15H    basis set group =>   2
Atom  16C    basis set group =>   1
Atom  17C    basis set group =>   1
Atom  18H    basis set group =>   2
Atom  19H    basis set group =>   2
Atom  20H    basis set group =>   2
Atom  21H    basis set group =>   2
---------------------------------
AUXILIARY/J BASIS SET INFORMATION
---------------------------------
There are 2 groups of distinct atoms

 Group   1 Type C   : 12s5p4d2f1g contracted to 6s4p3d1f1g pattern {711111/2111/211/2/1}
 Group   2 Type H   : 5s2p1d contracted to 3s1p1d pattern {311/2/1}

Atom   0C    basis set group =>   1
Atom   1C    basis set group =>   1
Atom   2C    basis set group =>   1
Atom   3C    basis set group =>   1
Atom   4C    basis set group =>   1
Atom   5C    basis set group =>   1
Atom   6H    basis set group =>   2
Atom   7C    basis set group =>   1
Atom   8H    basis set group =>   2
Atom   9H    basis set group =>   2
Atom  10H    basis set group =>   2
Atom  11C    basis set group =>   1
Atom  12H    basis set group =>   2
Atom  13H    basis set group =>   2
Atom  14H    basis set group =>   2
Atom  15H    basis set group =>   2
Atom  16C    basis set group =>   1
Atom  17C    basis set group =>   1
Atom  18H    basis set group =>   2
Atom  19H    basis set group =>   2
Atom  20H    basis set group =>   2
Atom  21H    basis set group =>   2


           ************************************************************
           *        Program running with 4 parallel MPI-processes     *
           *              working on a common directory               *
           ************************************************************
------------------------------------------------------------------------------
                             ORCA STARTUP CALCULATIONS
                           -- RI-GTO INTEGRALS CHOSEN --
------------------------------------------------------------------------------
------------------------------------------------------------------------------
                   ___                                                        
                  /   \      - P O W E R E D   B Y -                         
                 /     \                                                     
                 |  |  |   _    _      __       _____    __    __             
                 |  |  |  | |  | |    /  \     |  _  \  |  |  /  |          
                  \  \/   | |  | |   /    \    | | | |  |  | /  /          
                 / \  \   | |__| |  /  /\  \   | |_| |  |  |/  /          
                |  |  |   |  __  | /  /__\  \  |    /   |      \           
                |  |  |   | |  | | |   __   |  |    \   |  |\   \          
                \     /   | |  | | |  |  |  |  | |\  \  |  | \   \       
                 \___/    |_|  |_| |__|  |__|  |_| \__\ |__|  \__/        
                                                                              
                      - O R C A' S   B I G   F R I E N D -                    
                                      &                                       
                       - I N T E G R A L  F E E D E R -                       
                                                                              
 v1 FN, 2020, v2 2021, v3 2022-2024                                           
------------------------------------------------------------------------------


----------------------
SHARK INTEGRAL PACKAGE
----------------------

Number of atoms                             ...     22
Number of basis functions                   ...    796
Number of shells                            ...    308
Maximum angular momentum                    ...      3
Integral batch strategy                     ... SHARK/LIBINT Hybrid
RI-J (if used) integral strategy            ... SPLIT-RIJ (Revised 2003 algorithm where possible)
Printlevel                                  ...      1
Contraction scheme used                     ... PARTIAL GENERAL contraction
Prescreening option                         ... SCHWARTZ
   Thresh                                   ... 2.500e-11
   Tcut                                     ... 2.500e-12
   Tpresel                                  ... 2.500e-12 
Coulomb Range Separation                    ... NOT USED
Exchange Range Separation                   ... NOT USED
Multipole approximations                    ... NOT USED
Finite Nucleus Model                        ... NOT USED
CABS basis                                  ... NOT available
Auxiliary Coulomb fitting basis             ... AVAILABLE
   # of basis functions in Aux-J            ...    622
   # of shells in Aux-J                     ...    210
   Maximum angular momentum in Aux-J        ...      4
Auxiliary J/K fitting basis                 ... NOT available
Auxiliary Correlation fitting basis         ... NOT available
Auxiliary 'external' fitting basis          ... NOT available

Checking pre-screening integrals            ... done (  0.0 sec) Dimension = 308
Save PGC pre-screening integrals            ... done (  0.0 sec) Dimension = 308
Calculate PGC overlap integrals             ... done (  0.1 sec) Dimension = 248
Calculating pre-screening integrals (ORCA)  ... done (  0.3 sec) Dimension = 248
Check shell pair data                       ... done (  0.0 sec)
Shell pair information
Shell pair cut-off parameter TPreSel        ...   2.5e-12
Total number of shell pairs                 ...     47586
Shell pairs after pre-screening             ...     39494
Total number of primitive shell pairs       ...     62194
Primitive shell pairs kept                  ...     47582
          la=0 lb=0:   8977 shell pairs
          la=1 lb=0:  10183 shell pairs
          la=1 lb=1:   2682 shell pairs
          la=2 lb=0:   7130 shell pairs
          la=2 lb=1:   3723 shell pairs
          la=2 lb=2:   1333 shell pairs
          la=3 lb=0:   2805 shell pairs
          la=3 lb=1:   1433 shell pairs
          la=3 lb=2:   1022 shell pairs
          la=3 lb=3:    206 shell pairs

Calculating one electron integrals          ... done (  0.1 sec)
Calculating RI/J V-Matrix + Cholesky decomp.... done (  0.1 sec)
Calculating Nuclear repulsion               ... done (  0.0 sec) ENN=    480.307251340394 Eh

Diagonalization of the overlap matrix:
Smallest eigenvalue                        ... 3.630e-07
Time for diagonalization                   ...    0.171 sec
Threshold for overlap eigenvalues          ... 1.000e-07
Number of eigenvalues below threshold      ... 0

IMPORTANT:
Smallest eigenvalue of S below the DiffSThresh (1.000e-06) while
Thresh>1e-12 and/or TCut>1e-13! In order to avoid SCF convergence issues,
Thresh will be set to at least 1e-12 and TCut to at least 1e-13.
This can be turned off by adding %SCF DiffSThresh -1 END to the input.

Time for construction of square roots      ...    0.117 sec
Total time needed                          ...    0.368 sec

-------------------
DFT GRID GENERATION
-------------------

General Integration Accuracy     IntAcc      ... 4.388
Radial Grid Type                 RadialGrid  ... OptM3 with GC (2021)
Angular Grid (max. ang.)         AngularGrid ... 4 (Lebedev-302)
Angular grid pruning method      GridPruning ... 4 (adaptive)
Weight generation scheme         WeightScheme... mBecke (2022)
Basis function cutoff            BFCut       ... 1.0000e-11
Integration weight cutoff        WCut        ... 1.0000e-14
Partially contracted basis set               ... off
Rotationally invariant grid construction     ... off
Angular grids for H and He will be reduced by one unit
Diffuse basis detected: some atoms will have their outermost
                        angular grid increased by 1.

Total number of grid points                  ...   103186
Total number of batches                      ...     1623
Average number of points per batch           ...       63
Average number of grid points per atom       ...     4690

---------------------
SHARK GRID GENERATION
---------------------

General Integration Accuracy     IntAcc      ... 4.388
Radial Grid Type                 RadialGrid  ... OptM3 with GC (2021)
Angular Grid (max. ang.)         AngularGrid ... 4 (Lebedev-302)
Angular grid pruning method      GridPruning ... 4 (adaptive)
Weight generation scheme         WeightScheme... mBecke (2022)
Basis function cutoff            BFCut       ... 1.0000e-11
Integration weight cutoff        WCut        ... 1.0000e-14
Partially contracted basis set               ... off
Rotationally invariant grid construction     ... off
Angular grids for H and He will be reduced by one unit
Diffuse basis detected: some atoms will have their outermost
                        angular grid increased by 1.
Steep s-basis detected: some atoms will have their radial
                        grid points doubled.

Total number of grid points                  ...   165894
Total number of batches                      ...     2603
Average number of points per batch           ...       63
Average number of grid points per atom       ...     7541

--------------------
COSX GRID GENERATION
--------------------

GRIDX 1
-------
General Integration Accuracy     IntAcc      ... 3.816
Radial Grid Type                 RadialGrid  ... OptM3 with GC (2021)
Angular Grid (max. ang.)         AngularGrid ... 1 (Lebedev-50)
Angular grid pruning method      GridPruning ... 4 (adaptive)
Weight generation scheme         WeightScheme... mBecke (2022)
Basis function cutoff            BFCut       ... 1.0000e-11
Integration weight cutoff        WCut        ... 1.0000e-14
Partially contracted basis set               ... on
Rotationally invariant grid construction     ... off
Angular grids for H and He will be reduced by one unit
Diffuse basis detected: some atoms will have their outermost
                        angular grid increased by 1.

Total number of grid points                  ...    12913
Total number of batches                      ...      114
Average number of points per batch           ...      113
Average number of grid points per atom       ...      587
UseSFitting                                  ... on

GRIDX 2
-------
General Integration Accuracy     IntAcc      ... 4.020
Radial Grid Type                 RadialGrid  ... OptM3 with GC (2021)
Angular Grid (max. ang.)         AngularGrid ... 2 (Lebedev-110)
Angular grid pruning method      GridPruning ... 4 (adaptive)
Weight generation scheme         WeightScheme... mBecke (2022)
Basis function cutoff            BFCut       ... 1.0000e-11
Integration weight cutoff        WCut        ... 1.0000e-14
Partially contracted basis set               ... on
Rotationally invariant grid construction     ... off
Angular grids for H and He will be reduced by one unit
Diffuse basis detected: some atoms will have their outermost
                        angular grid increased by 1.

Total number of grid points                  ...    30643
Total number of batches                      ...      250
Average number of points per batch           ...      122
Average number of grid points per atom       ...     1393
UseSFitting                                  ... on

GRIDX 3
-------
General Integration Accuracy     IntAcc      ... 4.338
Radial Grid Type                 RadialGrid  ... OptM3 with GC (2021)
Angular Grid (max. ang.)         AngularGrid ... 3 (Lebedev-194)
Angular grid pruning method      GridPruning ... 4 (adaptive)
Weight generation scheme         WeightScheme... mBecke (2022)
Basis function cutoff            BFCut       ... 1.0000e-11
Integration weight cutoff        WCut        ... 1.0000e-14
Partially contracted basis set               ... on
Rotationally invariant grid construction     ... off
Angular grids for H and He will be reduced by one unit
Diffuse basis detected: some atoms will have their outermost
                        angular grid increased by 1.

Total number of grid points                  ...    68275
Total number of batches                      ...      545
Average number of points per batch           ...      125
Average number of grid points per atom       ...     3103
UseSFitting                                  ... on
Initializing property integral containers    ... done (  0.0 sec)

SHARK setup successfully completed in  11.7 seconds

Maximum memory used throughout the entire STARTUP-calculation: 92.3 MB


           ************************************************************
           *        Program running with 4 parallel MPI-processes     *
           *              working on a common directory               *
           ************************************************************
-------------------------------------------------------------------------------
                                 ORCA GUESS
                   Start orbitals & Density for SCF / CASSCF
-------------------------------------------------------------------------------

------------
SCF SETTINGS
------------
Hamiltonian:
 Density Functional     Method          .... DFT(GTOs)
  Functional kind                       .... Exchange
  Functional name                       .... Re-regularized SCAN exchange by Furness et al
  Functional family                     .... MGGA
  Functional refs                              
    [ 0] J. W. Furness, A. D. Kaplan, J. Ning, J. P. Perdew, and J. Sun.,  J. Phys. Chem. Lett. 11, 8208-8215 (2020), doi: 10.1021/acs.jpclett.0c02405
    [ 1] J. W. Furness, A. D. Kaplan, J. Ning, J. P. Perdew, and J. Sun.,  J. Phys. Chem. Lett. 11, 9248-9248 (2020), doi: 10.1021/acs.jpclett.0c03077
  Functional external parameters        .... 6
    Parameter  0 _c1        =  6.670000e-01 : c1 parameter        
    Parameter  1 _c2        =  8.000000e-01 : c2 parameter        
    Parameter  2 _d         =  1.240000e+00 : d parameter         
    Parameter  3 _k1        =  6.500000e-02 : k1 parameter        
    Parameter  4 _eta       =  1.000000e-03 : eta parameter       
    Parameter  5 _dp2       =  3.610000e-01 : dp2 parameter       
  Functional kind                       .... Correlation
  Functional name                       .... Re-regularized SCAN correlation by Furness et al
  Functional family                     .... MGGA
  Functional refs                              
    [ 0] J. W. Furness, A. D. Kaplan, J. Ning, J. P. Perdew, and J. Sun.,  J. Phys. Chem. Lett. 11, 8208-8215 (2020), doi: 10.1021/acs.jpclett.0c02405
    [ 1] J. W. Furness, A. D. Kaplan, J. Ning, J. P. Perdew, and J. Sun.,  J. Phys. Chem. Lett. 11, 9248-9248 (2020), doi: 10.1021/acs.jpclett.0c03077
  Functional external parameters        .... 1
    Parameter  0 _eta       =  1.000000e-03 : Regularization parameter
 Gradients option       PostSCFGGA      .... off
 Hybrid DFT is turned on
   Fraction HF Exchange ScalHFX         ....  0.100000
   Scaling of DF-GGA-X  ScalDFX         ....  0.900000
   Scaling of DF-GGA-C  ScalDFC         ....  1.000000
   Scaling of DF-LDA-C  ScalLDAC        ....  1.000000
   Perturbative correction              ....  0.000000
   NL short-range parameter             .... 11.900000
 RI-approximation to the Coulomb term is turned on
   Number of AuxJ basis functions       .... 622
   RIJ-COSX (HFX calculated with COS-X)).... on


General Settings:
 Integral files         IntName         .... cs_rporg_009_red_solv_04
 Hartree-Fock type      HFTyp           .... RHF
 Total Charge           Charge          ....    0
 Multiplicity           Mult            ....    1
 Number of Electrons    NEL             ....   72
 Basis Dimension        Dim             ....  736
 Nuclear Repulsion      ENuc            ....    480.3072513404 Eh

Convergence Acceleration:
 AO-DIIS                CNVDIIS         .... on
   Start iteration      DIISMaxIt       ....     0
   Startup error        DIISStart       ....  0.200000
   # of expansion vecs  DIISMaxEq       ....     5
   Bias factor          DIISBfac        ....   1.050
   Max. coefficient     DIISMaxC        ....  10.000
 MO-DIIS                CNVKDIIS        .... off
 Trust-Rad. Augm. Hess. CNVTRAH         .... auto
   Auto Start mean grad. ratio tolernc. ....  1.125000
   Auto Start start iteration           ....    50
   Auto Start num. interpolation iter.  ....    10
   Max. Number of Micro iterations      ....    24
   Max. Number of Macro iterations      .... Maxiter - #DIIS iter
   Number of Davidson start vectors     ....     2
   Converg. threshold    (grad. norm)   ....   1.000e-05
   Grad. Scal. Fac. for Micro threshold ....   0.100
   Minimum threshold for Micro iter.    ....   1.000e-02
   NR start threshold (gradient norm)   ....   1.000e-04
   Initial trust radius                 ....   0.400
   Minimum AH scaling param. (alpha)    ....   1.000
   Maximum AH scaling param. (alpha)    .... 1000.000
   Quad. conv. algorithm                .... NR
   White noise on init. David. guess    .... on
   Maximum white noise                  ....   0.010
   Pseudo random numbers                .... off
   Inactive MOs                         .... canonical
   Orbital update algorithm             .... Taylor
   Preconditioner                       .... Diag
   Full preconditioner red. dimension   ....   250
 SOSCF                  CNVSOSCF        .... on
   Start iteration      SOSCFMaxIt      ....   150
   Startup grad/error   SOSCFStart      ....  0.001000
   Hessian update       SOSCFHessUp     .... L-BFGS
 Level Shifting         CNVShift        .... on
   Level shift para.    LevelShift      ....    0.2500
   Turn off err/grad.   ShiftErr        ....    0.0000
 Zerner damping         CNVZerner       .... off
 Static damping         CNVDamp         .... on
   Fraction old density DampFac         ....    0.8500
   Max. Damping (<1)    DampMax         ....    0.9800
   Min. Damping (>=0)   DampMin         ....    0.0000
   Turn off err/grad.   DampErr         ....    0.0300

SCF Procedure:
 Maximum # iterations   MaxIter         ....  1500
 SCF integral mode      SCFMode         .... Direct
   Integral package                     .... SHARK and LIBINT hybrid scheme
 Reset frequency        DirectResetFreq ....    20
 Integral Threshold     Thresh          ....  1.000e-12 Eh
 Primitive CutOff       TCut            ....  1.000e-13 Eh

Convergence Tolerance:
 Convergence Check Mode ConvCheckMode   .... Total+1el-Energy
 Convergence forced     ConvForced      .... 0
 Energy Change          TolE            ....  1.000e-08 Eh
 1-El. energy change                    ....  1.000e-05 Eh
 Orbital Gradient       TolG            ....  1.000e-05
 Orbital Rotation angle TolX            ....  1.000e-05
 DIIS Error             TolErr          ....  5.000e-07

------------------------------
INITIAL GUESS: MODEL POTENTIAL
------------------------------
Loading Hartree-Fock densities                     ... done
Calculating cut-offs                               ... done
Initializing the effective Hamiltonian             ... done
Setting up the integral package (SHARK)            ... done
Starting the Coulomb interaction                   ... done (   1.0 sec)
Making the grid                                    ... done (   0.5 sec)
Mapping shells                                     ... done
Starting the XC term evaluation                    ... done (   1.1 sec)
  promolecular density results
     # of electrons  =     72.001216389
     EX              =    -54.639139711
     EC              =     -2.354553715
     EX+EC           =    -56.993693426
Transforming the Hamiltonian                       ... done (   0.1 sec)
Diagonalizing the Hamiltonian                      ... done (   0.2 sec)
Back transforming the eigenvectors                 ... done (   0.1 sec)
Now organizing SCF variables                       ... done
                      ------------------
                      INITIAL GUESS DONE (   3.1 sec)
                      ------------------
             **** ENERGY FILE WAS UPDATED (cs_rporg_009_red_solv_04.en.tmp) ****
Finished Guess after   3.9 sec
Maximum memory used throughout the entire GUESS-calculation: 70.5 MB


           ************************************************************
           *        Program running with 4 parallel MPI-processes     *
           *              working on a common directory               *
           ************************************************************

-------------------------------------------------------------------------------------------
                                      ORCA LEAN-SCF
                              memory conserving SCF solver
-------------------------------------------------------------------------------------------

--------------------
CPCM SOLVATION MODEL
--------------------
CPCM parameters:
  Epsilon                                         ...      35.6880
  Refrac                                          ...       1.3442
  Rsolv                                           ...       2.1900
  Surface type                                    ...    GEPOL SES
  Discretization scheme                           ... Constant num. charges
  Epsilon function type                           ...         CPCM
Solvent:                                          ... ACETONITRILE
SMD-CDS solvent descriptors:
  Soln                                            ...       1.3442
  Soln25                                          ...       1.3416
  Sola                                            ...       0.0700
  Solb                                            ...       0.3200
  Solg                                            ...      41.2500
  Solc                                            ...       0.0000
  Solh                                            ...       0.0000
Radii:
  Scheme                                          ... Element-dependent radii
  Radius for C  used is    3.4960 Bohr (=   1.8500 Ang.)
  Radius for H  used is    2.2677 Bohr (=   1.2000 Ang.)
Calculating surface                               ...        done! (  0.1s)
Cavity surface points                             ...          860
Cavity Volume                                     ...    1115.0454
Cavity Surface-area                               ...     638.9880
Calculating surface distance matrix               ...        done! (  0.0s)
Performing Cholesky decomposition & store         ...        done! (  0.0s)
Overall time for CPCM initialization              ...                 0.1s

----------------------------------------D-I-I-S--------------------------------------------
Iteration    Energy (Eh)           Delta-E    RMSDP     MaxDP     DIISErr   Damp  Time(sec)
-------------------------------------------------------------------------------------------
               ***  Starting incremental Fock matrix formation  ***
    1    -387.9199184428068179     0.00e+00  1.55e-03  1.33e-01  1.88e-01  0.850  36.6
    2    -387.9804992615855213    -6.06e-02  1.41e-03  1.11e-01  1.44e-01  0.850  22.2
                               ***Turning on AO-DIIS***
    3    -388.0235903979861973    -4.31e-02  1.07e-03  8.34e-02  1.03e-01  0.850  22.1
    4    -388.0526270249527556    -2.90e-02  8.84e-04  6.81e-02  8.24e-02  0.850  21.5
    5    -388.0739414744317060    -2.13e-02  7.45e-04  5.67e-02  6.86e-02  0.850  21.7
    6    -388.0906255004416039    -1.67e-02  6.30e-04  4.83e-02  5.79e-02  0.850  21.3
    7    -388.1041508915600957    -1.35e-02  5.34e-04  4.13e-02  4.89e-02  0.850  21.0
    8    -388.1152561175640017    -1.11e-02  4.51e-04  3.50e-02  4.10e-02  0.850  21.2
    9    -388.1244006577554160    -9.14e-03  3.82e-04  2.95e-02  3.44e-02  0.850  20.9
   10    -388.1319515270342322    -7.55e-03  3.23e-04  2.49e-02  2.89e-02  0.850  20.8
   11    -388.1382101344470925    -6.26e-03  1.82e-03  1.40e-01  2.43e-02  0.000  20.8
   12    -388.1711503786265780    -3.29e-02  5.04e-05  3.49e-03  1.64e-03  0.000  21.8
                              *** Initializing SOSCF ***
---------------------------------------S-O-S-C-F--------------------------------------
Iteration    Energy (Eh)           Delta-E    RMSDP     MaxDP     MaxGrad    Time(sec)
--------------------------------------------------------------------------------------
   13    -388.1711711371801243    -2.08e-05  1.56e-05  1.62e-03  2.28e-04    20.1
               *** Restarting incremental Fock matrix formation ***
   14    -388.1711771968284097    -6.06e-06  4.01e-04  1.86e-02  2.06e-05    36.8
   15    -388.1711772717746385    -7.49e-08  7.14e-05  3.78e-03  3.07e-05    30.8
   16    -388.1711773417430891    -7.00e-08  7.77e-05  4.16e-03  1.65e-05    28.9
   17    -388.1711773502950678    -8.55e-09  4.01e-06  2.62e-04  1.28e-05    28.7
                 **** Energy Check signals convergence ****

               *****************************************************
               *                     SUCCESS                       *
               *           SCF CONVERGED AFTER  17 CYCLES          *
               *****************************************************

Recomputing exchange energy using gridx3       ... done (   52.257 sec)
Old exchange energy                            :     -5.606920956 Eh
New exchange energy                            :     -5.606902079 Eh
Exchange energy change after final integration :      0.000018877 Eh
Total energy after final integration           :   -388.171158473 Eh

SMD CDS free energy correction energy :                -1.84471     Kcal/mol
Total Energy after SMD CDS correction =              -388.174098203 Eh
             **** ENERGY FILE WAS UPDATED (cs_rporg_009_red_solv_04.en.tmp) ****

----------------
TOTAL SCF ENERGY
----------------

Total Energy       :       -388.17409820299707 Eh          -10562.75421 eV

Components:
Nuclear Repulsion  :        480.30725134039409 Eh           13069.82477 eV
Electronic Energy  :       -868.46842970279761 Eh          -23632.22741 eV
One Electron Energy:      -1474.40073831345239 Eh          -40120.48378 eV
Two Electron Energy:        605.93230861065479 Eh           16488.25636 eV
CPCM Dielectric    :         -0.00999898789158 Eh              -0.27209 eV
SMD CDS (Gcds)     :         -0.00293972979916 Eh              -0.07999 eV

Virial components:
Potential Energy   :       -773.90111132374705 Eh          -21058.91985 eV
Kinetic Energy     :        385.72701312075003 Eh           10496.16564 eV
Virial Ratio       :          2.00634408532202

DFT components:
N(Alpha)           :       36.000127504667 electrons
N(Beta)            :       36.000127504667 electrons
N(Total)           :       72.000255009334 electrons
E(X)               :      -50.610778378937 Eh       
E(C)               :       -2.277364082345 Eh       
E(XC)              :      -52.888142461283 Eh       

CPCM Solvation Model Properties:
Surface-charge          :         -0.05107715419259
Corrected charge        :         -0.00000000000000
Outlying charge corr.   :          0.00018115130460 Eh               0.00493 eV
Free-energy (cav+disp)  :         -0.00293972979916 Eh              -0.07999 eV

---------------
SCF CONVERGENCE
---------------

  Last Energy change         ...    8.5520e-09  Tolerance :   1.0000e-08
  Last MAX-Density change    ...    2.6201e-04  Tolerance :   1.0000e-07
  Last RMS-Density change    ...    4.0072e-06  Tolerance :   5.0000e-09
  Last DIIS Error            ...    2.2811e-04  Tolerance :   5.0000e-07
  Last Orbital Gradient      ...    1.2773e-05  Tolerance :   1.0000e-05
  Last Orbital Rotation      ...    2.0828e-05  Tolerance :   1.0000e-05


----------------
ORBITAL ENERGIES
----------------

  NO   OCC          E(Eh)            E(eV) 
   0   2.0000     -10.168525      -276.6996 
   1   2.0000     -10.167786      -276.6795 
   2   2.0000     -10.167302      -276.6663 
   3   2.0000     -10.164829      -276.5991 
   4   2.0000     -10.157091      -276.3885 
   5   2.0000     -10.156492      -276.3722 
   6   2.0000     -10.156170      -276.3634 
   7   2.0000     -10.150939      -276.2211 
   8   2.0000     -10.147152      -276.1180 
   9   2.0000     -10.146976      -276.1133 
  10   2.0000      -0.866273       -23.5725 
  11   2.0000      -0.801791       -21.8178 
  12   2.0000      -0.763117       -20.7655 
  13   2.0000      -0.744286       -20.2531 
  14   2.0000      -0.692294       -18.8383 
  15   2.0000      -0.663954       -18.0671 
  16   2.0000      -0.596486       -16.2312 
  17   2.0000      -0.590346       -16.0641 
  18   2.0000      -0.532971       -14.5029 
  19   2.0000      -0.487011       -13.2523 
  20   2.0000      -0.469601       -12.7785 
  21   2.0000      -0.438266       -11.9258 
  22   2.0000      -0.421992       -11.4830 
  23   2.0000      -0.417547       -11.3620 
  24   2.0000      -0.401888       -10.9359 
  25   2.0000      -0.394554       -10.7364 
  26   2.0000      -0.381777       -10.3887 
  27   2.0000      -0.367539       -10.0012 
  28   2.0000      -0.366274        -9.9668 
  29   2.0000      -0.359775        -9.7900 
  30   2.0000      -0.345318        -9.3966 
  31   2.0000      -0.322566        -8.7775 
  32   2.0000      -0.316124        -8.6022 
  33   2.0000      -0.289882        -7.8881 
  34   2.0000      -0.244983        -6.6663 
  35   2.0000      -0.217736        -5.9249 
  36   0.0000      -0.054090        -1.4719 
  37   0.0000      -0.021336        -0.5806 
  38   0.0000       0.009698         0.2639 
  39   0.0000       0.019803         0.5389 
  40   0.0000       0.023485         0.6391 
  41   0.0000       0.032005         0.8709 
  42   0.0000       0.036979         1.0063 
  43   0.0000       0.037789         1.0283 
  44   0.0000       0.039530         1.0757 
  45   0.0000       0.047127         1.2824 
  46   0.0000       0.056683         1.5424 
*Only the first 10 virtual orbitals were printed.

                    ********************************
                    * MULLIKEN POPULATION ANALYSIS *
                    ********************************

-----------------------
MULLIKEN ATOMIC CHARGES
-----------------------
   0 C :   -0.288713
   1 C :    2.182852
   2 C :   -1.250309
   3 C :    0.823830
   4 C :    1.023583
   5 C :   -1.264577
   6 H :   -0.036400
   7 C :   -0.792384
   8 H :    0.090830
   9 H :    0.209603
  10 H :    0.209144
  11 C :   -0.781855
  12 H :    0.208043
  13 H :    0.207282
  14 H :    0.097409
  15 H :   -0.388020
  16 C :    0.083756
  17 C :   -0.964493
  18 H :    0.187201
  19 H :    0.301341
  20 H :    0.054069
  21 H :    0.087806
Sum of atomic charges:    0.0000000

--------------------------------
MULLIKEN REDUCED ORBITAL CHARGES
--------------------------------
  0 C s       :     3.963406  s :     3.963406
      pz      :     0.977506  p :     2.422906
      px      :     0.557644
      py      :     0.887756
      dz2     :    -0.026062  d :    -0.073596
      dxz     :     0.025389
      dyz     :    -0.005471
      dx2y2   :    -0.100141
      dxy     :     0.032688
      f0      :     0.000716  f :    -0.024004
      f+1     :     0.001190
      f-1     :    -0.000300
      f+2     :    -0.000781
      f-2     :     0.000021
      f+3     :    -0.015488
      f-3     :    -0.009363

  1 C s       :     2.729170  s :     2.729170
      pz      :     0.982831  p :     1.528250
      px      :     0.185821
      py      :     0.359598
      dz2     :    -0.020447  d :    -0.327365
      dxz     :    -0.035529
      dyz     :    -0.000976
      dx2y2   :     0.042509
      dxy     :    -0.312921
      f0      :     0.001216  f :    -0.112907
      f+1     :    -0.003587
      f-1     :    -0.001210
      f+2     :    -0.001387
      f-2     :    -0.001287
      f+3     :    -0.075404
      f-3     :    -0.031248

  2 C s       :     4.517938  s :     4.517938
      pz      :     1.010516  p :     2.581110
      px      :     0.771546
      py      :     0.799049
      dz2     :    -0.010148  d :     0.174832
      dxz     :     0.000777
      dyz     :     0.008328
      dx2y2   :     0.103064
      dxy     :     0.072810
      f0      :     0.000793  f :    -0.023571
      f+1     :    -0.000520
      f-1     :    -0.000407
      f+2     :    -0.000779
      f-2     :    -0.001377
      f+3     :    -0.015439
      f-3     :    -0.005840

  3 C s       :     3.001274  s :     3.001274
      pz      :     0.934409  p :     2.091900
      px      :     0.218112
      py      :     0.939379
      dz2     :    -0.003300  d :     0.179024
      dxz     :    -0.020551
      dyz     :     0.008036
      dx2y2   :     0.146699
      dxy     :     0.048141
      f0      :    -0.000676  f :    -0.096027
      f+1     :    -0.000905
      f-1     :    -0.000830
      f+2     :    -0.003637
      f-2     :    -0.005156
      f+3     :    -0.041898
      f-3     :    -0.042926

  4 C s       :     3.153353  s :     3.153353
      pz      :     0.938262  p :     2.060932
      px      :     0.236691
      py      :     0.885980
      dz2     :    -0.038544  d :    -0.148591
      dxz     :    -0.015774
      dyz     :     0.010855
      dx2y2   :    -0.092571
      dxy     :    -0.012558
      f0      :    -0.000774  f :    -0.089277
      f+1     :    -0.002519
      f-1     :     0.000464
      f+2     :    -0.004735
      f-2     :    -0.003449
      f+3     :    -0.041610
      f-3     :    -0.036654

  5 C s       :     4.156005  s :     4.156005
      pz      :     1.002849  p :     2.813556
      px      :     0.890417
      py      :     0.920290
      dz2     :     0.016731  d :     0.317435
      dxz     :     0.014945
      dyz     :     0.028156
      dx2y2   :     0.154377
      dxy     :     0.103227
      f0      :     0.000886  f :    -0.022420
      f+1     :    -0.000391
      f-1     :     0.000109
      f+2     :    -0.000500
      f-2     :    -0.001084
      f+3     :    -0.008120
      f-3     :    -0.013320

  6 H s       :     0.959092  s :     0.959092
      pz      :     0.028549  p :     0.069425
      px      :     0.018828
      py      :     0.022048
      dz2     :    -0.000394  d :     0.007884
      dxz     :     0.000040
      dyz     :     0.005048
      dx2y2   :     0.001604
      dxy     :     0.001586

  7 C s       :     3.644060  s :     3.644060
      pz      :     1.118236  p :     3.100884
      px      :     0.898672
      py      :     1.083977
      dz2     :     0.012915  d :     0.036892
      dxz     :     0.019576
      dyz     :     0.010579
      dx2y2   :     0.000467
      dxy     :    -0.006645
      f0      :     0.003072  f :     0.010548
      f+1     :    -0.000436
      f-1     :     0.001033
      f+2     :     0.000802
      f-2     :     0.001568
      f+3     :     0.002864
      f-3     :     0.001646

  8 H s       :     0.863314  s :     0.863314
      pz      :     0.015464  p :     0.036316
      px      :     0.004804
      py      :     0.016048
      dz2     :     0.000451  d :     0.009541
      dxz     :     0.000570
      dyz     :     0.003484
      dx2y2   :    -0.000316
      dxy     :     0.005352

  9 H s       :     0.740196  s :     0.740196
      pz      :     0.009703  p :     0.042936
      px      :     0.025770
      py      :     0.007464
      dz2     :     0.002448  d :     0.007264
      dxz     :     0.001457
      dyz     :     0.000786
      dx2y2   :     0.002746
      dxy     :    -0.000173

 10 H s       :     0.740623  s :     0.740623
      pz      :     0.009682  p :     0.042958
      px      :     0.025745
      py      :     0.007531
      dz2     :     0.002461  d :     0.007275
      dxz     :     0.001452
      dyz     :     0.000783
      dx2y2   :     0.002757
      dxy     :    -0.000179

 11 C s       :     3.622689  s :     3.622689
      pz      :     1.117201  p :     3.110987
      px      :     1.011388
      py      :     0.982398
      dz2     :     0.019013  d :     0.037357
      dxz     :     0.032505
      dyz     :    -0.002058
      dx2y2   :    -0.015536
      dxy     :     0.003433
      f0      :     0.003079  f :     0.010821
      f+1     :     0.001048
      f-1     :    -0.000651
      f+2     :     0.000433
      f-2     :     0.001666
      f+3     :     0.002214
      f-3     :     0.003032

 12 H s       :     0.745762  s :     0.745762
      pz      :     0.008750  p :     0.038633
      px      :     0.020932
      py      :     0.008952
      dz2     :     0.002389  d :     0.007562
      dxz     :     0.000577
      dyz     :     0.001818
      dx2y2   :     0.000643
      dxy     :     0.002135

 13 H s       :     0.746348  s :     0.746348
      pz      :     0.008800  p :     0.038794
      px      :     0.020974
      py      :     0.009021
      dz2     :     0.002403  d :     0.007576
      dxz     :     0.000583
      dyz     :     0.001799
      dx2y2   :     0.000644
      dxy     :     0.002145

 14 H s       :     0.861106  s :     0.861106
      pz      :     0.014754  p :     0.032171
      px      :     0.004330
      py      :     0.013087
      dz2     :     0.000316  d :     0.009314
      dxz     :     0.001504
      dyz     :     0.002566
      dx2y2   :     0.003267
      dxy     :     0.001662

 15 H s       :     1.312913  s :     1.312913
      pz      :     0.026951  p :     0.068888
      px      :    -0.021072
      py      :     0.063008
      dz2     :    -0.000127  d :     0.006219
      dxz     :     0.000125
      dyz     :     0.004878
      dx2y2   :     0.000640
      dxy     :     0.000703

 16 C s       :     3.595826  s :     3.595826
      pz      :     0.970547  p :     2.464218
      px      :     0.601586
      py      :     0.892084
      dz2     :     0.013285  d :    -0.122661
      dxz     :     0.021577
      dyz     :     0.010970
      dx2y2   :    -0.055346
      dxy     :    -0.113148
      f0      :     0.000882  f :    -0.021139
      f+1     :    -0.001693
      f-1     :    -0.000423
      f+2     :     0.000757
      f-2     :    -0.000227
      f+3     :    -0.013644
      f-3     :    -0.006791

 17 C s       :     3.921427  s :     3.921427
      pz      :     0.983769  p :     3.102050
      px      :     1.046686
      py      :     1.071596
      dz2     :     0.002372  d :    -0.066494
      dxz     :     0.016130
      dyz     :     0.010736
      dx2y2   :    -0.066751
      dxy     :    -0.028981
      f0      :     0.000161  f :     0.007509
      f+1     :     0.002046
      f-1     :     0.000424
      f+2     :     0.000124
      f-2     :     0.000608
      f+3     :     0.003199
      f-3     :     0.000947

 18 H s       :     0.763440  s :     0.763440
      pz      :     0.027960  p :     0.044246
      px      :     0.008206
      py      :     0.008080
      dz2     :    -0.000501  d :     0.005113
      dxz     :     0.000131
      dyz     :     0.004718
      dx2y2   :    -0.001316
      dxy     :     0.002080

 19 H s       :     0.672481  s :     0.672481
      pz      :     0.021486  p :     0.017460
      px      :    -0.012679
      py      :     0.008653
      dz2     :     0.000154  d :     0.008718
      dxz     :     0.003803
      dyz     :     0.000938
      dx2y2   :     0.001856
      dxy     :     0.001966

 20 H s       :     0.964330  s :     0.964330
      pz      :     0.023045  p :    -0.026489
      px      :    -0.002408
      py      :    -0.047126
      dz2     :    -0.000541  d :     0.008090
      dxz     :     0.000163
      dyz     :     0.004420
      dx2y2   :    -0.000979
      dxy     :     0.005027

 21 H s       :     0.900768  s :     0.900768
      pz      :     0.015952  p :     0.005567
      px      :    -0.052314
      py      :     0.041929
      dz2     :    -0.000441  d :     0.005859
      dxz     :     0.002538
      dyz     :     0.002892
      dx2y2   :    -0.000666
      dxy     :     0.001537



                     *******************************
                     * LOEWDIN POPULATION ANALYSIS *
                     *******************************

----------------------
LOEWDIN ATOMIC CHARGES
----------------------
   0 C :    0.203749
   1 C :   -0.157897
   2 C :    0.219083
   3 C :   -0.110461
   4 C :   -0.115282
   5 C :    0.215359
   6 H :   -0.167041
   7 C :    0.575286
   8 H :   -0.166245
   9 H :   -0.153778
  10 H :   -0.153762
  11 C :    0.576858
  12 H :   -0.153558
  13 H :   -0.153566
  14 H :   -0.165871
  15 H :   -0.166944
  16 C :    0.157911
  17 C :    0.519010
  18 H :   -0.219982
  19 H :   -0.214123
  20 H :   -0.188156
  21 H :   -0.180590

-------------------------------
LOEWDIN REDUCED ORBITAL CHARGES
-------------------------------
  0 C s       :     2.477888  s :     2.477888
      pz      :     0.604249  p :     2.273946
      px      :     0.836014
      py      :     0.833683
      dz2     :     0.069228  d :     0.702950
      dxz     :     0.086927
      dyz     :     0.084377
      dx2y2   :     0.184855
      dxy     :     0.277562
      f0      :     0.020071  f :     0.341467
      f+1     :     0.025804
      f-1     :     0.025099
      f+2     :     0.060434
      f-2     :     0.014831
      f+3     :     0.100154
      f-3     :     0.095074

  1 C s       :     2.464776  s :     2.464776
      pz      :     0.612915  p :     2.274446
      px      :     0.817387
      py      :     0.844143
      dz2     :     0.088075  d :     0.927198
      dxz     :     0.140016
      dyz     :     0.122127
      dx2y2   :     0.290543
      dxy     :     0.286437
      f0      :     0.028914  f :     0.491477
      f+1     :     0.033889
      f-1     :     0.033824
      f+2     :     0.055158
      f-2     :     0.052897
      f+3     :     0.156269
      f-3     :     0.130526

  2 C s       :     2.471457  s :     2.471457
      pz      :     0.599524  p :     2.256098
      px      :     0.845219
      py      :     0.811355
      dz2     :     0.070791  d :     0.705472
      dxz     :     0.127154
      dyz     :     0.043208
      dx2y2   :     0.252512
      dxy     :     0.211807
      f0      :     0.020191  f :     0.347890
      f+1     :     0.032235
      f-1     :     0.020518
      f+2     :     0.025692
      f-2     :     0.050484
      f+3     :     0.101335
      f-3     :     0.097435

  3 C s       :     2.457000  s :     2.457000
      pz      :     0.594958  p :     2.233658
      px      :     0.819389
      py      :     0.819311
      dz2     :     0.080971  d :     0.922089
      dxz     :     0.149611
      dyz     :     0.122029
      dx2y2   :     0.268183
      dxy     :     0.301295
      f0      :     0.033220  f :     0.497714
      f+1     :     0.028953
      f-1     :     0.032640
      f+2     :     0.062564
      f-2     :     0.061800
      f+3     :     0.131418
      f-3     :     0.147120

  4 C s       :     2.458310  s :     2.458310
      pz      :     0.594349  p :     2.233747
      px      :     0.795327
      py      :     0.844072
      dz2     :     0.081285  d :     0.925263
      dxz     :     0.156425
      dyz     :     0.115487
      dx2y2   :     0.289641
      dxy     :     0.282424
      f0      :     0.033522  f :     0.497961
      f+1     :     0.028100
      f-1     :     0.033456
      f+2     :     0.069735
      f-2     :     0.054485
      f+3     :     0.156217
      f-3     :     0.122446

  5 C s       :     2.479646  s :     2.479646
      pz      :     0.602854  p :     2.268473
      px      :     0.847374
      py      :     0.818245
      dz2     :     0.068681  d :     0.696919
      dxz     :     0.123282
      dyz     :     0.042348
      dx2y2   :     0.262254
      dxy     :     0.200353
      f0      :     0.019212  f :     0.339605
      f+1     :     0.031362
      f-1     :     0.020343
      f+2     :     0.025206
      f-2     :     0.048160
      f+3     :     0.100568
      f-3     :     0.094754

  6 H s       :     0.646301  s :     0.646301
      pz      :     0.080322  p :     0.301917
      px      :     0.086915
      py      :     0.134680
      dz2     :     0.024137  d :     0.218823
      dxz     :     0.007513
      dyz     :     0.056285
      dx2y2   :     0.057987
      dxy     :     0.072902

  7 C s       :     2.444496  s :     2.444496
      pz      :     0.766371  p :     2.278524
      px      :     0.744748
      py      :     0.767405
      dz2     :     0.079099  d :     0.514854
      dxz     :     0.146360
      dyz     :     0.036199
      dx2y2   :     0.149374
      dxy     :     0.103822
      f0      :     0.015212  f :     0.186841
      f+1     :     0.027831
      f-1     :     0.015026
      f+2     :     0.019381
      f-2     :     0.022437
      f+3     :     0.038940
      f-3     :     0.048013

  8 H s       :     0.619426  s :     0.619426
      pz      :     0.087689  p :     0.316993
      px      :     0.085421
      py      :     0.143883
      dz2     :     0.016782  d :     0.229826
      dxz     :     0.004750
      dyz     :     0.082277
      dx2y2   :     0.050214
      dxy     :     0.075803

  9 H s       :     0.613049  s :     0.613049
      pz      :     0.126318  p :     0.314403
      px      :     0.088871
      py      :     0.099214
      dz2     :     0.077364  d :     0.226327
      dxz     :     0.042885
      dyz     :     0.043811
      dx2y2   :     0.044488
      dxy     :     0.017779

 10 H s       :     0.613054  s :     0.613054
      pz      :     0.126307  p :     0.314387
      px      :     0.088873
      py      :     0.099207
      dz2     :     0.077366  d :     0.226321
      dxz     :     0.042873
      dyz     :     0.043796
      dx2y2   :     0.044498
      dxy     :     0.017788

 11 C s       :     2.444069  s :     2.444069
      pz      :     0.766721  p :     2.276922
      px      :     0.755386
      py      :     0.754815
      dz2     :     0.079087  d :     0.514977
      dxz     :     0.144326
      dyz     :     0.038763
      dx2y2   :     0.137083
      dxy     :     0.115717
      f0      :     0.015326  f :     0.187174
      f+1     :     0.026201
      f-1     :     0.016710
      f+2     :     0.014366
      f-2     :     0.027532
      f+3     :     0.049613
      f-3     :     0.037426

 12 H s       :     0.613161  s :     0.613161
      pz      :     0.126302  p :     0.314188
      px      :     0.100412
      py      :     0.087474
      dz2     :     0.077342  d :     0.226209
      dxz     :     0.047604
      dyz     :     0.039083
      dx2y2   :     0.019839
      dxy     :     0.042342

 13 H s       :     0.613173  s :     0.613173
      pz      :     0.126296  p :     0.314186
      px      :     0.100417
      py      :     0.087472
      dz2     :     0.077345  d :     0.226207
      dxz     :     0.047597
      dyz     :     0.039070
      dx2y2   :     0.019848
      dxy     :     0.042348

 14 H s       :     0.618722  s :     0.618722
      pz      :     0.087730  p :     0.316924
      px      :     0.101943
      py      :     0.127251
      dz2     :     0.016858  d :     0.230225
      dxz     :     0.029580
      dyz     :     0.057601
      dx2y2   :     0.058507
      dxy     :     0.067679

 15 H s       :     0.633070  s :     0.633070
      pz      :     0.078983  p :     0.307988
      px      :     0.092173
      py      :     0.136832
      dz2     :     0.025876  d :     0.225886
      dxz     :     0.007370
      dyz     :     0.056749
      dx2y2   :     0.060119
      dxy     :     0.075773

 16 C s       :     2.500561  s :     2.500561
      pz      :     0.611713  p :     2.293481
      px      :     0.855980
      py      :     0.825787
      dz2     :     0.070152  d :     0.732862
      dxz     :     0.151835
      dyz     :     0.024074
      dx2y2   :     0.282809
      dxy     :     0.203992
      f0      :     0.018989  f :     0.315185
      f+1     :     0.031817
      f-1     :     0.017483
      f+2     :     0.019078
      f-2     :     0.036518
      f+3     :     0.122609
      f-3     :     0.068692

 17 C s       :     2.532380  s :     2.532380
      pz      :     0.619476  p :     2.328698
      px      :     0.867158
      py      :     0.842063
      dz2     :     0.046679  d :     0.449195
      dxz     :     0.046824
      dyz     :     0.017435
      dx2y2   :     0.202244
      dxy     :     0.136013
      f0      :     0.009409  f :     0.170717
      f+1     :     0.018505
      f-1     :     0.014229
      f+2     :     0.005586
      f-2     :     0.018358
      f+3     :     0.066124
      f-3     :     0.038507

 18 H s       :     0.663836  s :     0.663836
      pz      :     0.083788  p :     0.333620
      px      :     0.093328
      py      :     0.156505
      dz2     :     0.025654  d :     0.222526
      dxz     :     0.001483
      dyz     :     0.059899
      dx2y2   :     0.047774
      dxy     :     0.087715

 19 H s       :     0.678340  s :     0.678340
      pz      :     0.090041  p :     0.323043
      px      :     0.133018
      py      :     0.099984
      dz2     :     0.023069  d :     0.212739
      dxz     :     0.056348
      dyz     :     0.005017
      dx2y2   :     0.067279
      dxy     :     0.061025

 20 H s       :     0.644474  s :     0.644474
      pz      :     0.080898  p :     0.315322
      px      :     0.088470
      py      :     0.145954
      dz2     :     0.025357  d :     0.228360
      dxz     :     0.005195
      dyz     :     0.061159
      dx2y2   :     0.053128
      dxy     :     0.083520

 21 H s       :     0.642189  s :     0.642189
      pz      :     0.080077  p :     0.312540
      px      :     0.124524
      py      :     0.107938
      dz2     :     0.025840  d :     0.225861
      dxz     :     0.034255
      dyz     :     0.030982
      dx2y2   :     0.086063
      dxy     :     0.048721



                      *****************************
                      * MAYER POPULATION ANALYSIS *
                      *****************************

  NA   - Mulliken gross atomic population
  ZA   - Total nuclear charge
  QA   - Mulliken gross atomic charge
  VA   - Mayer's total valence
  BVA  - Mayer's bonded valence
  FA   - Mayer's free valence

  ATOM       NA         ZA         QA         VA         BVA        FA
  0 C      6.2887     6.0000    -0.2887     1.4115     1.4115    -0.0000
  1 C      3.8171     6.0000     2.1829    -0.9056    -0.9056     0.0000
  2 C      7.2503     6.0000    -1.2503     1.3846     1.3846    -0.0000
  3 C      5.1762     6.0000     0.8238     1.8358     1.8358     0.0000
  4 C      4.9764     6.0000     1.0236     1.6514     1.6514     0.0000
  5 C      7.2646     6.0000    -1.2646     2.2766     2.2766     0.0000
  6 H      1.0364     1.0000    -0.0364     1.2846     1.2846     0.0000
  7 C      6.7924     6.0000    -0.7924     3.4580     3.4580    -0.0000
  8 H      0.9092     1.0000     0.0908     1.0444     1.0444    -0.0000
  9 H      0.7904     1.0000     0.2096     0.9802     0.9802    -0.0000
 10 H      0.7909     1.0000     0.2091     0.9803     0.9803    -0.0000
 11 C      6.7819     6.0000    -0.7819     3.5871     3.5871     0.0000
 12 H      0.7920     1.0000     0.2080     0.9764     0.9764     0.0000
 13 H      0.7927     1.0000     0.2073     0.9774     0.9774     0.0000
 14 H      0.9026     1.0000     0.0974     1.0317     1.0317     0.0000
 15 H      1.3880     1.0000    -0.3880     1.3206     1.3206    -0.0000
 16 C      5.9162     6.0000     0.0838     2.1421     2.1421    -0.0000
 17 C      6.9645     6.0000    -0.9645     2.6190     2.6190     0.0000
 18 H      0.8128     1.0000     0.1872     0.9887     0.9887     0.0000
 19 H      0.6987     1.0000     0.3013     0.8154     0.8154     0.0000
 20 H      0.9459     1.0000     0.0541     0.8405     0.8405     0.0000
 21 H      0.9122     1.0000     0.0878     1.0266     1.0266    -0.0000

  Mayer bond orders larger than 0.100000
B(  0-C ,  2-C ) :  -0.8783 B(  0-C ,  3-C ) :  -0.2163 B(  0-C ,  4-C ) :   0.1082 
B(  0-C ,  5-C ) :   0.5663 B(  0-C ,  6-H ) :  -0.1501 B(  0-C , 16-C ) :   0.2942 
B(  0-C , 18-H ) :  -0.1372 B(  0-C , 21-H ) :   1.5970 B(  1-C ,  2-C ) :  -0.6501 
B(  1-C ,  3-C ) :   0.5100 B(  1-C ,  4-C ) :  -0.2883 B(  1-C ,  7-C ) :   0.1074 
B(  1-C , 15-H ) :  -0.5509 B(  1-C , 21-H ) :  -0.1841 B(  2-C ,  3-C ) :   0.5326 
B(  2-C ,  4-C ) :  -0.3209 B(  2-C ,  5-C ) :   0.2109 B(  2-C , 11-C ) :  -0.2111 
B(  2-C , 15-H ) :   2.4584 B(  2-C , 16-C ) :   0.2317 B(  2-C , 17-C ) :   0.1075 
B(  2-C , 20-H ) :  -0.1484 B(  3-C ,  4-C ) :   1.1983 B(  3-C ,  5-C ) :   0.1851 
B(  3-C ,  7-C ) :   0.1639 B(  3-C , 11-C ) :  -0.1328 B(  3-C , 12-H ) :  -0.1142 
B(  3-C , 13-H ) :  -0.1138 B(  3-C , 15-H ) :  -0.2571 B(  3-C , 20-H ) :   0.1186 
B(  3-C , 21-H ) :  -0.2143 B(  4-C ,  5-C ) :   0.5037 B(  4-C ,  7-C ) :   0.1644 
B(  4-C , 11-C ) :   0.4409 B(  4-C , 15-H ) :  -0.1085 B(  4-C , 16-C ) :   0.1303 
B(  4-C , 21-H ) :  -0.1152 B(  5-C ,  6-H ) :   1.3801 B(  5-C ,  7-C ) :  -0.1797 
B(  5-C , 17-C ) :  -0.1405 B(  5-C , 21-H ) :  -0.1619 B(  7-C ,  8-H ) :   1.0732 
B(  7-C ,  9-H ) :   1.0163 B(  7-C , 10-H ) :   1.0170 B( 11-C , 12-H ) :   1.0216 
B( 11-C , 13-H ) :   1.0217 B( 11-C , 14-H ) :   1.0507 B( 15-H , 16-C ) :  -0.1961 
B( 15-H , 20-H ) :  -0.1014 B( 16-C , 17-C ) :   0.8225 B( 16-C , 20-H ) :   1.1433 
B( 17-C , 18-H ) :   1.2012 B( 17-C , 19-H ) :   0.8143 B( 17-C , 20-H ) :  -0.1959 


-------
TIMINGS
-------

Total SCF time: 0 days 0 hours 7 min 51 sec 

Total time                  ....     471.434 sec
Sum of individual times     ....     471.064 sec  ( 99.9%)

SCF preparation             ....       0.979 sec  (  0.2%)
Fock matrix formation       ....     456.140 sec  ( 96.8%)
  Startup                   ....       0.693 sec  (  0.2% of F)
  Split-RI-J                ....      23.525 sec  (  5.2% of F)
  Chain of spheres X        ....     268.798 sec  ( 58.9% of F)
  XC integration            ....     147.680 sec  ( 32.4% of F)
    XC Preparation          ....       0.000 sec  (  0.0% of XC)
    Basis function eval.    ....       9.902 sec  (  6.7% of XC)
    Density eval.           ....      54.864 sec  ( 37.2% of XC)
    XC-Functional eval.     ....       1.884 sec  (  1.3% of XC)
    XC-Potential eval.      ....      74.579 sec  ( 50.5% of XC)
  CPCM terms                ....      13.557 sec  (  3.0% of F)
Diagonalization             ....       0.000 sec  (  0.0%)
Density matrix formation    ....       1.723 sec  (  0.4%)
Total Energy calculation    ....       0.776 sec  (  0.2%)
Population analysis         ....       0.361 sec  (  0.1%)
Orbital Transformation      ....       0.947 sec  (  0.2%)
Orbital Orthonormalization  ....       0.000 sec  (  0.0%)
DIIS solution               ....       8.438 sec  (  1.8%)
SOSCF solution              ....       1.701 sec  (  0.4%)
Finished LeanSCF after 471.6 sec

Maximum memory used throughout the entire LEANSCF-calculation: 120.5 MB


-------------------------------------------------------------------------------
                          DFT DISPERSION CORRECTION                            
                                                                               
                              DFTD3 V3.1  Rev 1                                
                          USING Becke-Johnson damping                          
-------------------------------------------------------------------------------
The R2SCANh functional is recognized
Active option DFTDOPT                   ...         4   

molecular C6(AA) [au] = 4871.549118 


            DFT-D V3
 parameters
 s6 scaling factor         :     1.0000 
 a1 scaling factor         :     0.4709 
 s8 scaling factor         :     1.1236 
 a2 scaling factor         :     5.9157 
 ad hoc parameters k1-k3   :    16.0000     1.3333    -4.0000 

 Edisp/kcal,au: -4.610024957323  -0.007346541616 
 E6   /kcal   :  -3.335897526 
 E8   /kcal   :  -1.274127431 
 % E8         :  27.638189443 

-------------------------   ----------------
Dispersion correction           -0.007346542
-------------------------   ----------------


-------------------------   --------------------
FINAL SINGLE POINT ENERGY      -388.181444744613
-------------------------   --------------------



           ************************************************************
           *        Program running with 4 parallel MPI-processes     *
           *              working on a common directory               *
           ************************************************************

------------------------------------------------------------------------------
                              ORCA PROPERTY CALCULATIONS
------------------------------------------------------------------------------

GBWName                                 ... cs_rporg_009_red_solv_04.gbw
Number of atoms                         ...     22
Number of basis functions               ...    796
Max core memory                         ...   3000 MB

Electric properties:
Dipole moment                           ... YES
Quadrupole moment                       ...  NO
Static polarizability (Dipole/Dipole)   ...  NO
Static polarizability (Dipole/Quad.)    ...  NO
Static polarizability (Quad./Quad.)     ...  NO
Static polarizability (Velocity)        ...  NO

Atomic electric properties:
Dipole moment                           ...  NO
Quadrupole moment                       ...  NO
Static polarizability                   ...  NO

Choice of electric origin               ... Center of mass
Position of electric origin             ...     0.005231    -0.004570     0.000009

General magnetic properties:
Magnetizability                         ...  NO

EPR properties:
g-Tensor (aka g-matrix)                 ...  NO
Zero-Field splitting spin-orbit         ...  NO
Zero-field splitting spin-spin          ...  NO
Hyperfine couplings                     ...  NO (   0 nuclei)
Quadrupole couplings                    ...  NO (   0 nuclei)
Contact density                         ...  NO (   0 nuclei)

NMR properties:
Chemical shifts                         ...  NO (   0 nuclei)
Spin-rotation constants                 ...  NO (   0 nuclei)
Spin-spin couplings                     ...  NO (   0 nuclei,    0 pairs)

Choice of magnetic origin               ... GIAO
Position of magnetic origin             ...     0.000000     0.000000     0.000000

Properties with geometric perturbations:
SCF Hessian                             ...  NO
IR spectrum                             ...  NO
VCD spectrum                            ...  NO
X-ray spectroscopy properties:
SCF XES/XAS/RIXS spectra                ...  NO


-------------
DIPOLE MOMENT
-------------

Method             : SCF
Type of density    : Electron Density
Multiplicity       :   1
Irrep              :   0
Energy             :  -388.1740982029970723 Eh
Relativity type    : 
Basis              : AO
                                X                 Y                 Z
Electronic contribution:      3.986317707      -1.063355730       0.000624205
Nuclear contribution   :     -4.612312787       1.157001157      -0.000599620
                        -----------------------------------------
Total Dipole Moment    :     -0.625995080       0.093645427       0.000024585
                        -----------------------------------------
Magnitude (a.u.)       :      0.632960747
Magnitude (Debye)      :      1.608858360



--------------------
Rotational spectrum 
--------------------
 
Rotational constants in cm-1:             0.097441             0.028572             0.022278 
Rotational constants in MHz :          2921.210321           856.555703           667.890460 

Dipole components along the rotational axes: 
x,y,z [a.u.] :    -0.625933    -0.094061     0.000019 
x,y,z [Debye]:    -1.590995    -0.239083     0.000048 

 

Dipole moment calculation done in   0.1 sec 

Maximum memory used throughout the entire PROP-calculation: 71.7 MB

--------------------------------
SUGGESTED CITATIONS FOR THIS RUN
--------------------------------

Below you find a list of papers that are relevant to this ORCA run
We neither can nor want to force you to cite these papers, but we appreciate if you do
You receive ORCA, which is the product of decades of hard work by many enthusiastic individuals, for free
The only thing we kindly ask in return is that you cite our papers,
We deeply appreciate it, if you show your appreciation for ORCA by not just citing the generic ORCA reference.

Please note that relegating all ORCA citations to the supporting information does *not* help us.
SI sections are not indexed - citations you put there will not count into any citation statistics
But we need these citations in order to attract the funding resources that allow us to do what we are doing

Therefore, if you are a happy ORCA user, please consider citing a few of the papers listed below in the main body of your paper

In addition to the list printed below, the program has created the file cs_rporg_009_red_solv_04.bibtex that contains the list in bibtex format
You can import this file easily into all common literature databanks and citation aid programs


List of essential papers. We consider these as the minimum necessary citations

  1. Neese,F.
     Software update: the ORCA program system, version 5.0
     WIRES Comput. Molec. Sci., 2022 12(1)e1606
     doi.org/10.1002/wcms.1606

List of papers to cite with high priority. The work reported in these papers was absolutely
necessary for this run to complete.
Our perspective: the developers of density functionals and basis sets usually get cited in chemistry papers
Good! But without the algorithms to do something with them, the functionals or basis sets would not do anything.
Hence, in our opinion, the algorithm design and method developments papers are equally worthy of getting cited

  1. Neese,F.
     An improvement of the resolution of the identity approximation for the formation of the Coulomb matrix
     J. Comp. Chem., 2003 24(14)1740-1747
     doi.org/10.1002/jcc.10318
  2. Neese,F.; Wennmohs,F.; Hansen,A.; Becker,U.
     Efficient, approximate and parallel Hartree-Fock and hybrid DFT calculations. A 'chain-of-spheres' algorithm for the Hartree-Fock exchange
     Chem. Phys., 2009 356(1-3)98-109
     doi.org/10.1016/j.chemphys.2008.10.036
  3. Garcia-Rates,M.; Neese,F.
     Effect of the Solute Cavity on the Solvation Energy and its Derivatives within the Framework of the Gaussian Charge Scheme
     J. Comput. Chem., 2020 41 922-939
     doi.org/10.1002/jcc.26139
  4. Helmich-Paris,B.; de Souza,B.; Neese,F.; Izsák,R.
     An improved chain of spheres for exchange algorithm
     J. Chem. Phys., 2021 155 104109
     doi.org/doi: 10.1063/5.0058766.
  5. Neese,F.
     The SHARK Integral Generation and Digestion System
     J. Comp. Chem., 2022  1-16
     doi.org/10.1002/jcc.26942
  6. Lehtola,S.; Steigemann,C.; Oliveira,M.; Marques,M.
     Recent developments in Libxc - A comprehensive library of functionals for density functional theory
     Software X, 2018 7 
     doi.org/10.1016/j.softx.2017.11.002
  7. Grimme,S.; Antony,J.; Ehrlich,S.; Krieg,H.
     A consistent and accurate ab initio parametrization of density functional dispersion correction (DFT-D) for the 94 elements H-Pu
     J. Chem. Phys., 2010 132 154104-XXXX
     doi.org/10.1063/1.3382344
  8. Grimme,S.; Ehrlich,S.; Goerigk,L.
     Effect of the damping function in dispersion corrected density functional theory
     J. Comput. Chem., 2011 32(7)1456-1465
     doi.org/10.1002/jcc.21759
  9. Bursch,M.; Neugebauer,H.; Ehlert,S.; Grimme,S.
     Dispersion corrected r2SCAN based global hybrid functionals: r2SCANh, r2SCAN0, and r2SCAN50
     J. Phys. Chem., 2022 156(13)134105
     doi.org/10.1063/5.0086040

List of suggested additional citations. These are papers that are important in the 'surrounding' of 
of this run, or papers that preceded the highly important papers. If you like your results we are grateful for a citation.

  1. Izsak,R.; Neese,F.
     An overlap fitted chain of spheres exchange method
     J. Chem. Phys., 2011 135 144105
     doi.org/10.1063/1.3646921
  2. Izsak,R.; Hansen,A.; Neese,F.
     The resolution of identity and chain of spheres approximations for the LPNO-CCSD singles Fock term
     Molec. Phys., 2012 110 2413-2417
     doi.org/10.1080/00268976.2012.687466
  3. Neese,F.
     The ORCA program system
     WIRES Comput. Molec. Sci., 2012 2(1)73-78
     doi.org/10.1002/wcms.81
  4. Izsak,R.; Neese,F.; Klopper,W.
     Robust fitting techniques in the chain of spheres approximation to the Fock exchange: The role of the complementary space
     J. Chem. Phys., 2013 139 
     doi.org/10.1063/1.4819264
  5. Neese,F.
     Software update: the ORCA program system, version 4.0
     WIRES Comput. Molec. Sci., 2018 8(1)1-6
     doi.org/10.1002/wcms.1327
  6. Neese,F.; Wennmohs,F.; Becker,U.; Riplinger,C.
     The ORCA quantum chemistry program package
     J. Chem. Phys., 2020 152 Art. No. L224108
     doi.org/10.1063/5.0004608
  7. Wittmann,L.; Neugebauer,H.; Grimme,S.; Bursch,M.
     Dispersion-corrected r2SCAN based double-hybrid functionals
     J. Chem. Phys., 2023 159(22)224103
     doi.org/10.1063/5.0174988

List of optional additional citations

  1. Neese,F.
     Approximate second-order SCF convergence for spin unrestricted wavefunctions
     Chem. Phys. Lett., 2000 325(1-3)93-98
     doi.org/10.1016/s0009-2614(00)00662-x

Timings for individual modules:

Sum of individual times          ...      495.963 sec (=   8.266 min)
Startup calculation              ...       15.870 sec (=   0.265 min)   3.2 %
SCF iterations                   ...      478.197 sec (=   7.970 min)  96.4 %
Property calculations            ...        1.895 sec (=   0.032 min)   0.4 %
                             ****ORCA TERMINATED NORMALLY****
TOTAL RUN TIME: 0 days 0 hours 8 minutes 19 seconds 290 msec
