 vasp.5.4.4.18Apr17-6-g9f103f2a35 (build Nov 09 2017 14:00:25) complex          
  
 executed on             LinuxIFC date 2024.09.26  10:57:56
 running on   48 total cores
 distrk:  each k-point on   48 cores,    1 groups
 distr:  one band on NCORES_PER_BAND=  24 cores,    2 groups


--------------------------------------------------------------------------------------------------------


 INCAR:
 POTCAR:    PAW_PBE C 08Apr2002                   
 POTCAR:    PAW_PBE H 15Jun2001                   

 ----------------------------------------------------------------------------- 
|                                                                             |
|           W    W    AA    RRRRR   N    N  II  N    N   GGGG   !!!           |
|           W    W   A  A   R    R  NN   N  II  NN   N  G    G  !!!           |
|           W    W  A    A  R    R  N N  N  II  N N  N  G       !!!           |
|           W WW W  AAAAAA  RRRRR   N  N N  II  N  N N  G  GGG   !            |
|           WW  WW  A    A  R   R   N   NN  II  N   NN  G    G                |
|           W    W  A    A  R    R  N    N  II  N    N   GGGG   !!!           |
|                                                                             |
|      For optimal performance we recommend to set                            |
|        NCORE= 4 - approx SQRT( number of cores)                             |
|      NCORE specifies how many cores store one orbital (NPAR=cpu/NCORE).     |
|      This setting can  greatly improve the performance of VASP for DFT.     |
|      The default,   NCORE=1            might be grossly inefficient         |
|      on modern multi-core architectures or massively parallel machines.     |
|      Do your own testing !!!!                                               |
|      Unfortunately you need to use the default for GW and RPA calculations. |
|      (for HF NCORE is supported but not extensively tested yet)             |
|                                                                             |
 ----------------------------------------------------------------------------- 

 POTCAR:    PAW_PBE C 08Apr2002                   
   VRHFIN =C: s2p2                                                              
   LEXCH  = PE                                                                  
   EATOM  =   147.1560 eV,   10.8157 Ry                                         
                                                                                
   TITEL  = PAW_PBE C 08Apr2002                                                 
   LULTRA =        F    use ultrasoft PP ?                                      
   IUNSCR =        1    unscreen: 0-lin 1-nonlin 2-no                           
   RPACOR =    1.200    partial core radius                                     
   POMASS =   12.011; ZVAL   =    4.000    mass and valenz                      
   RCORE  =    1.500    outmost cutoff radius                                   
   RWIGS  =    1.630; RWIGS  =    0.863    wigner-seitz radius (au A)           
   ENMAX  =  400.000; ENMIN  =  300.000 eV                                      
   ICORE  =        2    local potential                                         
   LCOR   =        T    correct aug charges                                     
   LPAW   =        T    paw PP                                                  
   EAUG   =  644.873                                                            
   DEXC   =    0.000                                                            
   RMAX   =    1.529    core radius for proj-oper                               
   RAUG   =    1.300    factor for augmentation sphere                          
   RDEP   =    1.501    radius for radial grids                                 
   RDEPT  =    1.300    core radius for aug-charge                              
                                                                                
   Atomic configuration                                                         
    4 entries                                                                   
     n  l   j            E        occ.                                          
     1  0  0.50      -273.3789   2.0000                                         
     2  0  0.50       -13.7508   2.0000                                         
     2  1  0.50        -5.2854   2.0000                                         
     3  2  1.50        -5.4423   0.0000                                         
   Description                                                                  
     l       E           TYP  RCUT    TYP  RCUT                                 
     0    -13.7508458     23  1.200                                             
     0     -8.2022199     23  1.200                                             
     1     -5.2854383     23  1.500                                             
     1     34.0145650     23  1.500                                             
     2     -5.4423304      7  1.500                                             
  local pseudopotential read in
  partial core-charges read in
  partial kinetic energy density read in
  atomic valenz-charges read in
  non local Contribution for L=           0  read in
    real space projection operators read in
  non local Contribution for L=           0  read in
    real space projection operators read in
  non local Contribution for L=           1  read in
    real space projection operators read in
  non local Contribution for L=           1  read in
    real space projection operators read in
    PAW grid and wavefunctions read in
 
   number of l-projection  operators is LMAX  =           4
   number of lm-projection operators is LMMAX =           8
 
 POTCAR:    PAW_PBE H 15Jun2001                   
   VRHFIN =H: ultrasoft test                                                    
   LEXCH  = PE                                                                  
   EATOM  =    12.4884 eV,    0.9179 Ry                                         
                                                                                
   TITEL  = PAW_PBE H 15Jun2001                                                 
   LULTRA =        F    use ultrasoft PP ?                                      
   IUNSCR =        0    unscreen: 0-lin 1-nonlin 2-no                           
   RPACOR =    0.000    partial core radius                                     
   POMASS =    1.000; ZVAL   =    1.000    mass and valenz                      
   RCORE  =    1.100    outmost cutoff radius                                   
   RWIGS  =    0.700; RWIGS  =    0.370    wigner-seitz radius (au A)           
   ENMAX  =  250.000; ENMIN  =  200.000 eV                                      
   RCLOC  =    0.701    cutoff for local pot                                    
   LCOR   =        T    correct aug charges                                     
   LPAW   =        T    paw PP                                                  
   EAUG   =  400.000                                                            
   RMAX   =    1.123    core radius for proj-oper                               
   RAUG   =    1.200    factor for augmentation sphere                          
   RDEP   =    1.112    radius for radial grids                                 
   RDEPT  =    0.926    core radius for aug-charge                              
                                                                                
   Atomic configuration                                                         
    2 entries                                                                   
     n  l   j            E        occ.                                          
     1  0  0.50        -6.4927   1.0000                                         
     2  1  0.50        -3.4015   0.0000                                         
   Description                                                                  
     l       E           TYP  RCUT    TYP  RCUT                                 
     0     -6.4927494     23  1.100                                             
     0      6.8029130     23  1.100                                             
     1     -4.0817478     23  1.100                                             
  local pseudopotential read in
  atomic valenz-charges read in
  non local Contribution for L=           0  read in
    real space projection operators read in
  non local Contribution for L=           0  read in
    real space projection operators read in
  non local Contribution for L=           1  read in
    real space projection operators read in
    PAW grid and wavefunctions read in
 
   number of l-projection  operators is LMAX  =           3
   number of lm-projection operators is LMMAX =           5
 
 Optimization of the real space projectors (new method)

 maximal supplied QI-value         = 25.13
 optimisation between [QCUT,QGAM] = [ 11.31, 22.87] = [ 35.82,146.48] Ry 
 Optimized for a Real-space Cutoff    1.03 Angstroem

   l    n(q)    QCUT    max X(q) W(low)/X(q) W(high)/X(q)  e(spline) 
   0      7    11.310   115.676    0.20E-03    0.90E-03    0.20E-06
   0      7    11.310    87.132    0.20E-03    0.89E-03    0.19E-06
   1      6    11.310     4.429    0.16E-03    0.28E-03    0.12E-06
   1      6    11.310     2.733    0.12E-03    0.21E-03    0.99E-07
 Optimization of the real space projectors (new method)

 maximal supplied QI-value         = 34.20
 optimisation between [QCUT,QGAM] = [ 11.29, 22.57] = [ 35.68,142.71] Ry 
 Optimized for a Real-space Cutoff    1.20 Angstroem

   l    n(q)    QCUT    max X(q) W(low)/X(q) W(high)/X(q)  e(spline) 
   0      8    11.287    19.460    0.22E-03    0.50E-03    0.19E-06
   0      8    11.287    12.209    0.21E-03    0.48E-03    0.18E-06
   1      8    11.287     4.655    0.21E-03    0.11E-04    0.26E-06
  PAW_PBE C 08Apr2002                   :
 energy of atom  1       EATOM= -147.1560
 kinetic energy error for atom=    0.0076 (will be added to EATOM!!)
  PAW_PBE H 15Jun2001                   :
 energy of atom  2       EATOM=  -12.4884
 kinetic energy error for atom=    0.0020 (will be added to EATOM!!)
 
 
 POSCAR: C H                                     
  positions in direct lattice
  velocities in cartesian coordinates
 exchange correlation table for  LEXCH =        8
   RHO(1)=    0.500       N(1)  =     2000
   RHO(2)=  100.500       N(2)  =     4000
 


--------------------------------------------------------------------------------------------------------


 ion  position               nearest neighbor table
   1  0.604  0.530  0.500-  24 1.09   6 1.39   2 1.40
   2  0.621  0.500  0.500-  23 1.09   1 1.40   3 1.40
   3  0.604  0.470  0.500-  22 1.09   4 1.39   2 1.40
   4  0.569  0.470  0.500-  21 1.09   3 1.39   5 1.41
   5  0.551  0.500  0.500-   6 1.41   4 1.41   7 1.42
   6  0.569  0.530  0.500-  15 1.09   1 1.39   5 1.41
   7  0.515  0.500  0.500-   8 1.22   5 1.42
   8  0.485  0.500  0.500-   7 1.22   9 1.42
   9  0.449  0.500  0.500-  14 1.41  10 1.41   8 1.42
  10  0.431  0.470  0.500-  20 1.09  11 1.39   9 1.41
  11  0.396  0.470  0.500-  19 1.09  10 1.39  12 1.40
  12  0.379  0.500  0.500-  18 1.09  13 1.40  11 1.40
  13  0.396  0.530  0.500-  17 1.09  14 1.39  12 1.40
  14  0.431  0.530  0.500-  16 1.09  13 1.39   9 1.41
  15  0.555  0.554  0.500-   6 1.09
  16  0.445  0.554  0.500-  14 1.09
  17  0.383  0.554  0.500-  13 1.09
  18  0.352  0.500  0.500-  12 1.09
  19  0.383  0.446  0.500-  11 1.09
  20  0.445  0.446  0.500-  10 1.09
  21  0.555  0.446  0.500-   4 1.09
  22  0.617  0.446  0.500-   3 1.09
  23  0.648  0.500  0.500-   2 1.09
  24  0.617  0.554  0.500-   1 1.09
 
  LATTYP: Found a simple cubic cell.
 ALAT       =    40.0000000000
  
  Lattice vectors:
  
 A1 = (  40.0000000000,   0.0000000000,   0.0000000000)
 A2 = (   0.0000000000,  40.0000000000,   0.0000000000)
 A3 = (   0.0000000000,   0.0000000000,  40.0000000000)


Analysis of symmetry for initial positions (statically):
=====================================================================
 Subroutine PRICEL returns:
 Original cell was already a primitive cell.
 

 Routine SETGRP: Setting up the symmetry group for a 
 simple cubic supercell.


 Subroutine GETGRP returns: Found  1 space group operations
 (whereof  1 operations were pure point group operations)
 out of a pool of 48 trial point group operations.


The static configuration has the point symmetry C_1 .


Analysis of symmetry for dynamics (positions and initial velocities):
=====================================================================
 Subroutine PRICEL returns:
 Original cell was already a primitive cell.
 

 Routine SETGRP: Setting up the symmetry group for a 
 simple cubic supercell.


 Subroutine GETGRP returns: Found  1 space group operations
 (whereof  1 operations were pure point group operations)
 out of a pool of 48 trial point group operations.


The dynamic configuration has the point symmetry C_1 .


Analysis of constrained symmetry for selective dynamics:
=====================================================================
 Subroutine PRICEL returns:
 Original cell was already a primitive cell.
 

 Routine SETGRP: Setting up the symmetry group for a 
 simple cubic supercell.


 Subroutine GETGRP returns: Found  1 space group operations
 (whereof  1 operations were pure point group operations)
 out of a pool of 48 trial point group operations.


The constrained configuration has the point symmetry C_1 .


Analysis of structural, dynamic, and magnetic symmetry:
=====================================================================
 Subroutine PRICEL returns:
 Original cell was already a primitive cell.
 

 Routine SETGRP: Setting up the symmetry group for a 
 simple cubic supercell.


 Subroutine GETGRP returns: Found  1 space group operations
 (whereof  1 operations were pure point group operations)
 out of a pool of 48 trial point group operations.


The magnetic configuration has the point symmetry C_1 .


 Subroutine INISYM returns: Found  1 space group operations
 (whereof  1 operations are pure point group operations),
 and found     1 'primitive' translations

 
 
 KPOINTS: K-Point Grid                            

Automatic generation of k-mesh.
Space group operators:
 irot       det(A)        alpha          n_x          n_y          n_z        tau_x        tau_y        tau_z
    1     1.000000     0.000000     1.000000     0.000000     0.000000     0.000000     0.000000     0.000000
 
 Subroutine IBZKPT returns following result:
 ===========================================
 
 Found      1 irreducible k-points:
 
 Following reciprocal coordinates:
            Coordinates               Weight
  0.000000  0.000000  0.000000      1.000000
 
 Following cartesian coordinates:
            Coordinates               Weight
  0.000000  0.000000  0.000000      1.000000
 


--------------------------------------------------------------------------------------------------------




 Dimension of arrays:
   k-points           NKPTS =      1   k-points in BZ     NKDIM =      1   number of bands    NBANDS=     58
   number of dos      NEDOS =    301   number of ions     NIONS =     24
   non local maximal  LDIM  =      4   non local SUM 2l+1 LMDIM =      8
   total plane-waves  NPLWV = ******
   max r-space proj   IRMAX =   2915   max aug-charges    IRDMAX=   4885
   dimension x,y,z NGX =   294 NGY =  294 NGZ =  294
   dimension x,y,z NGXF=   588 NGYF=  588 NGZF=  588
   support grid    NGXF=   588 NGYF=  588 NGZF=  588
   ions per type =              14  10
   NGX,Y,Z   is equivalent  to a cutoff of  12.22, 12.22, 12.22 a.u.
   NGXF,Y,Z  is equivalent  to a cutoff of  24.44, 24.44, 24.44 a.u.

 SYSTEM =  103_red                                 
 POSCAR =  C H                                     

 Startparameter for this run:
   NWRITE =      2    write-flag & timer
   PREC   = accura    normal or accurate (medium, high low for compatibility)
   ISTART =      0    job   : 0-new  1-cont  2-samecut
   ICHARG =      2    charge: 1-file 2-atom 10-const
   ISPIN  =      2    spin polarized calculation?
   LNONCOLLINEAR =      F non collinear calculations
   LSORBIT =      F    spin-orbit coupling
   INIWAV =      1    electr: 0-lowe 1-rand  2-diag
   LASPH  =      F    aspherical Exc in radial PAW
   METAGGA=      F    non-selfconsistent MetaGGA calc.

 Electronic Relaxation 1
   ENCUT  =  500.0 eV  36.75 Ry    6.06 a.u.  72.93 72.93 72.93*2*pi/ulx,y,z
   ENINI  =  500.0     initial cutoff
   ENAUG  =  644.9 eV  augmentation charge cutoff
   NELM   =    100;   NELMIN=  2; NELMDL= -5     # of ELM steps 
   EDIFF  = 0.1E-04   stopping-criterion for ELM
   LREAL  =      T    real-space projection
   NLSPLINE    = F    spline interpolate recip. space projectors
   LCOMPAT=      F    compatible to vasp.4.4
   GGA_COMPAT  = T    GGA compatible to vasp.4.4-vasp.4.6
   LMAXPAW     = -100 max onsite density
   LMAXMIX     =    2 max onsite mixed and CHGCAR
   VOSKOWN=      0    Vosko Wilk Nusair interpolation
   ROPT   =   -0.00025  -0.00025
 Ionic relaxation
   EDIFFG = -.2E-01   stopping-criterion for IOM
   NSW    =    500    number of steps for IOM
   NBLOCK =      1;   KBLOCK =    500    inner block; outer block 
   IBRION =      2    ionic relax: 0-MD 1-quasi-New 2-CG
   NFREE  =      1    steps in history (QN), initial steepest desc. (CG)
   ISIF   =      2    stress and relaxation
   IWAVPR =     11    prediction:  0-non 1-charg 2-wave 3-comb
   ISYM   =      2    0-nonsym 1-usesym 2-fastsym
   LCORR  =      T    Harris-Foulkes like correction to forces

   POTIM  = 0.5000    time-step for ionic-motion
   TEIN   =    0.0    initial temperature
   TEBEG  =    0.0;   TEEND  =   0.0 temperature during run
   SMASS  =  -3.00    Nose mass-parameter (am)
   estimated Nose-frequenzy (Omega)   =  0.10E-29 period in steps =****** mass=  -0.366E-25a.u.
   SCALEE = 1.0000    scale energy and forces
   NPACO  =    256;   APACO  = 16.0  distance and # of slots for P.C.
   PSTRESS=    0.0 pullay stress

  Mass of Ions in am
   POMASS =  12.01  1.00
  Ionic Valenz
   ZVAL   =   4.00  1.00
  Atomic Wigner-Seitz radii
   RWIGS  =  -1.00 -1.00
  virtual crystal weights 
   VCA    =   1.00  1.00
   NELECT =      65.0000    total number of electrons
   NUPDOWN=      -1.0000    fix difference up-down

 DOS related values:
   EMIN   =  10.00;   EMAX   =-10.00  energy-range for DOS
   EFERMI =   0.00
   ISMEAR =     0;   SIGMA  =   0.05  broadening in eV -4-tet -1-fermi 0-gaus

 Electronic relaxation 2 (details)
   IALGO  =     68    algorithm
   LDIAG  =      T    sub-space diagonalisation (order eigenvalues)
   LSUBROT=      F    optimize rotation matrix (better conditioning)
   TURBO    =      0    0=normal 1=particle mesh
   IRESTART =      0    0=no restart 2=restart with 2 vectors
   NREBOOT  =      0    no. of reboots
   NMIN     =      0    reboot dimension
   EREF     =   0.00    reference energy to select bands
   IMIX   =      4    mixing-type and parameters
     AMIX     =   0.40;   BMIX     =  1.00
     AMIX_MAG =   1.60;   BMIX_MAG =  1.00
     AMIN     =   0.10
     WC   =   100.;   INIMIX=   1;  MIXPRE=   1;  MAXMIX= -45

 Intra band minimization:
   WEIMIN = 0.0010     energy-eigenvalue tresh-hold
   EBREAK =  0.43E-07  absolut break condition
   DEPER  =   0.30     relativ break condition  

   TIME   =   0.40     timestep for ELM

  volume/ion in A,a.u.               =    2666.67     17995.55
  Fermi-wavevector in a.u.,A,eV,Ry     =   0.164558  0.310970  0.368437  0.027079
  Thomas-Fermi vector in A             =   0.864995
 
 Write flags
   LWAVE        =      T    write WAVECAR
   LDOWNSAMPLE  =      F    k-point downsampling of WAVECAR
   LCHARG       =      F    write CHGCAR
   LVTOT        =      F    write LOCPOT, total local potential
   LVHAR        =      F    write LOCPOT, Hartree potential only
   LELF         =      F    write electronic localiz. function (ELF)
   LORBIT       =      0    0 simple, 1 ext, 2 COOP (PROOUT), +10 PAW based schemes


 Dipole corrections
   LMONO  =      F    monopole corrections only (constant potential shift)
   LDIPOL =      F    correct potential (dipole corrections)
   IDIPOL =      0    1-x, 2-y, 3-z, 4-all directions 
   EPSILON=  1.0000000 bulk dielectric constant

 Exchange correlation treatment:
   GGA     =    --    GGA type
   LEXCH   =     8    internal setting for exchange type
   VOSKOWN=      0    Vosko Wilk Nusair interpolation
   LHFCALC =     F    Hartree Fock is set to
   LHFONE  =     F    Hartree Fock one center treatment
   AEXX    =    0.0000 exact exchange contribution

 Linear response parameters
   LEPSILON=     F    determine dielectric tensor
   LRPA    =     F    only Hartree local field effects (RPA)
   LNABLA  =     F    use nabla operator in PAW spheres
   LVEL    =     F    velocity operator in full k-point grid
   LINTERFAST=   F  fast interpolation
   KINTER  =     0    interpolate to denser k-point grid
   CSHIFT  =0.1000    complex shift for real part using Kramers Kronig
   OMEGAMAX=  -1.0    maximum frequency
   DEG_THRESHOLD= 0.2000000E-02 threshold for treating states as degnerate
   RTIME   =   -0.100 relaxation time in fs
  (WPLASMAI=    0.000 imaginary part of plasma frequency in eV, 0.658/RTIME)
   DFIELD  = 0.0000000 0.0000000 0.0000000 field for delta impulse in time
 
 Orbital magnetization related:
   ORBITALMAG=     F  switch on orbital magnetization
   LCHIMAG   =     F  perturbation theory with respect to B field
   DQ        =  0.001000  dq finite difference perturbation B field
   LLRAUG    =     F  two centre corrections for induced B field

 Solvation model:
   LSOL    =     T         switch on solvation model
   EB_K    = 35.688000     relative permittivity of the bulk solvent
   SIGMA_K =  0.600000     width of the dielectric cavity
   NC_K    =  0.002500     cutoff charge density
   TAU     =  0.000000     cavity surface tension
   LAMBDA_D_K    =  3.040000     Debye length in Angstroms
   LRHOB     =     F     write boundcharge  density
   LRHOION     =     F     write ioniccharge density



--------------------------------------------------------------------------------------------------------


 conjugate gradient relaxation of ions
   using selective dynamics as specified on POSCAR
 charge density and potential will be updated during run
 spin polarized calculation
 RMM-DIIS sequential band-by-band and
  variant of blocked Davidson during initial phase
 perform sub-space diagonalisation
    before iterative eigenvector-optimisation
 modified Broyden-mixing scheme, WC =      100.0
 initial mixing is a Kerker type mixing with AMIX =  0.4000 and BMIX =      1.0000
 Hartree-type preconditioning will be used
 using additional bands           25
 real space projection scheme for non local part
 use partial core corrections
 calculate Harris-corrections to forces 
   (improved forces if not selfconsistent)
 use gradient corrections 
 use of overlap-Matrix (Vanderbilt PP)
 Gauss-broadening in eV      SIGMA  =   0.05


--------------------------------------------------------------------------------------------------------


  energy-cutoff  :      500.00
  volume of cell :    64000.00
      direct lattice vectors                 reciprocal lattice vectors
    40.000000000  0.000000000  0.000000000     0.025000000  0.000000000  0.000000000
     0.000000000 40.000000000  0.000000000     0.000000000  0.025000000  0.000000000
     0.000000000  0.000000000 40.000000000     0.000000000  0.000000000  0.025000000

  length of vectors
    40.000000000 40.000000000 40.000000000     0.025000000  0.025000000  0.025000000


 
 k-points in units of 2pi/SCALE and weight: K-Point Grid                            
   0.00000000  0.00000000  0.00000000       1.000
 
 k-points in reciprocal lattice and weights: K-Point Grid                            
   0.00000000  0.00000000  0.00000000       1.000
 
 position of ions in fractional coordinates (direct lattice) 
   0.60355136  0.53029041  0.50000490
   0.62110578  0.50000177  0.49999661
   0.60355192  0.46971063  0.49999048
   0.56869948  0.46955210  0.49999300
   0.55076994  0.50000009  0.50000077
   0.56869713  0.53044800  0.50000759
   0.51528079  0.49999740  0.50000607
   0.48471933  0.49999587  0.50000854
   0.44922957  0.49999975  0.50000421
   0.43129993  0.46955074  0.50001062
   0.39644870  0.46970960  0.50000620
   0.37889398  0.50000107  0.49999696
   0.39644926  0.53028930  0.49999200
   0.43130321  0.53044654  0.49999582
   0.55493887  0.55398457  0.50001182
   0.44506151  0.55398299  0.49999289
   0.38287969  0.55395233  0.49998591
   0.35161421  0.50000298  0.49999413
   0.38287416  0.44605078  0.50000803
   0.44505651  0.44601233  0.50001500
   0.55494269  0.44601392  0.49999052
   0.61712473  0.44605110  0.49998575
   0.64838558  0.50000300  0.49999524
   0.61712069  0.55395271  0.50000795
 
 position of ions in cartesian coordinates  (Angst):
  24.14205455 21.21161624 20.00019587
  24.84423133 20.00007098 19.99986438
  24.14207676 18.78842510 19.99961916
  22.74797901 18.78208406 19.99972006
  22.03079743 20.00000359 20.00003075
  22.74788507 21.21791986 20.00030348
  20.61123150 19.99989599 20.00024279
  19.38877336 19.99983486 20.00034149
  17.96918298 19.99999014 20.00016838
  17.25199710 18.78202977 20.00042466
  15.85794803 18.78838407 20.00024784
  15.15575924 20.00004281 19.99987854
  15.85797032 21.21157210 19.99968006
  17.25212821 21.21786152 19.99983269
  22.19755469 22.15938285 20.00047297
  17.80246032 22.15931953 19.99971570
  15.31518768 22.15809303 19.99943642
  14.06456821 20.00011938 19.99976509
  15.31496629 17.84203139 20.00032133
  17.80226035 17.84049336 20.00060011
  22.19770772 17.84055698 19.99962066
  24.68498912 17.84204387 19.99942988
  25.93542311 20.00012018 19.99980977
  24.68482762 22.15810832 20.00031792
 


--------------------------------------------------------------------------------------------------------


 k-point  1 :   0.0000 0.0000 0.0000  plane waves: 1624525

 maximum and minimum number of plane-waves per node :     67702    67669

 maximum number of plane-waves:   1624525
 maximum index in each direction: 
   IXMAX=   72   IYMAX=   72   IZMAX=   72
   IXMIN=  -72   IYMIN=  -72   IZMIN=  -72


 real space projection operators:
  total allocation   :       2657.96 KBytes
  max/ min on nodes  :        135.59         77.62


 parallel 3D FFT for wavefunctions:
    minimum data exchange during FFTs selected (reduces bandwidth)
 parallel 3D FFT for charge:
    minimum data exchange during FFTs selected (reduces bandwidth)


 total amount of memory used by VASP MPI-rank0   727099. kBytes
=======================================================================

   base      :      30000. kBytes
   nonlr-proj:       1286. kBytes
   fftplans  :     182426. kBytes
   grid      :     450567. kBytes
   one-center:          6. kBytes
   wavefun   :      62814. kBytes
 
     INWAV:  cpu time    0.0000: real time    0.0000
 Broyden mixing: mesh for mixing (old mesh)
   NGX =145   NGY =145   NGZ =145
  (NGX  =588   NGY  =588   NGZ  =588)
  gives a total of ****** points

 initial charge density was supplied:
 charge density of overlapping atoms calculated
 number of electron      66.0000000 magnetization      24.0000000
 keeping initial charge density in first step


--------------------------------------------------------------------------------------------------------


 Maximum index for non-local projection operator          241
 Maximum index for augmentation-charges          327 (set IRDMAX)


--------------------------------------------------------------------------------------------------------


 First call to EWALD:  gamma=   0.044
 Maximum number of real-space cells 3x 3x 3
 Maximum number of reciprocal cells 3x 3x 3

    FEWALD:  cpu time    0.0061: real time    0.0061


--------------------------------------- Iteration      1(   1)  ---------------------------------------


    POTLOK:  cpu time  149.1817: real time  149.5084
    SETDIJ:  cpu time    0.0535: real time    0.0536
     EDDAV:  cpu time   19.0205: real time   19.0612
       DOS:  cpu time    0.0003: real time    0.0003
    --------------------------------------------
      LOOP:  cpu time  168.2561: real time  168.6236

 eigenvalue-minimisations  :   280
 total energy-change (2. order) : 0.6128118E+03  (-0.8751283E+03)
 number of electron      66.0000000 magnetization      24.0000000
 augmentation part       66.0000000 magnetization      24.0000000

 Free energy of the ion-electron system (eV)
  ---------------------------------------------------
  alpha Z        PSCENC =         0.32162128
  Ewald energy   TEWEN  =      7014.48967361
  -Hartree energ DENC   =     -8429.69453471
  -exchange      EXHF   =         0.00000000
  -V(xc)+E(xc)   XCENC  =       209.09316937
  PAW double counting   =      1535.45646912    -1543.38791276
  entropy T*S    EENTRO =        -0.08906200
  eigenvalues    EBANDS =      -347.52987364
  atomic energy  EATOM  =      2184.94220219
  Solvation  Ediel_sol  =       -10.78990547
  ---------------------------------------------------
  free energy    TOTEN  =       612.81184699 eV

  energy without entropy =      612.90090900  energy(sigma->0) =      612.85637799


--------------------------------------------------------------------------------------------------------




--------------------------------------- Iteration      1(   2)  ---------------------------------------


     EDDAV:  cpu time   26.5530: real time   26.6203
       DOS:  cpu time    0.0002: real time    0.0002
    --------------------------------------------
      LOOP:  cpu time   26.5533: real time   26.6205

 eigenvalue-minimisations  :   422
 total energy-change (2. order) :-0.3668902E+03  (-0.3413842E+03)
 number of electron      66.0000000 magnetization      24.0000000
 augmentation part       66.0000000 magnetization      24.0000000

 Free energy of the ion-electron system (eV)
  ---------------------------------------------------
  alpha Z        PSCENC =         0.32162128
  Ewald energy   TEWEN  =      7014.48967361
  -Hartree energ DENC   =     -8429.69453471
  -exchange      EXHF   =         0.00000000
  -V(xc)+E(xc)   XCENC  =       209.09316937
  PAW double counting   =      1535.45646912    -1543.38791276
  entropy T*S    EENTRO =        -0.00147459
  eigenvalues    EBANDS =      -714.50764220
  atomic energy  EATOM  =      2184.94220219
  Solvation  Ediel_sol  =       -10.78990547
  ---------------------------------------------------
  free energy    TOTEN  =       245.92166585 eV

  energy without entropy =      245.92314044  energy(sigma->0) =      245.92240314


--------------------------------------------------------------------------------------------------------




--------------------------------------- Iteration      1(   3)  ---------------------------------------


     EDDAV:  cpu time   23.5904: real time   23.6395
       DOS:  cpu time    0.0003: real time    0.0003
    --------------------------------------------
      LOOP:  cpu time   23.5907: real time   23.6398

 eigenvalue-minimisations  :   368
 total energy-change (2. order) :-0.3152559E+03  (-0.2990125E+03)
 number of electron      66.0000000 magnetization      24.0000000
 augmentation part       66.0000000 magnetization      24.0000000

 Free energy of the ion-electron system (eV)
  ---------------------------------------------------
  alpha Z        PSCENC =         0.32162128
  Ewald energy   TEWEN  =      7014.48967361
  -Hartree energ DENC   =     -8429.69453471
  -exchange      EXHF   =         0.00000000
  -V(xc)+E(xc)   XCENC  =       209.09316937
  PAW double counting   =      1535.45646912    -1543.38791276
  entropy T*S    EENTRO =        -0.00000000
  eigenvalues    EBANDS =     -1029.76500682
  atomic energy  EATOM  =      2184.94220219
  Solvation  Ediel_sol  =       -10.78990547
  ---------------------------------------------------
  free energy    TOTEN  =       -69.33422418 eV

  energy without entropy =      -69.33422418  energy(sigma->0) =      -69.33422418


--------------------------------------------------------------------------------------------------------




--------------------------------------- Iteration      1(   4)  ---------------------------------------


     EDDAV:  cpu time   20.8724: real time   20.9226
       DOS:  cpu time    0.0003: real time    0.0003
    --------------------------------------------
      LOOP:  cpu time   20.8727: real time   20.9229

 eigenvalue-minimisations  :   316
 total energy-change (2. order) :-0.7307083E+02  (-0.7222098E+02)
 number of electron      66.0000000 magnetization      24.0000000
 augmentation part       66.0000000 magnetization      24.0000000

 Free energy of the ion-electron system (eV)
  ---------------------------------------------------
  alpha Z        PSCENC =         0.32162128
  Ewald energy   TEWEN  =      7014.48967361
  -Hartree energ DENC   =     -8429.69453471
  -exchange      EXHF   =         0.00000000
  -V(xc)+E(xc)   XCENC  =       209.09316937
  PAW double counting   =      1535.45646912    -1543.38791276
  entropy T*S    EENTRO =        -0.00000000
  eigenvalues    EBANDS =     -1102.83583662
  atomic energy  EATOM  =      2184.94220219
  Solvation  Ediel_sol  =       -10.78990547
  ---------------------------------------------------
  free energy    TOTEN  =      -142.40505398 eV

  energy without entropy =     -142.40505398  energy(sigma->0) =     -142.40505398


--------------------------------------------------------------------------------------------------------




--------------------------------------- Iteration      1(   5)  ---------------------------------------


     EDDAV:  cpu time   21.0559: real time   21.1033
       DOS:  cpu time    0.0002: real time    0.0002
    CHARGE:  cpu time    1.7142: real time    1.7176
    MIXING:  cpu time    0.1023: real time    0.1025
    --------------------------------------------
      LOOP:  cpu time   22.8727: real time   22.9237

 eigenvalue-minimisations  :   320
 total energy-change (2. order) :-0.3130915E+01  (-0.3093062E+01)
 number of electron      65.0000010 magnetization      23.1138610
 augmentation part        1.6733117 magnetization      22.2087275

 Broyden mixing:
  rms(total) = 0.31010E+01    rms(broyden)= 0.31006E+01
  rms(prec ) = 0.31314E+01
  weight for this iteration     100.00

 Free energy of the ion-electron system (eV)
  ---------------------------------------------------
  alpha Z        PSCENC =         0.32162128
  Ewald energy   TEWEN  =      7014.48967361
  -Hartree energ DENC   =     -8429.69453471
  -exchange      EXHF   =         0.00000000
  -V(xc)+E(xc)   XCENC  =       209.09316937
  PAW double counting   =      1535.45646912    -1543.38791276
  entropy T*S    EENTRO =        -0.00000000
  eigenvalues    EBANDS =     -1105.96675120
  atomic energy  EATOM  =      2184.94220219
  Solvation  Ediel_sol  =       -10.78990547
  ---------------------------------------------------
  free energy    TOTEN  =      -145.53596856 eV

  energy without entropy =     -145.53596856  energy(sigma->0) =     -145.53596856


--------------------------------------------------------------------------------------------------------




--------------------------------------- Iteration      1(   6)  ---------------------------------------


    POTLOK:  cpu time  155.0433: real time  155.3661
    SETDIJ:  cpu time    0.0471: real time    0.0471
    EDDIAG:  cpu time    3.7345: real time    3.7424
  RMM-DIIS:  cpu time   13.0878: real time   13.1160
    ORTHCH:  cpu time    0.2114: real time    0.2119
       DOS:  cpu time    0.0002: real time    0.0002
    CHARGE:  cpu time    1.6941: real time    1.6977
    MIXING:  cpu time    0.1176: real time    0.1178
    --------------------------------------------
      LOOP:  cpu time  173.9360: real time  174.2991

 eigenvalue-minimisations  :   232
 total energy-change (2. order) : 0.6500832E+02  (-0.1286977E+02)
 number of electron      65.0000009 magnetization      22.1529084
 augmentation part        1.6533083 magnetization      21.1323449

 Broyden mixing:
  rms(total) = 0.15306E+01    rms(broyden)= 0.15305E+01
  rms(prec ) = 0.15532E+01
  weight for this iteration     100.00

 eigenvalues of (default mixing * dielectric matrix)
  average eigenvalue GAMMA=   0.9552
  0.9552

 Free energy of the ion-electron system (eV)
  ---------------------------------------------------
  alpha Z        PSCENC =         0.32162128
  Ewald energy   TEWEN  =      7014.48967361
  -Hartree energ DENC   =     -8532.15009602
  -exchange      EXHF   =         0.00000000
  -V(xc)+E(xc)   XCENC  =       269.88571417
  PAW double counting   =      2823.90591996    -2833.25141789
  entropy T*S    EENTRO =        -0.00000000
  eigenvalues    EBANDS =      -972.51916977
  atomic energy  EATOM  =      2184.94220219
  Solvation  Ediel_sol  =       -36.15209938
  ---------------------------------------------------
  free energy    TOTEN  =       -80.52765185 eV

  energy without entropy =      -80.52765185  energy(sigma->0) =      -80.52765185


--------------------------------------------------------------------------------------------------------




--------------------------------------- Iteration      1(   7)  ---------------------------------------


    POTLOK:  cpu time  149.9198: real time  150.2304
    SETDIJ:  cpu time    0.0448: real time    0.0449
    EDDIAG:  cpu time    3.7668: real time    3.7741
  RMM-DIIS:  cpu time   13.0802: real time   13.1072
    ORTHCH:  cpu time    0.2122: real time    0.2127
       DOS:  cpu time    0.0003: real time    0.0003
    CHARGE:  cpu time    1.6962: real time    1.6995
    MIXING:  cpu time    0.1464: real time    0.1466
    --------------------------------------------
      LOOP:  cpu time  168.8668: real time  169.2158

 eigenvalue-minimisations  :   232
 total energy-change (2. order) :-0.3920065E+02  (-0.3701028E+01)
 number of electron      65.0000007 magnetization      21.0502497
 augmentation part        1.5814141 magnetization      20.0254781

 Broyden mixing:
  rms(total) = 0.91970E+00    rms(broyden)= 0.91962E+00
  rms(prec ) = 0.92714E+00
  weight for this iteration     100.00

 eigenvalues of (default mixing * dielectric matrix)
  average eigenvalue GAMMA=   1.0898
  0.8078  1.3717

 Free energy of the ion-electron system (eV)
  ---------------------------------------------------
  alpha Z        PSCENC =         0.32162128
  Ewald energy   TEWEN  =      7014.48967361
  -Hartree energ DENC   =     -8607.31710496
  -exchange      EXHF   =         0.00000000
  -V(xc)+E(xc)   XCENC  =       241.47430630
  PAW double counting   =      4035.35550859    -4045.39876506
  entropy T*S    EENTRO =        -0.00000000
  eigenvalues    EBANDS =      -881.80606418
  atomic energy  EATOM  =      2184.94220219
  Solvation  Ediel_sol  =       -61.78968263
  ---------------------------------------------------
  free energy    TOTEN  =      -119.72830486 eV

  energy without entropy =     -119.72830486  energy(sigma->0) =     -119.72830486


--------------------------------------------------------------------------------------------------------




--------------------------------------- Iteration      1(   8)  ---------------------------------------


    POTLOK:  cpu time  155.3344: real time  155.6668
    SETDIJ:  cpu time    0.0473: real time    0.0474
    EDDIAG:  cpu time    3.7506: real time    3.7580
  RMM-DIIS:  cpu time   13.0989: real time   13.1261
    ORTHCH:  cpu time    0.2097: real time    0.2102
       DOS:  cpu time    0.0003: real time    0.0003
    CHARGE:  cpu time    1.7174: real time    1.7210
    MIXING:  cpu time    0.1357: real time    0.1359
    --------------------------------------------
      LOOP:  cpu time  174.2944: real time  174.6657

 eigenvalue-minimisations  :   232
 total energy-change (2. order) :-0.9521175E+01  (-0.7472501E+00)
 number of electron      65.0000007 magnetization      19.7944075
 augmentation part        1.5403446 magnetization      18.7812247

 Broyden mixing:
  rms(total) = 0.55646E+00    rms(broyden)= 0.55643E+00
  rms(prec ) = 0.56011E+00
  weight for this iteration     100.00

 eigenvalues of (default mixing * dielectric matrix)
  average eigenvalue GAMMA=   1.2505
  1.9755  1.0742  0.7017

 Free energy of the ion-electron system (eV)
  ---------------------------------------------------
  alpha Z        PSCENC =         0.32162128
  Ewald energy   TEWEN  =      7014.48967361
  -Hartree energ DENC   =     -8638.25094482
  -exchange      EXHF   =         0.00000000
  -V(xc)+E(xc)   XCENC  =       235.97589463
  PAW double counting   =      5078.21911578    -5088.40309017
  entropy T*S    EENTRO =        -0.00000000
  eigenvalues    EBANDS =      -831.03633285
  atomic energy  EATOM  =      2184.94220219
  Solvation  Ediel_sol  =       -85.50761913
  ---------------------------------------------------
  free energy    TOTEN  =      -129.24947948 eV

  energy without entropy =     -129.24947948  energy(sigma->0) =     -129.24947948


--------------------------------------------------------------------------------------------------------




--------------------------------------- Iteration      1(   9)  ---------------------------------------


    POTLOK:  cpu time  155.1324: real time  155.4641
    SETDIJ:  cpu time    0.0438: real time    0.0439
    EDDIAG:  cpu time    3.7396: real time    3.7471
  RMM-DIIS:  cpu time   13.2087: real time   13.2359
    ORTHCH:  cpu time    0.2089: real time    0.2093
       DOS:  cpu time    0.0002: real time    0.0002
    CHARGE:  cpu time    1.7161: real time    1.7197
    MIXING:  cpu time    0.1629: real time    0.1631
    --------------------------------------------
      LOOP:  cpu time  174.2126: real time  174.5834

 eigenvalue-minimisations  :   234
 total energy-change (2. order) :-0.1184792E+02  (-0.4894245E+00)
 number of electron      65.0000007 magnetization      18.6558708
 augmentation part        1.5182312 magnetization      17.6573974

 Broyden mixing:
  rms(total) = 0.34071E+00    rms(broyden)= 0.34070E+00
  rms(prec ) = 0.34317E+00
  weight for this iteration     100.00

 eigenvalues of (default mixing * dielectric matrix)
  average eigenvalue GAMMA=   1.3178
  2.2391  1.5260  0.8567  0.6493

 Free energy of the ion-electron system (eV)
  ---------------------------------------------------
  alpha Z        PSCENC =         0.32162128
  Ewald energy   TEWEN  =      7014.48967361
  -Hartree energ DENC   =     -8639.07441586
  -exchange      EXHF   =         0.00000000
  -V(xc)+E(xc)   XCENC  =       227.60649140
  PAW double counting   =      5736.93589069    -5746.98954248
  entropy T*S    EENTRO =        -0.00000000
  eigenvalues    EBANDS =      -816.19257797
  atomic energy  EATOM  =      2184.94220219
  Solvation  Ediel_sol  =      -103.13674718
  ---------------------------------------------------
  free energy    TOTEN  =      -141.09740432 eV

  energy without entropy =     -141.09740432  energy(sigma->0) =     -141.09740432


--------------------------------------------------------------------------------------------------------




--------------------------------------- Iteration      1(  10)  ---------------------------------------


    POTLOK:  cpu time  151.4548: real time  151.7792
    SETDIJ:  cpu time    0.0474: real time    0.0475
    EDDIAG:  cpu time    3.7804: real time    3.7882
  RMM-DIIS:  cpu time   13.0562: real time   13.0836
    ORTHCH:  cpu time    0.2112: real time    0.2117
       DOS:  cpu time    0.0003: real time    0.0003
    CHARGE:  cpu time    1.7113: real time    1.7149
    MIXING:  cpu time    0.1650: real time    0.1653
    --------------------------------------------
      LOOP:  cpu time  170.4267: real time  170.7907

 eigenvalue-minimisations  :   232
 total energy-change (2. order) :-0.5340104E+01  (-0.1774663E+00)
 number of electron      65.0000006 magnetization      17.4165168
 augmentation part        1.5114653 magnetization      16.4338178

 Broyden mixing:
  rms(total) = 0.24434E+00    rms(broyden)= 0.24434E+00
  rms(prec ) = 0.24634E+00
  weight for this iteration     100.00

 eigenvalues of (default mixing * dielectric matrix)
  average eigenvalue GAMMA=   1.3080
  2.3466  1.8146  0.9222  0.8300  0.6268

 Free energy of the ion-electron system (eV)
  ---------------------------------------------------
  alpha Z        PSCENC =         0.32162128
  Ewald energy   TEWEN  =      7014.48967361
  -Hartree energ DENC   =     -8626.90050076
  -exchange      EXHF   =         0.00000000
  -V(xc)+E(xc)   XCENC  =       223.38403697
  PAW double counting   =      5936.90001716    -5946.80632583
  entropy T*S    EENTRO =        -0.00000000
  eigenvalues    EBANDS =      -820.89420197
  atomic energy  EATOM  =      2184.94220219
  Solvation  Ediel_sol  =      -111.87403103
  ---------------------------------------------------
  free energy    TOTEN  =      -146.43750837 eV

  energy without entropy =     -146.43750837  energy(sigma->0) =     -146.43750837


--------------------------------------------------------------------------------------------------------




--------------------------------------- Iteration      1(  11)  ---------------------------------------


    POTLOK:  cpu time  146.7498: real time  147.0563
    SETDIJ:  cpu time    0.0467: real time    0.0467
    EDDIAG:  cpu time    3.7492: real time    3.7569
  RMM-DIIS:  cpu time   13.0584: real time   13.0867
    ORTHCH:  cpu time    0.2180: real time    0.2185
       DOS:  cpu time    0.0003: real time    0.0003
    CHARGE:  cpu time    1.7194: real time    1.7228
    MIXING:  cpu time    0.1420: real time    0.1422
    --------------------------------------------
      LOOP:  cpu time  165.6837: real time  166.0306

 eigenvalue-minimisations  :   232
 total energy-change (2. order) :-0.3080242E+01  (-0.9555720E-01)
 number of electron      65.0000006 magnetization      15.1937316
 augmentation part        1.5088349 magnetization      14.2213288

 Broyden mixing:
  rms(total) = 0.19081E+00    rms(broyden)= 0.19081E+00
  rms(prec ) = 0.19237E+00
  weight for this iteration     100.00

 eigenvalues of (default mixing * dielectric matrix)
  average eigenvalue GAMMA=   1.4559
  2.5137  2.5137  1.3930  0.9483  0.7447  0.6218

 Free energy of the ion-electron system (eV)
  ---------------------------------------------------
  alpha Z        PSCENC =         0.32162128
  Ewald energy   TEWEN  =      7014.48967361
  -Hartree energ DENC   =     -8612.86105135
  -exchange      EXHF   =         0.00000000
  -V(xc)+E(xc)   XCENC  =       220.74822406
  PAW double counting   =      5934.31528487    -5944.15259983
  entropy T*S    EENTRO =        -0.00000000
  eigenvalues    EBANDS =      -829.21197021
  atomic energy  EATOM  =      2184.94220219
  Solvation  Ediel_sol  =      -118.10913507
  ---------------------------------------------------
  free energy    TOTEN  =      -149.51775044 eV

  energy without entropy =     -149.51775044  energy(sigma->0) =     -149.51775044


--------------------------------------------------------------------------------------------------------




--------------------------------------- Iteration      1(  12)  ---------------------------------------


    POTLOK:  cpu time  144.4418: real time  144.7493
    SETDIJ:  cpu time    0.0445: real time    0.0446
    EDDIAG:  cpu time    3.7459: real time    3.7544
  RMM-DIIS:  cpu time   13.1141: real time   13.1417
    ORTHCH:  cpu time    0.2173: real time    0.2178
       DOS:  cpu time    0.0002: real time    0.0002
    CHARGE:  cpu time    1.7201: real time    1.7240
    MIXING:  cpu time    0.1488: real time    0.1490
    --------------------------------------------
      LOOP:  cpu time  163.4328: real time  163.7810

 eigenvalue-minimisations  :   232
 total energy-change (2. order) :-0.3219417E+01  (-0.1387894E+00)
 number of electron      65.0000006 magnetization      13.3007912
 augmentation part        1.5065125 magnetization      12.3393444

 Broyden mixing:
  rms(total) = 0.12022E+00    rms(broyden)= 0.12022E+00
  rms(prec ) = 0.12133E+00
  weight for this iteration     100.00

 eigenvalues of (default mixing * dielectric matrix)
  average eigenvalue GAMMA=   1.6582
  4.3738  2.2798  1.7393  0.9896  0.8695  0.7300  0.6254

 Free energy of the ion-electron system (eV)
  ---------------------------------------------------
  alpha Z        PSCENC =         0.32162128
  Ewald energy   TEWEN  =      7014.48967361
  -Hartree energ DENC   =     -8591.24239757
  -exchange      EXHF   =         0.00000000
  -V(xc)+E(xc)   XCENC  =       217.86641201
  PAW double counting   =      5855.17389328    -5864.97885803
  entropy T*S    EENTRO =        -0.00000000
  eigenvalues    EBANDS =      -840.98356577
  atomic energy  EATOM  =      2184.94220219
  Solvation  Ediel_sol  =      -128.32614883
  ---------------------------------------------------
  free energy    TOTEN  =      -152.73716784 eV

  energy without entropy =     -152.73716784  energy(sigma->0) =     -152.73716784


--------------------------------------------------------------------------------------------------------




--------------------------------------- Iteration      1(  13)  ---------------------------------------


    POTLOK:  cpu time  145.6727: real time  145.9863
    SETDIJ:  cpu time    0.0472: real time    0.0473
    EDDIAG:  cpu time    3.7813: real time    3.7908
  RMM-DIIS:  cpu time   13.0843: real time   13.1122
    ORTHCH:  cpu time    0.2132: real time    0.2137
       DOS:  cpu time    0.0003: real time    0.0003
    CHARGE:  cpu time    1.7202: real time    1.7238
    MIXING:  cpu time    0.1574: real time    0.1577
    --------------------------------------------
      LOOP:  cpu time  164.6767: real time  165.0319

 eigenvalue-minimisations  :   232
 total energy-change (2. order) :-0.1222628E+01  (-0.6582132E-01)
 number of electron      65.0000006 magnetization      11.9603380
 augmentation part        1.5035365 magnetization      11.0067926

 Broyden mixing:
  rms(total) = 0.79565E-01    rms(broyden)= 0.79560E-01
  rms(prec ) = 0.80270E-01
  weight for this iteration     100.00

 eigenvalues of (default mixing * dielectric matrix)
  average eigenvalue GAMMA=   1.8313
  6.2137  2.1091  2.1091  1.1929  0.8904  0.8378  0.6241  0.6733

 Free energy of the ion-electron system (eV)
  ---------------------------------------------------
  alpha Z        PSCENC =         0.32162128
  Ewald energy   TEWEN  =      7014.48967361
  -Hartree energ DENC   =     -8577.22947061
  -exchange      EXHF   =         0.00000000
  -V(xc)+E(xc)   XCENC  =       216.71808951
  PAW double counting   =      5808.59555080    -5818.42736960
  entropy T*S    EENTRO =        -0.00000000
  eigenvalues    EBANDS =      -846.51299658
  atomic energy  EATOM  =      2184.94220219
  Solvation  Ediel_sol  =      -136.85709596
  ---------------------------------------------------
  free energy    TOTEN  =      -153.95979536 eV

  energy without entropy =     -153.95979536  energy(sigma->0) =     -153.95979536


--------------------------------------------------------------------------------------------------------




--------------------------------------- Iteration      1(  14)  ---------------------------------------


    POTLOK:  cpu time  142.4196: real time  142.7164
    SETDIJ:  cpu time    0.0486: real time    0.0487
    EDDIAG:  cpu time    3.7734: real time    3.7817
  RMM-DIIS:  cpu time   13.3114: real time   13.3414
    ORTHCH:  cpu time    0.2142: real time    0.2146
       DOS:  cpu time    0.0003: real time    0.0003
    CHARGE:  cpu time    1.7234: real time    1.7270
    MIXING:  cpu time    0.1757: real time    0.1760
    --------------------------------------------
      LOOP:  cpu time  161.6666: real time  162.0062

 eigenvalue-minimisations  :   233
 total energy-change (2. order) :-0.6055958E+00  (-0.1763806E-01)
 number of electron      65.0000006 magnetization      10.6405266
 augmentation part        1.5016228 magnetization       9.6920210

 Broyden mixing:
  rms(total) = 0.60563E-01    rms(broyden)= 0.60559E-01
  rms(prec ) = 0.61014E-01
  weight for this iteration     100.00

 eigenvalues of (default mixing * dielectric matrix)
  average eigenvalue GAMMA=   1.9094
  7.1567  2.1930  2.1930  1.5959  0.9883  0.9883  0.7896  0.6593  0.6210

 Free energy of the ion-electron system (eV)
  ---------------------------------------------------
  alpha Z        PSCENC =         0.32162128
  Ewald energy   TEWEN  =      7014.48967361
  -Hartree energ DENC   =     -8568.66694258
  -exchange      EXHF   =         0.00000000
  -V(xc)+E(xc)   XCENC  =       216.06657746
  PAW double counting   =      5784.77183236    -5794.62155537
  entropy T*S    EENTRO =        -0.00000000
  eigenvalues    EBANDS =      -849.56520637
  atomic energy  EATOM  =      2184.94220219
  Solvation  Ediel_sol  =      -142.30359373
  ---------------------------------------------------
  free energy    TOTEN  =      -154.56539115 eV

  energy without entropy =     -154.56539115  energy(sigma->0) =     -154.56539115


--------------------------------------------------------------------------------------------------------




--------------------------------------- Iteration      1(  15)  ---------------------------------------


    POTLOK:  cpu time  141.8118: real time  142.1148
    SETDIJ:  cpu time    0.0455: real time    0.0456
    EDDIAG:  cpu time    3.7454: real time    3.7541
  RMM-DIIS:  cpu time   13.0158: real time   13.0433
    ORTHCH:  cpu time    0.2182: real time    0.2187
       DOS:  cpu time    0.0002: real time    0.0002
    CHARGE:  cpu time    1.7166: real time    1.7200
    MIXING:  cpu time    0.1759: real time    0.1761
    --------------------------------------------
      LOOP:  cpu time  160.7294: real time  161.0729

 eigenvalue-minimisations  :   232
 total energy-change (2. order) :-0.5195314E+00  (-0.3765204E-02)
 number of electron      65.0000006 magnetization       9.1850435
 augmentation part        1.5018148 magnetization       8.2387657

 Broyden mixing:
  rms(total) = 0.46249E-01    rms(broyden)= 0.46248E-01
  rms(prec ) = 0.46422E-01
  weight for this iteration     100.00

 eigenvalues of (default mixing * dielectric matrix)
  average eigenvalue GAMMA=   2.0006
  7.9450  2.8729  2.2657  1.9063  1.1537  0.9193  0.9193  0.7530  0.6484  0.6219

 Free energy of the ion-electron system (eV)
  ---------------------------------------------------
  alpha Z        PSCENC =         0.32162128
  Ewald energy   TEWEN  =      7014.48967361
  -Hartree energ DENC   =     -8561.43176524
  -exchange      EXHF   =         0.00000000
  -V(xc)+E(xc)   XCENC  =       215.46186270
  PAW double counting   =      5776.37394502    -5786.21976155
  entropy T*S    EENTRO =        -0.00000000
  eigenvalues    EBANDS =      -852.19943892
  atomic energy  EATOM  =      2184.94220219
  Solvation  Ediel_sol  =      -146.82326164
  ---------------------------------------------------
  free energy    TOTEN  =      -155.08492255 eV

  energy without entropy =     -155.08492255  energy(sigma->0) =     -155.08492255


--------------------------------------------------------------------------------------------------------




--------------------------------------- Iteration      1(  16)  ---------------------------------------


    POTLOK:  cpu time  141.2107: real time  141.5121
    SETDIJ:  cpu time    0.0452: real time    0.0452
    EDDIAG:  cpu time    3.7549: real time    3.7639
  RMM-DIIS:  cpu time   13.0555: real time   13.0824
    ORTHCH:  cpu time    0.2170: real time    0.2175
       DOS:  cpu time    0.0004: real time    0.0004
    CHARGE:  cpu time    1.7483: real time    1.7520
    MIXING:  cpu time    0.2334: real time    0.2338
    --------------------------------------------
      LOOP:  cpu time  160.2653: real time  160.6073

 eigenvalue-minimisations  :   232
 total energy-change (2. order) :-0.1120107E+00  (-0.1446372E-02)
 number of electron      65.0000006 magnetization       8.2112290
 augmentation part        1.5018174 magnetization       7.2655205

 Broyden mixing:
  rms(total) = 0.35449E-01    rms(broyden)= 0.35449E-01
  rms(prec ) = 0.35516E-01
  weight for this iteration     100.00

 eigenvalues of (default mixing * dielectric matrix)
  average eigenvalue GAMMA=   2.1016
  8.8777  3.8691  2.0884  2.0884  1.3862  0.9883  0.9883  0.8459  0.7237  0.6248
  0.6365

 Free energy of the ion-electron system (eV)
  ---------------------------------------------------
  alpha Z        PSCENC =         0.32162128
  Ewald energy   TEWEN  =      7014.48967361
  -Hartree energ DENC   =     -8556.10535556
  -exchange      EXHF   =         0.00000000
  -V(xc)+E(xc)   XCENC  =       215.31769521
  PAW double counting   =      5788.26263522    -5798.10893141
  entropy T*S    EENTRO =        -0.00000000
  eigenvalues    EBANDS =      -853.00154756
  atomic energy  EATOM  =      2184.94220219
  Solvation  Ediel_sol  =      -151.31492625
  ---------------------------------------------------
  free energy    TOTEN  =      -155.19693326 eV

  energy without entropy =     -155.19693326  energy(sigma->0) =     -155.19693326


--------------------------------------------------------------------------------------------------------




--------------------------------------- Iteration      1(  17)  ---------------------------------------


    POTLOK:  cpu time  135.0156: real time  135.2992
    SETDIJ:  cpu time    0.0491: real time    0.0492
    EDDIAG:  cpu time    3.7862: real time    3.7943
  RMM-DIIS:  cpu time   13.0726: real time   13.1009
    ORTHCH:  cpu time    0.2222: real time    0.2227
       DOS:  cpu time    0.0002: real time    0.0002
    CHARGE:  cpu time    1.7227: real time    1.7262
    MIXING:  cpu time    0.2102: real time    0.2105
    --------------------------------------------
      LOOP:  cpu time  154.0788: real time  154.4033

 eigenvalue-minimisations  :   233
 total energy-change (2. order) :-0.8133806E-01  (-0.2417527E-03)
 number of electron      65.0000006 magnetization       6.7627677
 augmentation part        1.5017699 magnetization       5.8172880

 Broyden mixing:
  rms(total) = 0.30207E-01    rms(broyden)= 0.30207E-01
  rms(prec ) = 0.30245E-01
  weight for this iteration     100.00

 eigenvalues of (default mixing * dielectric matrix)
  average eigenvalue GAMMA=   2.1771
  9.5704  4.4952  2.2487  2.2487  1.6077  1.1809  0.9935  0.9935  0.8110  0.7159
  0.6241  0.6362

 Free energy of the ion-electron system (eV)
  ---------------------------------------------------
  alpha Z        PSCENC =         0.32162128
  Ewald energy   TEWEN  =      7014.48967361
  -Hartree energ DENC   =     -8553.93661806
  -exchange      EXHF   =         0.00000000
  -V(xc)+E(xc)   XCENC  =       215.21724558
  PAW double counting   =      5794.30243573    -5804.14854644
  entropy T*S    EENTRO =        -0.00000000
  eigenvalues    EBANDS =      -852.90268773
  atomic energy  EATOM  =      2184.94220219
  Solvation  Ediel_sol  =      -153.56359749
  ---------------------------------------------------
  free energy    TOTEN  =      -155.27827132 eV

  energy without entropy =     -155.27827132  energy(sigma->0) =     -155.27827132


--------------------------------------------------------------------------------------------------------




--------------------------------------- Iteration      1(  18)  ---------------------------------------


    POTLOK:  cpu time  136.9837: real time  137.2780
    SETDIJ:  cpu time    0.0470: real time    0.0471
    EDDIAG:  cpu time    3.7552: real time    3.7636
  RMM-DIIS:  cpu time   13.1118: real time   13.1396
    ORTHCH:  cpu time    0.2174: real time    0.2179
       DOS:  cpu time    0.0003: real time    0.0003
    CHARGE:  cpu time    1.7257: real time    1.7295
    MIXING:  cpu time    0.2083: real time    0.2088
    --------------------------------------------
      LOOP:  cpu time  156.0495: real time  156.3848

 eigenvalue-minimisations  :   232
 total energy-change (2. order) :-0.7654176E-01  (-0.1426588E-03)
 number of electron      65.0000006 magnetization       5.8020821
 augmentation part        1.5019104 magnetization       4.8567235

 Broyden mixing:
  rms(total) = 0.24327E-01    rms(broyden)= 0.24327E-01
  rms(prec ) = 0.24366E-01
  weight for this iteration     100.00

 eigenvalues of (default mixing * dielectric matrix)
  average eigenvalue GAMMA=   2.2264
 10.1477  5.2457  2.4170  2.4170  1.8420  1.2468  0.9840  0.9840  0.9185  0.7745
  0.7068  0.6235  0.6360

 Free energy of the ion-electron system (eV)
  ---------------------------------------------------
  alpha Z        PSCENC =         0.32162128
  Ewald energy   TEWEN  =      7014.48967361
  -Hartree energ DENC   =     -8552.13831327
  -exchange      EXHF   =         0.00000000
  -V(xc)+E(xc)   XCENC  =       215.11933982
  PAW double counting   =      5800.03789323    -5809.87907539
  entropy T*S    EENTRO =        -0.00000000
  eigenvalues    EBANDS =      -852.56940309
  atomic energy  EATOM  =      2184.94220219
  Solvation  Ediel_sol  =      -155.67875147
  ---------------------------------------------------
  free energy    TOTEN  =      -155.35481308 eV

  energy without entropy =     -155.35481308  energy(sigma->0) =     -155.35481308


--------------------------------------------------------------------------------------------------------




--------------------------------------- Iteration      1(  19)  ---------------------------------------


    POTLOK:  cpu time  135.6322: real time  135.9212
    SETDIJ:  cpu time    0.0486: real time    0.0487
    EDDIAG:  cpu time    3.7673: real time    3.7755
  RMM-DIIS:  cpu time   13.0241: real time   13.0529
    ORTHCH:  cpu time    0.2175: real time    0.2180
       DOS:  cpu time    0.0004: real time    0.0004
    CHARGE:  cpu time    1.7307: real time    1.7342
    MIXING:  cpu time    0.2198: real time    0.2203
    --------------------------------------------
      LOOP:  cpu time  154.6407: real time  154.9712

 eigenvalue-minimisations  :   232
 total energy-change (2. order) :-0.1950093E-01  (-0.9300346E-04)
 number of electron      65.0000006 magnetization       4.1595224
 augmentation part        1.5018003 magnetization       3.2141527

 Broyden mixing:
  rms(total) = 0.20879E-01    rms(broyden)= 0.20879E-01
  rms(prec ) = 0.20917E-01
  weight for this iteration     100.00

 eigenvalues of (default mixing * dielectric matrix)
  average eigenvalue GAMMA=   2.3056
 10.7710  5.9861  3.0480  2.1532  2.1532  1.4189  1.1418  1.0339  1.0339  0.8477
  0.7404  0.6936  0.6234  0.6330

 Free energy of the ion-electron system (eV)
  ---------------------------------------------------
  alpha Z        PSCENC =         0.32162128
  Ewald energy   TEWEN  =      7014.48967361
  -Hartree energ DENC   =     -8551.87128242
  -exchange      EXHF   =         0.00000000
  -V(xc)+E(xc)   XCENC  =       215.11380361
  PAW double counting   =      5803.44087969    -5813.28362029
  entropy T*S    EENTRO =        -0.00000000
  eigenvalues    EBANDS =      -852.16451698
  atomic energy  EATOM  =      2184.94220219
  Solvation  Ediel_sol  =      -156.36307469
  ---------------------------------------------------
  free energy    TOTEN  =      -155.37431401 eV

  energy without entropy =     -155.37431401  energy(sigma->0) =     -155.37431401


--------------------------------------------------------------------------------------------------------




--------------------------------------- Iteration      1(  20)  ---------------------------------------


    POTLOK:  cpu time  129.8532: real time  130.1305
    SETDIJ:  cpu time    0.0465: real time    0.0466
    EDDIAG:  cpu time    3.7503: real time    3.7582
  RMM-DIIS:  cpu time   13.2355: real time   13.2641
    ORTHCH:  cpu time    0.2185: real time    0.2190
       DOS:  cpu time    0.0004: real time    0.0004
    CHARGE:  cpu time    1.7490: real time    1.7527
    MIXING:  cpu time    0.2511: real time    0.2516
    --------------------------------------------
      LOOP:  cpu time  149.1045: real time  149.4230

 eigenvalue-minimisations  :   232
 total energy-change (2. order) :-0.2033024E-01  (-0.1382309E-03)
 number of electron      65.0000006 magnetization       2.9026821
 augmentation part        1.5017008 magnetization       1.9574209

 Broyden mixing:
  rms(total) = 0.15108E-01    rms(broyden)= 0.15108E-01
  rms(prec ) = 0.15171E-01
  weight for this iteration     100.00

 eigenvalues of (default mixing * dielectric matrix)
  average eigenvalue GAMMA=   2.4450
 11.9462  7.0572  3.8341  2.2420  2.2420  1.7203  1.1316  0.9927  0.9927  1.0348
  0.8203  0.7324  0.6779  0.6223  0.6292

 Free energy of the ion-electron system (eV)
  ---------------------------------------------------
  alpha Z        PSCENC =         0.32162128
  Ewald energy   TEWEN  =      7014.48967361
  -Hartree energ DENC   =     -8551.94059345
  -exchange      EXHF   =         0.00000000
  -V(xc)+E(xc)   XCENC  =       215.10560095
  PAW double counting   =      5797.18728675    -5807.03380750
  entropy T*S    EENTRO =        -0.00000000
  eigenvalues    EBANDS =      -852.03300844
  atomic energy  EATOM  =      2184.94220219
  Solvation  Ediel_sol  =      -156.43361965
  ---------------------------------------------------
  free energy    TOTEN  =      -155.39464425 eV

  energy without entropy =     -155.39464425  energy(sigma->0) =     -155.39464425


--------------------------------------------------------------------------------------------------------




--------------------------------------- Iteration      1(  21)  ---------------------------------------


    POTLOK:  cpu time  132.6067: real time  132.8806
    SETDIJ:  cpu time    0.0508: real time    0.0509
    EDDIAG:  cpu time    3.7552: real time    3.7626
  RMM-DIIS:  cpu time   13.0638: real time   13.0916
    ORTHCH:  cpu time    0.2220: real time    0.2225
       DOS:  cpu time    0.0003: real time    0.0003
    CHARGE:  cpu time    1.7341: real time    1.7378
    MIXING:  cpu time    0.2769: real time    0.2774
    --------------------------------------------
      LOOP:  cpu time  151.7098: real time  152.0238

 eigenvalue-minimisations  :   232
 total energy-change (2. order) :-0.1178642E-01  (-0.1413636E-03)
 number of electron      65.0000006 magnetization       1.9658129
 augmentation part        1.5018015 magnetization       1.0206946

 Broyden mixing:
  rms(total) = 0.10772E-01    rms(broyden)= 0.10771E-01
  rms(prec ) = 0.10845E-01
  weight for this iteration     100.00

 eigenvalues of (default mixing * dielectric matrix)
  average eigenvalue GAMMA=   2.6031
 13.9210  8.0944  4.3729  2.3032  2.3032  1.9478  1.1761  1.1241  1.1241  0.9590
  0.9045  0.7636  0.7413  0.6672  0.6207  0.6260

 Free energy of the ion-electron system (eV)
  ---------------------------------------------------
  alpha Z        PSCENC =         0.32162128
  Ewald energy   TEWEN  =      7014.48967361
  -Hartree energ DENC   =     -8552.16962199
  -exchange      EXHF   =         0.00000000
  -V(xc)+E(xc)   XCENC  =       215.08790567
  PAW double counting   =      5791.06008120    -5800.90587977
  entropy T*S    EENTRO =        -0.00000000
  eigenvalues    EBANDS =      -852.24883637
  atomic energy  EATOM  =      2184.94220219
  Solvation  Ediel_sol  =      -155.98357650
  ---------------------------------------------------
  free energy    TOTEN  =      -155.40643067 eV

  energy without entropy =     -155.40643067  energy(sigma->0) =     -155.40643067


--------------------------------------------------------------------------------------------------------




--------------------------------------- Iteration      1(  22)  ---------------------------------------


    POTLOK:  cpu time  130.8861: real time  131.1656
    SETDIJ:  cpu time    0.0483: real time    0.0484
    EDDIAG:  cpu time    3.7430: real time    3.7505
  RMM-DIIS:  cpu time   13.1000: real time   13.1267
    ORTHCH:  cpu time    0.2182: real time    0.2187
       DOS:  cpu time    0.0003: real time    0.0003
    CHARGE:  cpu time    1.7323: real time    1.7357
    MIXING:  cpu time    0.2739: real time    0.2744
    --------------------------------------------
      LOOP:  cpu time  150.0021: real time  150.3201

 eigenvalue-minimisations  :   232
 total energy-change (2. order) :-0.2626857E-01  (-0.9404804E-04)
 number of electron      65.0000006 magnetization       1.4017946
 augmentation part        1.5018319 magnetization       0.4567127

 Broyden mixing:
  rms(total) = 0.67729E-02    rms(broyden)= 0.67727E-02
  rms(prec ) = 0.68527E-02
  weight for this iteration     100.00

 eigenvalues of (default mixing * dielectric matrix)
  average eigenvalue GAMMA=   2.8459
 17.6400  8.9365  4.8656  2.7246  2.1617  2.1617  1.5418  1.0818  1.0818  0.9951
  0.9951  0.8513  0.7424  0.7053  0.6542  0.6197  0.6223

 Free energy of the ion-electron system (eV)
  ---------------------------------------------------
  alpha Z        PSCENC =         0.32162128
  Ewald energy   TEWEN  =      7014.48967361
  -Hartree energ DENC   =     -8552.73397913
  -exchange      EXHF   =         0.00000000
  -V(xc)+E(xc)   XCENC  =       215.06448072
  PAW double counting   =      5791.63079873    -5801.47588899
  entropy T*S    EENTRO =        -0.00000000
  eigenvalues    EBANDS =      -852.30406933
  atomic energy  EATOM  =      2184.94220219
  Solvation  Ediel_sol  =      -155.36753832
  ---------------------------------------------------
  free energy    TOTEN  =      -155.43269924 eV

  energy without entropy =     -155.43269924  energy(sigma->0) =     -155.43269924


--------------------------------------------------------------------------------------------------------




--------------------------------------- Iteration      1(  23)  ---------------------------------------


    POTLOK:  cpu time  133.8336: real time  134.1131
    SETDIJ:  cpu time    0.0436: real time    0.0437
    EDDIAG:  cpu time    3.7538: real time    3.7615
  RMM-DIIS:  cpu time   13.0182: real time   13.0463
    ORTHCH:  cpu time    0.2177: real time    0.2182
       DOS:  cpu time    0.0004: real time    0.0004
    CHARGE:  cpu time    1.7391: real time    1.7429
    MIXING:  cpu time    0.2987: real time    0.2992
    --------------------------------------------
      LOOP:  cpu time  152.9052: real time  153.2253

 eigenvalue-minimisations  :   230
 total energy-change (2. order) :-0.1950425E-01  (-0.3242654E-04)
 number of electron      65.0000006 magnetization       1.1680044
 augmentation part        1.5017887 magnetization       0.2229069

 Broyden mixing:
  rms(total) = 0.39409E-02    rms(broyden)= 0.39409E-02
  rms(prec ) = 0.39984E-02
  weight for this iteration     100.00

 eigenvalues of (default mixing * dielectric matrix)
  average eigenvalue GAMMA=   3.0475
 21.7068  9.3587  5.2447  3.0718  2.2101  2.2101  1.7391  1.1128  1.1128  1.1305
  0.9237  0.9237  0.8071  0.7458  0.6814  0.6388  0.6234  0.6144

 Free energy of the ion-electron system (eV)
  ---------------------------------------------------
  alpha Z        PSCENC =         0.32162128
  Ewald energy   TEWEN  =      7014.48967361
  -Hartree energ DENC   =     -8553.25748336
  -exchange      EXHF   =         0.00000000
  -V(xc)+E(xc)   XCENC  =       215.04999819
  PAW double counting   =      5794.30120189    -5804.14605810
  entropy T*S    EENTRO =        -0.00000000
  eigenvalues    EBANDS =      -852.27355863
  atomic energy  EATOM  =      2184.94220219
  Solvation  Ediel_sol  =      -154.87980057
  ---------------------------------------------------
  free energy    TOTEN  =      -155.45220349 eV

  energy without entropy =     -155.45220349  energy(sigma->0) =     -155.45220349


--------------------------------------------------------------------------------------------------------




--------------------------------------- Iteration      1(  24)  ---------------------------------------


    POTLOK:  cpu time  125.0547: real time  125.3181
    SETDIJ:  cpu time    0.0488: real time    0.0489
    EDDIAG:  cpu time    3.7546: real time    3.7624
  RMM-DIIS:  cpu time   12.0894: real time   12.1155
    ORTHCH:  cpu time    0.2226: real time    0.2231
       DOS:  cpu time    0.0002: real time    0.0002
    CHARGE:  cpu time    1.7202: real time    1.7237
    MIXING:  cpu time    0.2902: real time    0.2907
    --------------------------------------------
      LOOP:  cpu time  143.1807: real time  143.4825

 eigenvalue-minimisations  :   211
 total energy-change (2. order) :-0.1169746E-01  (-0.1449331E-04)
 number of electron      65.0000006 magnetization       1.0821155
 augmentation part        1.5017608 magnetization       0.1370210

 Broyden mixing:
  rms(total) = 0.25089E-02    rms(broyden)= 0.25089E-02
  rms(prec ) = 0.25544E-02
  weight for this iteration     100.00

 eigenvalues of (default mixing * dielectric matrix)
  average eigenvalue GAMMA=   3.1016
 23.8072  9.5400  5.4513  3.2960  2.2784  2.2784  1.8084  1.3192  1.1185  1.1185
  0.9470  0.9470  0.9669  0.7837  0.7315  0.6727  0.6293  0.6263  0.6110

 Free energy of the ion-electron system (eV)
  ---------------------------------------------------
  alpha Z        PSCENC =         0.32162128
  Ewald energy   TEWEN  =      7014.48967361
  -Hartree energ DENC   =     -8553.48708833
  -exchange      EXHF   =         0.00000000
  -V(xc)+E(xc)   XCENC  =       215.03780401
  PAW double counting   =      5795.48374573    -5805.32791098
  entropy T*S    EENTRO =        -0.00000000
  eigenvalues    EBANDS =      -852.28857585
  atomic energy  EATOM  =      2184.94220219
  Solvation  Ediel_sol  =      -154.63537261
  ---------------------------------------------------
  free energy    TOTEN  =      -155.46390095 eV

  energy without entropy =     -155.46390095  energy(sigma->0) =     -155.46390095


--------------------------------------------------------------------------------------------------------




--------------------------------------- Iteration      1(  25)  ---------------------------------------


    POTLOK:  cpu time  122.5339: real time  122.7914
    SETDIJ:  cpu time    0.0472: real time    0.0473
    EDDIAG:  cpu time    3.7475: real time    3.7552
  RMM-DIIS:  cpu time   11.6043: real time   11.6282
    ORTHCH:  cpu time    0.2210: real time    0.2215
       DOS:  cpu time    0.0003: real time    0.0003
    CHARGE:  cpu time    1.7378: real time    1.7417
    MIXING:  cpu time    0.3056: real time    0.3062
    --------------------------------------------
      LOOP:  cpu time  140.1977: real time  140.4918

 eigenvalue-minimisations  :   204
 total energy-change (2. order) :-0.9814761E-02  (-0.1251610E-04)
 number of electron      65.0000006 magnetization       1.0335178
 augmentation part        1.5017495 magnetization       0.0884267

 Broyden mixing:
  rms(total) = 0.16694E-02    rms(broyden)= 0.16694E-02
  rms(prec ) = 0.17012E-02
  weight for this iteration     100.00

 eigenvalues of (default mixing * dielectric matrix)
  average eigenvalue GAMMA=   3.1117
 24.8775  9.6428  5.6229  3.5792  2.3501  2.3501  1.9525  1.6877  1.1345  1.1345
  1.1453  0.9403  0.9403  0.8577  0.7719  0.7178  0.6643  0.6256  0.6256  0.6128

 Free energy of the ion-electron system (eV)
  ---------------------------------------------------
  alpha Z        PSCENC =         0.32162128
  Ewald energy   TEWEN  =      7014.48967361
  -Hartree energ DENC   =     -8553.60194168
  -exchange      EXHF   =         0.00000000
  -V(xc)+E(xc)   XCENC  =       215.02789460
  PAW double counting   =      5796.14025912    -5805.98410219
  entropy T*S    EENTRO =        -0.00000000
  eigenvalues    EBANDS =      -852.29708844
  atomic energy  EATOM  =      2184.94220219
  Solvation  Ediel_sol  =      -154.51223421
  ---------------------------------------------------
  free energy    TOTEN  =      -155.47371571 eV

  energy without entropy =     -155.47371571  energy(sigma->0) =     -155.47371571


--------------------------------------------------------------------------------------------------------




--------------------------------------- Iteration      1(  26)  ---------------------------------------


    POTLOK:  cpu time  123.1131: real time  123.3789
    SETDIJ:  cpu time    0.0443: real time    0.0443
    EDDIAG:  cpu time    3.7500: real time    3.7578
  RMM-DIIS:  cpu time   11.4858: real time   11.5104
    ORTHCH:  cpu time    0.2185: real time    0.2190
       DOS:  cpu time    0.0004: real time    0.0004
    CHARGE:  cpu time    1.7183: real time    1.7219
    MIXING:  cpu time    0.3297: real time    0.3304
    --------------------------------------------
      LOOP:  cpu time  140.6601: real time  140.9630

 eigenvalue-minimisations  :   203
 total energy-change (2. order) :-0.7137575E-02  (-0.1256534E-04)
 number of electron      65.0000006 magnetization       1.0141582
 augmentation part        1.5017355 magnetization       0.0690661

 Broyden mixing:
  rms(total) = 0.99571E-03    rms(broyden)= 0.99570E-03
  rms(prec ) = 0.10143E-02
  weight for this iteration     100.00

 eigenvalues of (default mixing * dielectric matrix)
  average eigenvalue GAMMA=   3.1122
 25.4666  9.7084  5.8466  4.0755  2.7660  2.2455  2.2455  1.7385  1.2965  1.1256
  1.1256  1.0259  0.9437  0.9437  0.8116  0.7651  0.7077  0.6561  0.6246  0.6191
  0.6191

 Free energy of the ion-electron system (eV)
  ---------------------------------------------------
  alpha Z        PSCENC =         0.32162128
  Ewald energy   TEWEN  =      7014.48967361
  -Hartree energ DENC   =     -8553.69934832
  -exchange      EXHF   =         0.00000000
  -V(xc)+E(xc)   XCENC  =       215.02143580
  PAW double counting   =      5796.27713200    -5806.12118354
  entropy T*S    EENTRO =        -0.00000000
  eigenvalues    EBANDS =      -852.30669778
  atomic energy  EATOM  =      2184.94220219
  Solvation  Ediel_sol  =      -154.40568853
  ---------------------------------------------------
  free energy    TOTEN  =      -155.48085329 eV

  energy without entropy =     -155.48085329  energy(sigma->0) =     -155.48085329


--------------------------------------------------------------------------------------------------------




--------------------------------------- Iteration      1(  27)  ---------------------------------------


    POTLOK:  cpu time  117.7157: real time  117.9523
    SETDIJ:  cpu time    0.0466: real time    0.0467
    EDDIAG:  cpu time    3.7572: real time    3.7642
  RMM-DIIS:  cpu time   11.2030: real time   11.2267
    ORTHCH:  cpu time    0.2223: real time    0.2228
       DOS:  cpu time    0.0002: real time    0.0002
    CHARGE:  cpu time    1.7147: real time    1.7183
    MIXING:  cpu time    0.3382: real time    0.3389
    --------------------------------------------
      LOOP:  cpu time  134.9979: real time  135.2701

 eigenvalue-minimisations  :   196
 total energy-change (2. order) :-0.2573379E-02  (-0.5736331E-05)
 number of electron      65.0000006 magnetization       1.0053923
 augmentation part        1.5017224 magnetization       0.0603035

 Broyden mixing:
  rms(total) = 0.61266E-03    rms(broyden)= 0.61265E-03
  rms(prec ) = 0.62564E-03
  weight for this iteration     100.00

 eigenvalues of (default mixing * dielectric matrix)
  average eigenvalue GAMMA=   3.0946
 25.7229  9.7537  6.1119  4.5781  3.0164  2.2604  2.2604  1.6844  1.6570  1.1389
  1.1389  1.1871  0.9435  0.9435  0.9224  0.7935  0.7529  0.7003  0.6534  0.6254
  0.6182  0.6182

 Free energy of the ion-electron system (eV)
  ---------------------------------------------------
  alpha Z        PSCENC =         0.32162128
  Ewald energy   TEWEN  =      7014.48967361
  -Hartree energ DENC   =     -8553.75155903
[...]


    POTLOK:  cpu time  116.7578: real time  117.0053
    SETDIJ:  cpu time    0.0484: real time    0.0485
    EDDIAG:  cpu time    3.7484: real time    3.7562
  RMM-DIIS:  cpu time   10.8756: real time   10.8997
    ORTHCH:  cpu time    0.2165: real time    0.2169
       DOS:  cpu time    0.0003: real time    0.0003
    --------------------------------------------
      LOOP:  cpu time  131.6470: real time  131.9269

 eigenvalue-minimisations  :   187
 total energy-change (2. order) :-0.1941438E-05  (-0.3457463E-05)
 number of electron      65.0000004 magnetization       1.0000001
 augmentation part        1.5003395 magnetization       0.0544589

 Free energy of the ion-electron system (eV)
  ---------------------------------------------------
  alpha Z        PSCENC =         0.32162128
  Ewald energy   TEWEN  =      7030.77183319
  -Hartree energ DENC   =     -8570.37627036
  -exchange      EXHF   =         0.00000000
  -V(xc)+E(xc)   XCENC  =       215.00214295
  PAW double counting   =      5789.37256372    -5799.21272488
  entropy T*S    EENTRO =        -0.00000000
  eigenvalues    EBANDS =      -852.20017862
  atomic energy  EATOM  =      2184.94220219
  Solvation  Ediel_sol  =      -154.18876370
  ---------------------------------------------------
  free energy    TOTEN  =      -155.56757423 eV

  energy without entropy =     -155.56757423  energy(sigma->0) =     -155.56757423


--------------------------------------------------------------------------------------------------------




 average (electrostatic) potential at core
  the test charge radii are     0.6991  0.5201
  (the norm of the test charge is              1.0000)
       1 -59.5445       2 -59.8291       3 -59.5445       4 -59.8233       5 -60.5736
       6 -59.8232       7 -60.4640       8 -60.4640       9 -60.5735      10 -59.8232
      11 -59.5445      12 -59.8290      13 -59.5445      14 -59.8233      15 -42.7077
      16 -42.7077      17 -42.5319      18 -42.6211      19 -42.5320      20 -42.7076
      21 -42.7078      22 -42.5317      23 -42.6211      24 -42.5321
 
 
 
 E-fermi :  -6.2041     XC(G=0):  -0.0554     alpha+bet : -0.0262


 spin component 1

 k-point     1 :       0.0000    0.0000    0.0000
  band No.  band energies     occupation 
      1     -22.4412      1.00000
      2     -22.2969      1.00000
      3     -20.7861      1.00000
      4     -19.9496      1.00000
      5     -19.3449      1.00000
      6     -19.3399      1.00000
      7     -18.7170      1.00000
      8     -16.6678      1.00000
      9     -15.8975      1.00000
     10     -15.7026      1.00000
     11     -15.6586      1.00000
     12     -14.1557      1.00000
     13     -13.7744      1.00000
     14     -12.5538      1.00000
     15     -12.3168      1.00000
     16     -12.0814      1.00000
     17     -11.9332      1.00000
     18     -11.1786      1.00000
     19     -11.0831      1.00000
     20     -10.9530      1.00000
     21     -10.9436      1.00000
     22     -10.6875      1.00000
     23     -10.1890      1.00000
     24      -9.3142      1.00000
     25      -9.2396      1.00000
     26      -9.1219      1.00000
     27      -9.0287      1.00000
     28      -8.9638      1.00000
     29      -7.7979      1.00000
     30      -7.6301      1.00000
     31      -7.2722      1.00000
     32      -7.2697      1.00000
     33      -6.4264      1.00000
     34      -3.4786      0.00000
     35      -2.0179      0.00000
     36      -1.9857      0.00000
     37      -1.9440      0.00000
     38      -1.0257      0.00000
     39      -0.5880      0.00000
     40      -0.2985      0.00000
     41      -0.0767      0.00000
     42      -0.0092      0.00000
     43       0.0331      0.00000
     44       0.0436      0.00000
     45       0.0816      0.00000
     46       0.0949      0.00000
     47       0.0954      0.00000
     48       0.0982      0.00000
     49       0.1129      0.00000
     50       0.1310      0.00000
     51       0.1418      0.00000
     52       0.1634      0.00000
     53       0.1740      0.00000
     54       0.1747      0.00000
     55       0.1748      0.00000
     56       0.1756      0.00000
     57       0.1760      0.00000
     58       0.1848      0.00000

 spin component 2

 k-point     1 :       0.0000    0.0000    0.0000
  band No.  band energies     occupation 
      1     -22.3399      1.00000
      2     -22.2113      1.00000
      3     -20.6275      1.00000
      4     -19.8520      1.00000
      5     -19.3056      1.00000
      6     -19.3009      1.00000
      7     -18.5152      1.00000
      8     -16.5756      1.00000
      9     -15.8128      1.00000
     10     -15.6538      1.00000
     11     -15.6091      1.00000
     12     -14.1217      1.00000
     13     -13.7505      1.00000
     14     -12.4999      1.00000
     15     -12.2705      1.00000
     16     -12.0468      1.00000
     17     -11.8996      1.00000
     18     -11.1426      1.00000
     19     -11.0469      1.00000
     20     -10.9436      1.00000
     21     -10.9349      1.00000
     22     -10.3972      1.00000
     23      -9.9838      1.00000
     24      -9.2875      1.00000
     25      -9.2173      1.00000
     26      -9.0925      1.00000
     27      -8.9395      1.00000
     28      -8.6993      1.00000
     29      -7.5517      1.00000
     30      -7.5171      1.00000
     31      -7.1697      1.00000
     32      -7.1673      1.00000
     33      -5.9815      0.00000
     34      -3.1496      0.00000
     35      -1.8969      0.00000
     36      -1.8614      0.00000
     37      -1.6525      0.00000
     38      -0.9700      0.00000
     39      -0.5678      0.00000
     40      -0.2878      0.00000
     41      -0.0724      0.00000
     42      -0.0082      0.00000
     43       0.0400      0.00000
     44       0.0495      0.00000
     45       0.0811      0.00000
     46       0.0947      0.00000
     47       0.0966      0.00000
     48       0.0988      0.00000
     49       0.1170      0.00000
     50       0.1345      0.00000
     51       0.1367      0.00000
     52       0.1638      0.00000
     53       0.1723      0.00000
     54       0.1741      0.00000
     55       0.1771      0.00000
     56       0.1772      0.00000
     57       0.1778      0.00000
     58       0.1910      0.00000


--------------------------------------------------------------------------------------------------------


 soft charge-density along one line, spin component           1
         0         1         2         3         4         5         6         7         8         9
 total charge-density along one line
 
 soft charge-density along one line, spin component           2
         0         1         2         3         4         5         6         7         8         9
 total charge-density along one line
 
 pseudopotential strength for first ion, spin component:           1
 10.300  13.699  -0.002  -0.000  -0.001   0.006   0.000   0.004
 13.699  18.219  -0.002  -0.000  -0.001   0.008   0.000   0.005
 -0.002  -0.002  -4.418  -0.000   0.001   8.642   0.000  -0.002
 -0.000  -0.000  -0.000  -4.413   0.000   0.000   8.637  -0.000
 -0.001  -0.001   0.001   0.000  -4.420  -0.002  -0.000   8.645
  0.006   0.008   8.642   0.000  -0.002 -19.044  -0.000   0.003
  0.000   0.000   0.000   8.637  -0.000  -0.000 -19.045   0.000
  0.004   0.005  -0.002  -0.000   8.645   0.003   0.000 -19.050
 pseudopotential strength for first ion, spin component:           2
 10.304  13.705  -0.002  -0.000  -0.001   0.006   0.000   0.004
 13.705  18.228  -0.003  -0.000  -0.001   0.009   0.000   0.005
 -0.002  -0.003  -4.419  -0.000   0.001   8.642   0.000  -0.002
 -0.000  -0.000  -0.000  -4.416   0.000   0.000   8.642  -0.000
 -0.001  -0.001   0.001   0.000  -4.421  -0.002  -0.000   8.645
  0.006   0.009   8.642   0.000  -0.002 -19.042   0.000   0.004
  0.000   0.000   0.000   8.642  -0.000   0.000 -19.052  -0.000
  0.004   0.005  -0.002  -0.000   8.645   0.004  -0.000 -19.048
 total augmentation occupancy for first ion, spin component:           1
  7.882  -3.423  -0.199  -0.000  -0.174  -0.042  -0.000  -0.033
 -3.423   1.531   0.143   0.000   0.116   0.026   0.000   0.019
 -0.199   0.143   1.790   0.000  -0.023   0.156   0.000  -0.008
 -0.000   0.000   0.000   1.118  -0.000   0.000   0.065  -0.000
 -0.174   0.116  -0.023  -0.000   1.851  -0.008  -0.000   0.168
 -0.042   0.026   0.156   0.000  -0.008   0.014   0.000  -0.001
 -0.000   0.000   0.000   0.065  -0.000   0.000   0.004  -0.000
 -0.033   0.019  -0.008  -0.000   0.168  -0.001  -0.000   0.016
 total augmentation occupancy for first ion, spin component:           2
  0.003  -0.004  -0.002  -0.000   0.002  -0.001  -0.000   0.000
 -0.004   0.003   0.003   0.000  -0.002   0.000   0.000  -0.000
 -0.002   0.003  -0.004   0.000   0.002   0.000  -0.000  -0.000
 -0.000   0.000   0.000  -0.018  -0.000  -0.000   0.000  -0.000
  0.002  -0.002   0.002  -0.000  -0.003  -0.000  -0.000   0.000
 -0.001   0.000   0.000  -0.000  -0.000   0.000  -0.000  -0.000
 -0.000   0.000  -0.000   0.000  -0.000  -0.000   0.000  -0.000
  0.000  -0.000  -0.000  -0.000   0.000  -0.000  -0.000   0.000


------------------------ aborting loop because EDIFF is reached ----------------------------------------


    CHARGE:  cpu time    1.7152: real time    1.7186
    FORLOC:  cpu time    0.4541: real time    0.4548
    FORNL :  cpu time    5.5366: real time    5.5483
    STRESS:  cpu time   16.7953: real time   16.8309
    FORCOR:  cpu time    6.5206: real time    6.5334
    FORHAR:  cpu time    1.2238: real time    1.2260
    MIXING:  cpu time    0.1090: real time    0.1092
    OFIELD:  cpu time    0.0001: real time    0.0001

 ---------------------------------------------------------------------------------------------

         DFTD3 V3.0 Rev 1        
 Edisp (eV)   -0.23869

 E6    (eV) :    -0.1095
 E8    (eV) :    -0.1292
 % E8        : 54.12
    FORVDW:  cpu time    0.0103: real time    0.0221

  FORCE on cell =-STRESS in cart. coord.  units (eV):
  Direction    XX          YY          ZZ          XY          YZ          ZX
  --------------------------------------------------------------------------------------
  Alpha Z     0.32162     0.32162     0.32162
  Ewald    5435.33240  2349.50199  -754.06199     0.03880    -0.03830    -0.03212
  Hartree  5183.81868  2626.00948   760.54388     0.01573    -0.02427    -0.03100
  E(xc)    -233.17627  -234.81898  -241.45853     0.00008    -0.00007     0.00002
  Local  -11205.02299 -5604.78065  -734.83829    -0.04965     0.06179     0.06302
  n-local   -75.64901   -78.10766   -65.33398     0.00019     0.00013     0.00013
  augment    -4.09672    -3.79043    -3.50325    -0.00005     0.00000     0.00001
  Kinetic   899.31730   946.98196  1035.64887    -0.00394     0.00077     0.00041
  Fock        0.00000     0.00000     0.00000     0.00000     0.00000     0.00000
  vdW        -0.12508     0.04344    -0.00001    -0.00000    -0.00000     0.00000
  -------------------------------------------------------------------------------------
  Total       0.71993     1.36078    -2.68168     0.00117     0.00005     0.00047
  in kB       0.01802     0.03407    -0.06713     0.00003     0.00000     0.00001
  external pressure =       -0.01 kB  Pullay stress =        0.00 kB


 VOLUME and BASIS-vectors are now :
 -----------------------------------------------------------------------------
  energy-cutoff  :      500.00
  volume of cell :    64000.00
      direct lattice vectors                 reciprocal lattice vectors
    40.000000000  0.000000000  0.000000000     0.025000000  0.000000000  0.000000000
     0.000000000 40.000000000  0.000000000     0.000000000  0.025000000  0.000000000
     0.000000000  0.000000000 40.000000000     0.000000000  0.000000000  0.025000000

  length of vectors
    40.000000000 40.000000000 40.000000000     0.025000000  0.025000000  0.025000000


 FORCES acting on ions
    electron-ion (+dipol)            ewald-force                    non-local-force                 convergence-correction
 -----------------------------------------------------------------------------------------------
   -.139E+03 -.162E+03 -.354E-01   0.141E+03 0.163E+03 0.359E-01   -.127E+01 -.204E+01 -.959E-03   0.757E-03 -.418E-02 0.114E-03
   -.215E+03 -.132E-01 0.242E-01   0.217E+03 0.131E-01 -.243E-01   -.192E+01 -.358E-03 -.742E-03   -.377E-02 0.317E-03 0.141E-03
   -.139E+03 0.162E+03 0.871E-01   0.141E+03 -.163E+03 -.886E-01   -.127E+01 0.204E+01 0.124E-02   0.446E-03 0.380E-02 0.154E-03
   0.125E+02 0.176E+03 0.220E-01   -.123E+02 -.178E+03 -.219E-01   0.281E+00 0.277E+01 -.367E-03   0.464E-02 0.449E-02 -.366E-05
   0.179E+02 0.663E-02 -.746E-02   -.138E+02 -.719E-02 0.648E-02   -.367E+01 -.662E-03 0.165E-02   0.651E-02 -.393E-04 -.121E-03
   0.125E+02 -.176E+03 -.214E-01   -.123E+02 0.178E+03 0.213E-01   0.281E+00 -.277E+01 0.277E-03   0.455E-02 -.446E-02 0.105E-03
   -.631E+01 0.167E-01 -.562E-01   0.899E+01 -.161E-01 0.558E-01   -.259E+01 -.892E-03 0.150E-02   -.218E-02 0.479E-04 -.236E-03
   0.631E+01 0.281E-01 -.652E-01   -.899E+01 -.283E-01 0.651E-01   0.259E+01 -.174E-03 0.143E-02   0.229E-02 0.464E-04 -.244E-03
   -.179E+02 0.602E-02 -.321E-01   0.138E+02 -.528E-02 0.316E-01   0.367E+01 -.256E-04 -.140E-03   -.584E-02 0.427E-05 -.166E-03
   -.125E+02 0.176E+03 -.294E-01   0.123E+02 -.178E+03 0.293E-01   -.281E+00 0.277E+01 0.108E-02   -.448E-02 0.406E-02 0.102E-03
   0.139E+03 0.162E+03 -.480E-01   -.141E+03 -.163E+03 0.489E-01   0.127E+01 0.204E+01 -.130E-02   -.648E-03 0.392E-02 0.576E-04
   0.215E+03 -.129E-01 0.305E-01   -.217E+03 0.128E-01 -.307E-01   0.192E+01 -.640E-03 -.172E-03   0.357E-02 -.223E-03 0.950E-04
   0.139E+03 -.162E+03 0.834E-01   -.141E+03 0.163E+03 -.846E-01   0.127E+01 -.204E+01 0.776E-03   -.446E-03 -.362E-02 0.165E-03
   -.125E+02 -.176E+03 0.316E-01   0.123E+02 0.178E+03 -.317E-01   -.281E+00 -.277E+01 0.750E-03   -.466E-02 -.410E-02 0.108E-04
   0.227E+02 -.805E+02 -.242E-01   -.255E+02 0.855E+02 0.259E-01   0.304E+01 -.519E+01 -.190E-02   0.268E-03 0.937E-03 0.171E-04
   -.227E+02 -.805E+02 0.128E-01   0.255E+02 0.855E+02 -.135E-01   -.304E+01 -.519E+01 0.689E-03   -.250E-03 0.999E-03 0.440E-05
   0.496E+02 -.722E+02 0.225E-01   -.525E+02 0.772E+02 -.242E-01   0.302E+01 -.514E+01 0.127E-02   -.490E-03 -.511E-03 0.308E-04
   0.874E+02 -.447E-02 0.129E-01   -.933E+02 0.491E-02 -.138E-01   0.600E+01 -.185E-03 0.940E-03   -.417E-03 -.276E-04 0.134E-04
   0.496E+02 0.722E+02 -.114E-01   -.525E+02 -.772E+02 0.122E-01   0.302E+01 0.514E+01 -.619E-03   -.520E-03 0.500E-03 -.831E-06
   -.227E+02 0.805E+02 -.270E-01   0.255E+02 -.855E+02 0.288E-01   -.304E+01 0.519E+01 -.202E-02   -.246E-03 -.962E-03 0.194E-04
   0.227E+02 0.805E+02 0.146E-01   -.255E+02 -.855E+02 -.153E-01   0.304E+01 0.519E+01 0.876E-03   0.251E-03 -.951E-03 -.406E-06
   -.496E+02 0.722E+02 0.187E-01   0.525E+02 -.772E+02 -.201E-01   -.302E+01 0.514E+01 0.896E-03   0.478E-03 0.542E-03 0.295E-04
   -.874E+02 -.449E-02 0.720E-02   0.933E+02 0.480E-02 -.770E-02   -.600E+01 -.256E-03 0.444E-03   0.396E-03 0.263E-04 0.203E-04
   -.496E+02 -.722E+02 -.141E-01   0.525E+02 0.772E+02 0.151E-01   -.302E+01 -.514E+01 -.960E-03   0.534E-03 -.557E-03 0.922E-05
 -----------------------------------------------------------------------------------------------
   -.235E-02 0.385E-02 -.433E-02   0.853E-13 0.142E-13 0.121E-16   0.907E-03 -.456E-02 0.463E-02   0.758E-03 0.706E-04 0.317E-03
 
 
 POSITION                                       TOTAL-FORCE (eV/Angst)
 -----------------------------------------------------------------------------------
     24.10819     21.22533     20.00017        -0.000601     -0.007091     -0.000295
     24.80227     20.00012     19.99976        -0.013270     -0.000009     -0.000711
     24.10835     18.77480     19.99945        -0.000364      0.005680      0.000025
     22.72470     18.76336     19.99977        -0.002571     -0.007128     -0.000300
     22.00878     19.99994     20.00015        -0.005784     -0.001170      0.000513
     22.72454     21.23657     20.00025        -0.002713      0.008723      0.000409
     20.61878     19.99983     20.00046         0.004272     -0.000124      0.000657
     19.38123     19.99978     20.00052        -0.005240     -0.000281      0.000851
     17.99120     19.99987     20.00030         0.006214      0.000754     -0.000832
     17.27527     18.76334     20.00039         0.002268     -0.008749      0.001121
     15.89161     18.77478     20.00031         0.001464      0.006701     -0.000475
     15.19772     20.00010     19.99981         0.013214     -0.000889     -0.000397
     15.89181     21.22529     19.99953         0.001325     -0.005523     -0.000256
     17.27546     21.23655     19.99983         0.003120      0.007265      0.000580
     22.16693     22.17193     20.00059        -0.004945      0.007130     -0.000194
     17.83311     22.17190     19.99971         0.004680      0.006877      0.000008
     15.33809     22.16388     19.99928         0.005952     -0.007541     -0.000410
     14.10740     20.00015     19.99964         0.000630      0.000257      0.000033
     15.33782     17.83624     20.00043         0.005598      0.007675      0.000179
     17.83284     17.82794     20.00076         0.004288     -0.006861     -0.000203
     22.16712     17.82798     19.99962        -0.004490     -0.007258      0.000158
     24.66217     17.83625     19.99927        -0.006065      0.008385     -0.000471
     25.89262     20.00017     19.99968        -0.001169      0.000121     -0.000050
     24.66193     22.16388     20.00035        -0.005813     -0.006943      0.000060
 -----------------------------------------------------------------------------------
    total drift:                               -0.000687     -0.000641      0.000620


--------------------------------------------------------------------------------------------------------



  FREE ENERGIE OF THE ION-ELECTRON SYSTEM (eV)
  ---------------------------------------------------
  free  energy   TOTEN  =      -155.80626916 eV

  energy  without entropy=     -155.80626916  energy(sigma->0) =     -155.80626916
 
 d Force = 0.1761841E-04[-0.603E-06, 0.358E-04]  d Energy = 0.1912544E-04-0.151E-05
 d Force =-0.6350798E-01[-0.636E-01,-0.634E-01]  d Ewald  =-0.6350798E-01-0.313E-08


--------------------------------------------------------------------------------------------------------


    POTLOK:  cpu time  113.5782: real time  113.8102


--------------------------------------------------------------------------------------------------------




--------------------------------------------------------------------------------------------------------


  
 reached required accuracy - stopping structural energy minimisation
 writing wavefunctions
     LOOP+:  cpu time  441.0673: real time  443.7867
    4ORBIT:  cpu time    0.0000: real time    0.0000

 total amount of memory used by VASP MPI-rank0   727099. kBytes
=======================================================================

   base      :      30000. kBytes
   nonlr-proj:       1286. kBytes
   fftplans  :     182426. kBytes
   grid      :     450567. kBytes
   one-center:          6. kBytes
   wavefun   :      62814. kBytes
 
  
  
 General timing and accounting informations for this job:
 ========================================================
  
                  Total CPU time used (sec):    39791.500
                            User time (sec):    39140.679
                          System time (sec):      650.820
                         Elapsed time (sec):    39879.521
  
                   Maximum memory used (kb):     2447972.
                   Average memory used (kb):           0.
  
                          Minor page faults:     45740129
                          Major page faults:            0
                 Voluntary context switches:       370105
