
                                 *****************
                                 * O   R   C   A *
                                 *****************

                                            #,                                       
                                            ###                                      
                                            ####                                     
                                            #####                                    
                                            ######                                   
                                           ########,                                 
                                     ,,################,,,,,                         
                               ,,#################################,,                 
                          ,,##########################################,,             
                       ,#########################################, ''#####,          
                    ,#############################################,,   '####,        
                  ,##################################################,,,,####,       
                ,###########''''           ''''###############################       
              ,#####''   ,,,,##########,,,,          '''####'''          '####       
            ,##' ,,,,###########################,,,                        '##       
           ' ,,###''''                  '''############,,,                           
         ,,##''                                '''############,,,,        ,,,,,,###''
      ,#''                                            '''#######################'''  
     '                                                          ''''####''''         
             ,#######,   #######,   ,#######,      ##                                
            ,#'     '#,  ##    ##  ,#'     '#,    #''#        ,####,   ,####,        
            ##       ##  ##   ,#'  ##            #'  '#       #'       #'  '#        
            ##       ##  #######   ##           ,######,      #####,   #    #        
            '#,     ,#'  ##    ##  '#,     ,#' ,#      #,     #,   #   #,  ,#        
             '#######'   ##     ##  '#######'  #'      '#     '####' # '####'        



                #########################################################
                #                        -***-                          #
                #          Department of theory and spectroscopy        #
                #                                                       #
                #                      Frank Neese                      #
                #                                                       #
                #     Directorship, Architecture, Infrastructure        #
                #                    SHARK, DRIVERS                     #
                #        Core code/Algorithms in most modules           #
                #                                                       #
                #        Max Planck Institute fuer Kohlenforschung      #
                #                Kaiser Wilhelm Platz 1                 #
                #                 D-45470 Muelheim/Ruhr                 #
                #                      Germany                          #
                #                                                       #
                #                  All rights reserved                  #
                #                        -***-                          #
                #########################################################


                         Program Version 6.0.0  -   RELEASE  -


 With contributions from (in alphabetic order):
   Daniel Aravena         : Magnetic Suceptibility
   Michael Atanasov       : Ab Initio Ligand Field Theory (pilot matlab implementation)
   Alexander A. Auer      : GIAO ZORA, VPT2 properties, NMR spectrum
   Ute Becker             : All parallelization in ORCA, NUMFREQ, NUMCALC
   Giovanni Bistoni       : ED, misc. LED, open-shell LED, HFLD
   Martin Brehm           : Molecular dynamics
   Dmytro Bykov           : pre 5.0 version of the SCF Hessian
   Marcos Casanova-Páez   : Triplet and SCS-CIS(D). UHF-(DLPNO)-IP/EA/STEOM-CCSD. UHF-CVS-IP/STEOM-CCSD
   Vijay G. Chilkuri      : MRCI spin determinant printing, contributions to CSF-ICE
   Pauline Colinet        : FMM embedding
   Dipayan Datta          : RHF DLPNO-CCSD density
   Achintya Kumar Dutta   : EOM-CC, STEOM-CC
   Nicolas Foglia         : Exact transition moments, OPA infrastructure, MCD improvements
   Dmitry Ganyushin       : Spin-Orbit,Spin-Spin,Magnetic field MRCI
   Miquel Garcia          : C-PCM and meta-GGA Hessian, CCSD/C-PCM, Gaussian charge scheme
   Tiago L. C. Gouveia    : GS-ROHF, GS-ROCIS
   Yang Guo               : DLPNO-NEVPT2, F12-NEVPT2, CIM, IAO-localization
   Andreas Hansen         : Spin unrestricted coupled pair/coupled cluster methods
   Ingolf Harden          : AUTO-CI MPn and infrastructure 
   Benjamin Helmich-Paris : MC-RPA, TRAH-(SCF,CASSCF), AVAS, COSX integrals, SCF dyn. polar.
   Lee Huntington         : MR-EOM, pCC
   Robert Izsak           : Overlap fitted RIJCOSX, COSX-SCS-MP3, EOM
   Riya Kayal             : Wick's Theorem for AUTO-CI, AUTO-CI UHF-CCSDT
   Emily Kempfer          : AUTO-CI, RHF CISDT and CCSDT
   Christian Kollmar      : KDIIS, OOCD, Brueckner-CCSD(T), CCSD density, CASPT2, CASPT2-K, improved NEVPT2
   Axel Koslowski         : Symmetry handling
   Simone Kossmann        : Meta GGA functionals, TD-DFT gradient, OOMP2, (MP2 Hessian; deprecated post 5.0)
   Lucas Lang             : DCDCAS
   Marvin Lechner         : AUTO-CI (C++ implementation), FIC-MRCC
   Spencer Leger          : CASSCF response
   Dagmar Lenk            : GEPOL surface, SMD, ORCA-2-JSON
   Dimitrios Liakos       : Extrapolation schemes; Compound Job, initial MDCI parallelization
   Dimitrios Manganas     : Further ROCIS development; embedding schemes. LFT, Crystal Embedding
   Dimitrios Pantazis     : SARC Basis sets
   Anastasios Papadopoulos: AUTO-CI, single reference methods and gradients
   Taras Petrenko         : pre 6.0 DFT Hessian and TD-DFT gradient, (ASA, deprecated), ECA, 1-Electron XAS/XES, NRVS
   Peter Pinski           : DLPNO-MP2, DLPNO-MP2 Gradient
   Christoph Reimann      : Effective Core Potentials
   Marius Retegan         : Local ZFS, SOC
   Christoph Riplinger    : Optimizer, TS searches, QM/MM, DLPNO-CCSD(T), (RO)-DLPNO pert. Triples
   Michael Roemelt        : Original ROCIS implementation
   Masaaki Saitow         : Open-shell DLPNO-CCSD energy and density
   Barbara Sandhoefer     : DKH picture change effects
   Kantharuban Sivalingam : CASSCF convergence/infrastructure, NEVPT2 and variants, FIC-MRCI
   Bernardo de Souza      : ESD, SOC TD-DFT
   Georgi Stoychev        : AutoAux, RI-MP2 NMR, DLPNO-MP2 response, X2C
   Van Anh Tran           : RI-MP2 g-tensors
   Willem Van den Heuvel  : Paramagnetic NMR
   Zikuan Wang            : NOTCH, Electric field optimization 
   Frank Wennmohs         : Technical directorship and infrastructure
   Hang Xu                : AUTO-CI-Response properties 


 We gratefully acknowledge several colleagues who have allowed us to
 interface, adapt or use parts of their codes:
   Stefan Grimme, W. Hujo, H. Kruse, P. Pracht,  : VdW corrections, initial TS optimization,
                  C. Bannwarth, S. Ehlert,         DFT functionals, gCP, sTDA/sTD-DF
                  L. Wittmann, M. Mueller
   Ed Valeev, F. Pavosevic, A. Kumar             : LibInt (2-el integral package), F12 methods
   Garnet Chan, S. Sharma, J. Yang, R. Olivares  : DMRG
   Ulf Ekstrom                                   : XCFun DFT Library
   Mihaly Kallay                                 : mrcc  (arbitrary order and MRCC methods)
   Frank Weinhold                                : gennbo (NPA and NBO analysis)
   Simon Mueller                                 : openCOSMO-RS
   Christopher J. Cramer and Donald G. Truhlar   : smd solvation model
   Lars Goerigk                                  : TD-DFT with DH, B97 family of functionals
   V. Asgeirsson, H. Jonsson                     : NEB implementation
   FAccTs GmbH                                   : IRC, NEB, NEB-TS, DLPNO-Multilevel, CI-OPT
                                                   MM, QMMM, 2- and 3-layer-ONIOM, Crystal-QMMM,
                                                   LR-CPCM, SF, NACMEs, symmetry and pop. for TD-DFT,
                                                   nearIR, NL-DFT gradient (VV10), updates on ESD,
                                                   ML-optimized integration grids, MBIS, APM,
                                                   GOAT, DOCKER, SOLVATOR, interface openCOSMO-RS
   S Lehtola, MJT Oliveira, MAL Marques          : LibXC Library
   Liviu Ungur et al                             : ANISO software


 Your calculation uses the libint2 library for the computation of 2-el integrals
 For citations please refer to: http://libint.valeyev.net

 Your ORCA version has been built with support for libXC version: 6.2.2
 For citations please refer to: https://libxc.gitlab.io

 This ORCA versions uses:
   CBLAS   interface :  Fast vector & matrix operations
   LAPACKE interface :  Fast linear algebra routines
   SCALAPACK package :  Parallel linear algebra routines
   Shared memory     :  Shared parallel matrices
   BLAS/LAPACK       :  OpenBLAS 0.3.27  USE64BITINT DYNAMIC_ARCH NO_AFFINITY SkylakeX SINGLE_THREADED
        Core in use  :  SkylakeX
   Copyright (c) 2011-2014, The OpenBLAS Project


NOTE: MaxCore=3000 MB was set to SCF,MP2,MDCI,CIPSI,MRCI and CIS
      => If you want to overwrite this, your respective input block should be placed after the MaxCore statement
Your calculation utilizes the atom-pairwise dispersion correction
with the Becke-Johnson damping scheme (D3BJ)


Your calculation utilizes the SMD solvation module
Please cite in your paper:
A.V. Marenich, C.J. Cramer, D.G. Truhlar J. Phys. Chem. B, 113, (2009), 6378 

Warning: RI is on but no J-basis has been assigned. Assigning Def2/J (nothing to worry about!)
================================================================================

----- Orbital basis set information -----
Your calculation utilizes the basis: aug-cc-pVTZ 
    H, B-Ne : Obtained from the ccRepo (grant-hill.group.shef.ac.uk/ccrepo) Feb. 2017
              R. A. Kendall, T. H. Dunning, Jr., R. J. Harrison, J. Chem. Phys. 96, 6796 (1992)
         He : Obtained from the ccRepo (grant-hill.group.shef.ac.uk/ccrepo) Feb. 2017
              D. E. Woon, T. H. Dunning, Jr., J. Chem. Phys. 100, 2975 (1994)
  Li-Be, Na : Obtained from the ccRepo (grant-hill.group.shef.ac.uk/ccrepo) Feb. 2017
              B. P. Prascher, D. E. Woon, K. A. Peterson, T. H. Dunning, Jr., A. K. Wilson, Theor. Chem. Acc. 128, 69 (2011)
         Mg : Obtained from the Peterson Research Group Website (tyr0.chem.wsu.edu/~kipeters) Feb. 2017
              B. P. Prascher, D. E. Woon, K. A. Peterson, T. H. Dunning, Jr., A. K. Wilson, Theor. Chem. Acc. 128, 69 (2011)
      Al-Ar : Obtained from the ccRepo (grant-hill.group.shef.ac.uk/ccrepo) Feb. 2017
              D. E. Woon, T. H. Dunning, Jr., J. Chem. Phys. 98, 1358 (1993)
      Sc-Zn : Obtained from the ccRepo (grant-hill.group.shef.ac.uk/ccrepo) Feb. 2017
              N. B. Balabanov, K. A. Peterson, J. Chem. Phys. 123, 064107 (2005)
              N. B. Balabanov, K. A. Peterson, J. Chem. Phys. 125, 074110 (2006)
      Ga-Kr : Obtained from the ccRepo (grant-hill.group.shef.ac.uk/ccrepo) Feb. 2017
              A. K. Wilson, D. E. Woon, K. A. Peterson, T. H. Dunning, Jr., J. Chem. Phys. 110, 7667 (1999)
     Ag, Au : Obtained from the Peterson Research Group Website (tyr0.chem.wsu.edu/~kipeters) Feb. 2017
              K. A. Peterson, C. Puzzarini, Theor. Chem. Acc. 114, 283 (2005)

----- AuxJ basis set information -----
Your calculation utilizes the auxiliary basis: def2/J
   F. Weigend, Phys. Chem. Chem. Phys. 8, 1057 (2006).

================================================================================
                                        WARNINGS
                       Please study these warnings very carefully!
================================================================================

Using LibXC functional ID 497 : Re-regularized SCAN exchange by Furness et al
[ 1]  J. W. Furness, A. D. Kaplan, J. Ning, J. P. Perdew, and J. Sun.,  J. Phys. Chem. Lett. 11, 8208-8215 (2020)
[ 2]  J. W. Furness, A. D. Kaplan, J. Ning, J. P. Perdew, and J. Sun.,  J. Phys. Chem. Lett. 11, 9248-9248 (2020)
Using LibXC functional ID 498 : Re-regularized SCAN correlation by Furness et al
[ 1]  J. W. Furness, A. D. Kaplan, J. Ning, J. P. Perdew, and J. Sun.,  J. Phys. Chem. Lett. 11, 8208-8215 (2020)
[ 2]  J. W. Furness, A. D. Kaplan, J. Ning, J. P. Perdew, and J. Sun.,  J. Phys. Chem. Lett. 11, 9248-9248 (2020)
Using LibXC functional ID 497 : Re-regularized SCAN exchange by Furness et al
[ 1]  J. W. Furness, A. D. Kaplan, J. Ning, J. P. Perdew, and J. Sun.,  J. Phys. Chem. Lett. 11, 8208-8215 (2020)
[ 2]  J. W. Furness, A. D. Kaplan, J. Ning, J. P. Perdew, and J. Sun.,  J. Phys. Chem. Lett. 11, 9248-9248 (2020)
Using LibXC functional ID 498 : Re-regularized SCAN correlation by Furness et al
[ 1]  J. W. Furness, A. D. Kaplan, J. Ning, J. P. Perdew, and J. Sun.,  J. Phys. Chem. Lett. 11, 8208-8215 (2020)
[ 2]  J. W. Furness, A. D. Kaplan, J. Ning, J. P. Perdew, and J. Sun.,  J. Phys. Chem. Lett. 11, 9248-9248 (2020)


WARNING: Found flag for RIJCOSX approximation but no HF exchange needed!
  ===> : RIJCOSX  will be disabled and Split-RI-J is turned on

WARNING: your system is open-shell and RHF/RKS was chosen
  ===> : WILL SWITCH to UHF/UKS


================================================================================
                                       INPUT FILE
================================================================================
NAME = cs_rporg_073_ox_solv_03.inp
|  1> !r2SCAN aug-cc-pVTZ d3 TightSCF SlowConv RIJCOSX defgrid2
|  2>  
|  3> %pal
|  4> nprocs 4
|  5> end
|  6>  
|  7> %scf
|  8> MaxIter 1500
|  9> end
| 10>  
| 11> %maxcore 3000
| 12>  
| 13> !CPCM
| 14> %cpcm smd true
| 15> SMDsolvent "MeCN"
| 16> surfacetype gepol_ses
| 17> rsolv 2.19
| 18> end 
| 19>  
| 20> * xyz 1 2
| 21> C          -2.34552987536684     -1.21989010437598      0.39037314372658
| 22> C          -3.61895068813073     -0.68175269434440      0.38389142559167
| 23> C          -3.82314603181153      0.63223129507657     -0.05997707610989
| 24> C          -2.74291757400101      1.40018818267067     -0.51535069014080
| 25> C          -1.45991639594185      0.88100768107606     -0.50933331005631
| 26> C          -1.24682427758412     -0.43286197652402     -0.02997852330470
| 27> N          -0.00000583482740     -1.01085724580805     -0.00004772669115
| 28> C           1.24681241286631     -0.43287174597834      0.02990526482063
| 29> C           1.45990511527645      0.88100588629127      0.50923458111131
| 30> C           2.74292315008343      1.40015182716249      0.51533074845338
| 31> C           3.82316479830717      0.63215150787923      0.06005371973868
| 32> C           3.61896072254659     -0.68183818250133     -0.38379986432228
| 33> C           2.34552582381883     -1.21993769489926     -0.39035690905535
| 34> H           2.17816875399825     -2.24126262631785     -0.74631287979897
| 35> H           4.46447935418444     -1.28373988515481     -0.72627658434262
| 36> H           4.83264524497399      1.05187382862867      0.07202071830295
| 37> H           2.91442484546385      2.40736518053646      0.90385483105346
| 38> H           0.63238245735310      1.45557255022259      0.92936286739960
| 39> H          -0.00000303273582     -2.03154086007956     -0.00006285746572
| 40> H          -0.63240635676261      1.45553755141713     -0.92953302648471
| 41> H          -2.91442477275671      2.40739802155151     -0.90387838458025
| 42> H          -4.83260942910992      1.05198735407979     -0.07187345817988
| 43> H          -4.46446345632637     -1.28362150345028      0.72644056993610
| 44> H          -2.17818095351749     -2.24120514715858      0.74635382039827
| 45> *
| 46> 
| 47>                          ****END OF INPUT****
================================================================================

                       ****************************
                       * Single Point Calculation *
                       ****************************

---------------------------------
CARTESIAN COORDINATES (ANGSTROEM)
---------------------------------
  C     -2.345530   -1.219890    0.390373
  C     -3.618951   -0.681753    0.383891
  C     -3.823146    0.632231   -0.059977
  C     -2.742918    1.400188   -0.515351
  C     -1.459916    0.881008   -0.509333
  C     -1.246824   -0.432862   -0.029979
  N     -0.000006   -1.010857   -0.000048
  C      1.246812   -0.432872    0.029905
  C      1.459905    0.881006    0.509235
  C      2.742923    1.400152    0.515331
  C      3.823165    0.632152    0.060054
  C      3.618961   -0.681838   -0.383800
  C      2.345526   -1.219938   -0.390357
  H      2.178169   -2.241263   -0.746313
  H      4.464479   -1.283740   -0.726277
  H      4.832645    1.051874    0.072021
  H      2.914425    2.407365    0.903855
  H      0.632382    1.455573    0.929363
  H     -0.000003   -2.031541   -0.000063
  H     -0.632406    1.455538   -0.929533
  H     -2.914425    2.407398   -0.903878
  H     -4.832609    1.051987   -0.071873
  H     -4.464463   -1.283622    0.726441
  H     -2.178181   -2.241205    0.746354

----------------------------
CARTESIAN COORDINATES (A.U.)
----------------------------
  NO LB      ZA    FRAG     MASS         X           Y           Z
   0 C     6.0000    0    12.011   -4.432409   -2.305258    0.737698
   1 C     6.0000    0    12.011   -6.838826   -1.288326    0.725450
   2 C     6.0000    0    12.011   -7.224699    1.194744   -0.113340
   3 C     6.0000    0    12.011   -5.183363    2.645972   -0.973872
   4 C     6.0000    0    12.011   -2.758842    1.664863   -0.962500
   5 C     6.0000    0    12.011   -2.356156   -0.817991   -0.056651
   6 N     7.0000    0    14.007   -0.000011   -1.910243   -0.000090
   7 C     6.0000    0    12.011    2.356134   -0.818009    0.056513
   8 C     6.0000    0    12.011    2.758821    1.664860    0.962314
   9 C     6.0000    0    12.011    5.183374    2.645903    0.973834
  10 C     6.0000    0    12.011    7.224734    1.194593    0.113485
  11 C     6.0000    0    12.011    6.838845   -1.288487   -0.725277
  12 C     6.0000    0    12.011    4.432401   -2.305348   -0.737668
  13 H     1.0000    0     1.008    4.116142   -4.235373   -1.410327
  14 H     1.0000    0     1.008    8.436643   -2.425917   -1.372464
  15 H     1.0000    0     1.008    9.132376    1.987753    0.136099
  16 H     1.0000    0     1.008    5.507465    4.549261    1.708038
  17 H     1.0000    0     1.008    1.195030    2.750633    1.756241
  18 H     1.0000    0     1.008   -0.000006   -3.839056   -0.000119
  19 H     1.0000    0     1.008   -1.195075    2.750567   -1.756563
  20 H     1.0000    0     1.008   -5.507465    4.549323   -1.708083
  21 H     1.0000    0     1.008   -9.132308    1.987968   -0.135821
  22 H     1.0000    0     1.008   -8.436613   -2.425693    1.372774
  23 H     1.0000    0     1.008   -4.116165   -4.235264    1.410404

--------------------------------
INTERNAL COORDINATES (ANGSTROEM)
--------------------------------
 C      0   0   0     0.000000000000     0.00000000     0.00000000
 C      1   0   0     1.382474032713     0.00000000     0.00000000
 C      2   1   0     1.401880490498   120.03331926     0.00000000
 C      3   2   1     1.401433705397   120.28024173     0.84749715
 C      4   3   2     1.384079703269   120.50054441   358.79295003
 C      5   4   3     1.414723555911   119.30545071   359.60055004
 N      6   5   4     1.374601983521   122.31045085   179.79348318
 C      7   6   5     1.374598182196   130.27034278    23.36171306
 C      8   7   6     1.414722420072   122.31066160    23.35782731
 C      9   8   7     1.384082710252   119.30542965   179.79058670
 C     10   9   8     1.401436292470   120.50054034   359.60088040
 C     11  10   9     1.401882382751   120.28012326   358.79317001
 C     12  11  10     1.382472611438   120.03332923     0.84721317
 H     13  12  11     1.094448563188   120.37255770   179.30830310
 H     12  11  10     1.092921643971   120.18022825   180.79766685
 H     11  10   9     1.093325572642   119.85220473   180.16040384
 H     10   9   8     1.093088529577   119.51301602   181.24009682
 H      9   8   7     1.091525710928   120.33681523     3.70621889
 H      7   6   5     1.020683614388   114.86515316   203.36144071
 H      5   4   3     1.091524272998   120.24136420   175.68916935
 H      4   3   2     1.093087438456   119.96576837   177.14686618
 H      3   2   1     1.093322012703   119.85366989   179.48069602
 H      2   1   3     1.092921690172   119.78642574   180.04940663
 H      1   2   3     1.094446124952   120.37233457   179.30743442

---------------------------
INTERNAL COORDINATES (A.U.)
---------------------------
 C      0   0   0     0.000000000000     0.00000000     0.00000000
 C      1   0   0     2.612497309085     0.00000000     0.00000000
 C      2   1   0     2.649170199528   120.03331926     0.00000000
 C      3   2   1     2.648325898047   120.28024173     0.84749715
 C      4   3   2     2.615531586697   120.50054441   358.79295003
 C      5   4   3     2.673440075879   119.30545071   359.60055004
 N      6   5   4     2.597621291999   122.31045085   179.79348318
 C      7   6   5     2.597614108536   130.27034278    23.36171306
 C      8   7   6     2.673437929454   122.31066160    23.35782731
 C      9   8   7     2.615537269072   119.30542965   179.79058670
 C     10   9   8     2.648330786906   120.50054034   359.60088040
 C     11  10   9     2.649173775368   120.28012326   358.79317001
 C     12  11  10     2.612494623265   120.03332923     0.84721317
 H     13  12  11     2.068208052089   120.37255770   179.30830310
 H     12  11  10     2.065322592940   120.18022825   180.79766685
 H     11  10   9     2.066085907506   119.85220473   180.16040384
 H     10   9   8     2.065637961032   119.51301602   181.24009682
 H      9   8   7     2.062684661788   120.33681523     3.70621889
 H      7   6   5     1.928812500573   114.86515316   203.36144071
 H      5   4   3     2.062681944493   120.24136420   175.68916935
 H      4   3   2     2.065635899111   119.96576837   177.14686618
 H      3   2   1     2.066079180197   119.85366989   179.48069602
 H      2   1   3     2.065322680247   119.78642574   180.04940663
 H      1   2   3     2.068203444490   120.37233457   179.30743442

---------------------
BASIS SET INFORMATION
---------------------
There are 3 groups of distinct atoms

 Group   1 Type C   : 19s6p3d2f contracted to 5s4p3d2f pattern {88111/3111/111/11}
 Group   2 Type N   : 19s6p3d2f contracted to 5s4p3d2f pattern {88111/3111/111/11}
 Group   3 Type H   : 6s3p2d contracted to 4s3p2d pattern {3111/111/11}

Atom   0C    basis set group =>   1
Atom   1C    basis set group =>   1
Atom   2C    basis set group =>   1
Atom   3C    basis set group =>   1
Atom   4C    basis set group =>   1
Atom   5C    basis set group =>   1
Atom   6N    basis set group =>   2
Atom   7C    basis set group =>   1
Atom   8C    basis set group =>   1
Atom   9C    basis set group =>   1
Atom  10C    basis set group =>   1
Atom  11C    basis set group =>   1
Atom  12C    basis set group =>   1
Atom  13H    basis set group =>   3
Atom  14H    basis set group =>   3
Atom  15H    basis set group =>   3
Atom  16H    basis set group =>   3
Atom  17H    basis set group =>   3
Atom  18H    basis set group =>   3
Atom  19H    basis set group =>   3
Atom  20H    basis set group =>   3
Atom  21H    basis set group =>   3
Atom  22H    basis set group =>   3
Atom  23H    basis set group =>   3
---------------------------------
AUXILIARY/J BASIS SET INFORMATION
---------------------------------
There are 3 groups of distinct atoms

 Group   1 Type C   : 12s5p4d2f1g contracted to 6s4p3d1f1g pattern {711111/2111/211/2/1}
 Group   2 Type N   : 12s5p4d2f1g contracted to 6s4p3d1f1g pattern {711111/2111/211/2/1}
 Group   3 Type H   : 5s2p1d contracted to 3s1p1d pattern {311/2/1}

Atom   0C    basis set group =>   1
Atom   1C    basis set group =>   1
Atom   2C    basis set group =>   1
Atom   3C    basis set group =>   1
Atom   4C    basis set group =>   1
Atom   5C    basis set group =>   1
Atom   6N    basis set group =>   2
Atom   7C    basis set group =>   1
Atom   8C    basis set group =>   1
Atom   9C    basis set group =>   1
Atom  10C    basis set group =>   1
Atom  11C    basis set group =>   1
Atom  12C    basis set group =>   1
Atom  13H    basis set group =>   3
Atom  14H    basis set group =>   3
Atom  15H    basis set group =>   3
Atom  16H    basis set group =>   3
Atom  17H    basis set group =>   3
Atom  18H    basis set group =>   3
Atom  19H    basis set group =>   3
Atom  20H    basis set group =>   3
Atom  21H    basis set group =>   3
Atom  22H    basis set group =>   3
Atom  23H    basis set group =>   3


           ************************************************************
           *        Program running with 4 parallel MPI-processes     *
           *              working on a common directory               *
           ************************************************************
------------------------------------------------------------------------------
                             ORCA STARTUP CALCULATIONS
                           -- RI-GTO INTEGRALS CHOSEN --
------------------------------------------------------------------------------
------------------------------------------------------------------------------
                   ___                                                        
                  /   \      - P O W E R E D   B Y -                         
                 /     \                                                     
                 |  |  |   _    _      __       _____    __    __             
                 |  |  |  | |  | |    /  \     |  _  \  |  |  /  |          
                  \  \/   | |  | |   /    \    | | | |  |  | /  /          
                 / \  \   | |__| |  /  /\  \   | |_| |  |  |/  /          
                |  |  |   |  __  | /  /__\  \  |    /   |      \           
                |  |  |   | |  | | |   __   |  |    \   |  |\   \          
                \     /   | |  | | |  |  |  |  | |\  \  |  | \   \       
                 \___/    |_|  |_| |__|  |__|  |_| \__\ |__|  \__/        
                                                                              
                      - O R C A' S   B I G   F R I E N D -                    
                                      &                                       
                       - I N T E G R A L  F E E D E R -                       
                                                                              
 v1 FN, 2020, v2 2021, v3 2022-2024                                           
------------------------------------------------------------------------------


----------------------
SHARK INTEGRAL PACKAGE
----------------------

Number of atoms                             ...     24
Number of basis functions                   ...    929
Number of shells                            ...    359
Maximum angular momentum                    ...      3
Integral batch strategy                     ... SHARK/LIBINT Hybrid
RI-J (if used) integral strategy            ... SPLIT-RIJ (Revised 2003 algorithm where possible)
Printlevel                                  ...      1
Contraction scheme used                     ... PARTIAL GENERAL contraction
Prescreening option                         ... SCHWARTZ
   Thresh                                   ... 2.500e-11
   Tcut                                     ... 2.500e-12
   Tpresel                                  ... 2.500e-12 
Coulomb Range Separation                    ... NOT USED
Exchange Range Separation                   ... NOT USED
Multipole approximations                    ... NOT USED
Finite Nucleus Model                        ... NOT USED
CABS basis                                  ... NOT available
Auxiliary Coulomb fitting basis             ... AVAILABLE
   # of basis functions in Aux-J            ...    758
   # of shells in Aux-J                     ...    250
   Maximum angular momentum in Aux-J        ...      4
Auxiliary J/K fitting basis                 ... NOT available
Auxiliary Correlation fitting basis         ... NOT available
Auxiliary 'external' fitting basis          ... NOT available

Checking pre-screening integrals            ... done (  0.0 sec) Dimension = 359
Save PGC pre-screening integrals            ... done (  0.0 sec) Dimension = 359
Calculate PGC overlap integrals             ... done (  0.2 sec) Dimension = 281
Calculating pre-screening integrals (ORCA)  ... done (  0.4 sec) Dimension = 281
Check shell pair data                       ... done (  0.0 sec)
Shell pair information
Shell pair cut-off parameter TPreSel        ...   2.5e-12
Total number of shell pairs                 ...     64620
Shell pairs after pre-screening             ...     50257
Total number of primitive shell pairs       ...     83100
Primitive shell pairs kept                  ...     59545
          la=0 lb=0:  11312 shell pairs
          la=1 lb=0:  12883 shell pairs
          la=1 lb=1:   3289 shell pairs
          la=2 lb=0:   8897 shell pairs
          la=2 lb=1:   4573 shell pairs
          la=2 lb=2:   1649 shell pairs
          la=3 lb=0:   3922 shell pairs
          la=3 lb=1:   1992 shell pairs
          la=3 lb=2:   1418 shell pairs
          la=3 lb=3:    322 shell pairs

Calculating one electron integrals          ... done (  0.1 sec)
Calculating RI/J V-Matrix + Cholesky decomp.... done (  0.1 sec)
Calculating Nuclear repulsion               ... done (  0.0 sec) ENN=    695.132419813089 Eh

Diagonalization of the overlap matrix:
Smallest eigenvalue                        ... 4.992e-07
Time for diagonalization                   ...    0.158 sec
Threshold for overlap eigenvalues          ... 1.000e-07
Number of eigenvalues below threshold      ... 0

IMPORTANT:
Smallest eigenvalue of S below the DiffSThresh (1.000e-06) while
Thresh>1e-12 and/or TCut>1e-13! In order to avoid SCF convergence issues,
Thresh will be set to at least 1e-12 and TCut to at least 1e-13.
This can be turned off by adding %SCF DiffSThresh -1 END to the input.

Time for construction of square roots      ...    0.095 sec
Total time needed                          ...    0.275 sec

-------------------
DFT GRID GENERATION
-------------------

General Integration Accuracy     IntAcc      ... 4.388
Radial Grid Type                 RadialGrid  ... OptM3 with GC (2021)
Angular Grid (max. ang.)         AngularGrid ... 4 (Lebedev-302)
Angular grid pruning method      GridPruning ... 4 (adaptive)
Weight generation scheme         WeightScheme... mBecke (2022)
Basis function cutoff            BFCut       ... 1.0000e-11
Integration weight cutoff        WCut        ... 1.0000e-14
Partially contracted basis set               ... off
Rotationally invariant grid construction     ... off
Angular grids for H and He will be reduced by one unit
Diffuse basis detected: some atoms will have their outermost
                        angular grid increased by 1.

Total number of grid points                  ...   118512
Total number of batches                      ...     1864
Average number of points per batch           ...       63
Average number of grid points per atom       ...     4938

---------------------
SHARK GRID GENERATION
---------------------

General Integration Accuracy     IntAcc      ... 4.388
Radial Grid Type                 RadialGrid  ... OptM3 with GC (2021)
Angular Grid (max. ang.)         AngularGrid ... 4 (Lebedev-302)
Angular grid pruning method      GridPruning ... 4 (adaptive)
Weight generation scheme         WeightScheme... mBecke (2022)
Basis function cutoff            BFCut       ... 1.0000e-11
Integration weight cutoff        WCut        ... 1.0000e-14
Partially contracted basis set               ... off
Rotationally invariant grid construction     ... off
Angular grids for H and He will be reduced by one unit
Diffuse basis detected: some atoms will have their outermost
                        angular grid increased by 1.
Steep s-basis detected: some atoms will have their radial
                        grid points doubled.

Total number of grid points                  ...   200115
Total number of batches                      ...     3137
Average number of points per batch           ...       63
Average number of grid points per atom       ...     8338
Initializing property integral containers    ... done (  0.1 sec)

SHARK setup successfully completed in   9.5 seconds

Maximum memory used throughout the entire STARTUP-calculation: 112.3 MB


           ************************************************************
           *        Program running with 4 parallel MPI-processes     *
           *              working on a common directory               *
           ************************************************************
-------------------------------------------------------------------------------
                                 ORCA GUESS
                   Start orbitals & Density for SCF / CASSCF
-------------------------------------------------------------------------------

------------
SCF SETTINGS
------------
Hamiltonian:
 Density Functional     Method          .... DFT(GTOs)
  Functional kind                       .... Exchange
  Functional name                       .... Re-regularized SCAN exchange by Furness et al
  Functional family                     .... MGGA
  Functional refs                              
    [ 0] J. W. Furness, A. D. Kaplan, J. Ning, J. P. Perdew, and J. Sun.,  J. Phys. Chem. Lett. 11, 8208-8215 (2020), doi: 10.1021/acs.jpclett.0c02405
    [ 1] J. W. Furness, A. D. Kaplan, J. Ning, J. P. Perdew, and J. Sun.,  J. Phys. Chem. Lett. 11, 9248-9248 (2020), doi: 10.1021/acs.jpclett.0c03077
  Functional external parameters        .... 6
    Parameter  0 _c1        =  6.670000e-01 : c1 parameter        
    Parameter  1 _c2        =  8.000000e-01 : c2 parameter        
    Parameter  2 _d         =  1.240000e+00 : d parameter         
    Parameter  3 _k1        =  6.500000e-02 : k1 parameter        
    Parameter  4 _eta       =  1.000000e-03 : eta parameter       
    Parameter  5 _dp2       =  3.610000e-01 : dp2 parameter       
  Functional kind                       .... Correlation
  Functional name                       .... Re-regularized SCAN correlation by Furness et al
  Functional family                     .... MGGA
  Functional refs                              
    [ 0] J. W. Furness, A. D. Kaplan, J. Ning, J. P. Perdew, and J. Sun.,  J. Phys. Chem. Lett. 11, 8208-8215 (2020), doi: 10.1021/acs.jpclett.0c02405
    [ 1] J. W. Furness, A. D. Kaplan, J. Ning, J. P. Perdew, and J. Sun.,  J. Phys. Chem. Lett. 11, 9248-9248 (2020), doi: 10.1021/acs.jpclett.0c03077
  Functional external parameters        .... 1
    Parameter  0 _eta       =  1.000000e-03 : Regularization parameter
 Gradients option       PostSCFGGA      .... off
   NL short-range parameter             .... 12.300000
 RI-approximation to the Coulomb term is turned on
   Number of AuxJ basis functions       .... 758


General Settings:
 Integral files         IntName         .... cs_rporg_073_ox_solv_03
 Hartree-Fock type      HFTyp           .... UHF
 Total Charge           Charge          ....    1
 Multiplicity           Mult            ....    2
 Number of Electrons    NEL             ....   89
 Basis Dimension        Dim             ....  851
 Nuclear Repulsion      ENuc            ....    695.1324198131 Eh

Convergence Acceleration:
 AO-DIIS                CNVDIIS         .... on
   Start iteration      DIISMaxIt       ....     0
   Startup error        DIISStart       ....  0.200000
   # of expansion vecs  DIISMaxEq       ....     5
   Bias factor          DIISBfac        ....   1.050
   Max. coefficient     DIISMaxC        ....  10.000
 MO-DIIS                CNVKDIIS        .... off
 Trust-Rad. Augm. Hess. CNVTRAH         .... auto
   Auto Start mean grad. ratio tolernc. ....  1.125000
   Auto Start start iteration           ....    50
   Auto Start num. interpolation iter.  ....    10
   Max. Number of Micro iterations      ....    24
   Max. Number of Macro iterations      .... Maxiter - #DIIS iter
   Number of Davidson start vectors     ....     2
   Converg. threshold    (grad. norm)   ....   1.000e-05
   Grad. Scal. Fac. for Micro threshold ....   0.100
   Minimum threshold for Micro iter.    ....   1.000e-02
   NR start threshold (gradient norm)   ....   1.000e-04
   Initial trust radius                 ....   0.400
   Minimum AH scaling param. (alpha)    ....   1.000
   Maximum AH scaling param. (alpha)    .... 1000.000
   Quad. conv. algorithm                .... NR
   White noise on init. David. guess    .... on
   Maximum white noise                  ....   0.010
   Pseudo random numbers                .... off
   Inactive MOs                         .... canonical
   Orbital update algorithm             .... Taylor
   Preconditioner                       .... Diag
   Full preconditioner red. dimension   ....   250
 SOSCF                  CNVSOSCF        .... on
   Start iteration      SOSCFMaxIt      ....   150
   Startup grad/error   SOSCFStart      ....  0.001000
   Hessian update       SOSCFHessUp     .... L-BFGS
 Level Shifting         CNVShift        .... on
   Level shift para.    LevelShift      ....    0.2500
   Turn off err/grad.   ShiftErr        ....    0.0000
 Zerner damping         CNVZerner       .... off
 Static damping         CNVDamp         .... on
   Fraction old density DampFac         ....    0.8500
   Max. Damping (<1)    DampMax         ....    0.9800
   Min. Damping (>=0)   DampMin         ....    0.0000
   Turn off err/grad.   DampErr         ....    0.0300

SCF Procedure:
 Maximum # iterations   MaxIter         ....  1500
 SCF integral mode      SCFMode         .... Direct
   Integral package                     .... SHARK and LIBINT hybrid scheme
 Reset frequency        DirectResetFreq ....    20
 Integral Threshold     Thresh          ....  1.000e-12 Eh
 Primitive CutOff       TCut            ....  1.000e-13 Eh

Convergence Tolerance:
 Convergence Check Mode ConvCheckMode   .... Total+1el-Energy
 Convergence forced     ConvForced      .... 0
 Energy Change          TolE            ....  1.000e-08 Eh
 1-El. energy change                    ....  1.000e-05 Eh
 Orbital Gradient       TolG            ....  1.000e-05
 Orbital Rotation angle TolX            ....  1.000e-05
 DIIS Error             TolErr          ....  5.000e-07

------------------------------
INITIAL GUESS: MODEL POTENTIAL
------------------------------
Loading Hartree-Fock densities                     ... done
Calculating cut-offs                               ... done
Initializing the effective Hamiltonian             ... done
Setting up the integral package (SHARK)            ... done
Starting the Coulomb interaction                   ... done (   1.1 sec)
Making the grid                                    ... done (   0.6 sec)
Mapping shells                                     ... done
Starting the XC term evaluation                    ... done (   1.7 sec)
  promolecular density results
     # of electrons  =     89.986282044
     EX              =    -71.154960828
     EC              =     -2.985334662
     EX+EC           =    -74.140295490
Transforming the Hamiltonian                       ... done (   0.1 sec)
Diagonalizing the Hamiltonian                      ... done (   0.2 sec)
Back transforming the eigenvectors                 ... done (   0.1 sec)
Now organizing SCF variables                       ... done
                      ------------------
                      INITIAL GUESS DONE (   4.1 sec)
                      ------------------
             **** ENERGY FILE WAS UPDATED (cs_rporg_073_ox_solv_03.en.tmp) ****
Finished Guess after   5.9 sec
Maximum memory used throughout the entire GUESS-calculation: 89.7 MB


           ************************************************************
           *        Program running with 4 parallel MPI-processes     *
           *              working on a common directory               *
           ************************************************************

-------------------------------------------------------------------------------------------
                                      ORCA LEAN-SCF
                              memory conserving SCF solver
-------------------------------------------------------------------------------------------

--------------------
CPCM SOLVATION MODEL
--------------------
CPCM parameters:
  Epsilon                                         ...      35.6880
  Refrac                                          ...       1.3442
  Rsolv                                           ...       2.1900
  Surface type                                    ...    GEPOL SES
  Discretization scheme                           ... Constant num. charges
  Epsilon function type                           ...         CPCM
Solvent:                                          ... ACETONITRILE
SMD-CDS solvent descriptors:
  Soln                                            ...       1.3442
  Soln25                                          ...       1.3416
  Sola                                            ...       0.0700
  Solb                                            ...       0.3200
  Solg                                            ...      41.2500
  Solc                                            ...       0.0000
  Solh                                            ...       0.0000
Radii:
  Scheme                                          ... Element-dependent radii
  Radius for C  used is    3.4960 Bohr (=   1.8500 Ang.)
  Radius for N  used is    3.5716 Bohr (=   1.8900 Ang.)
  Radius for H  used is    2.2677 Bohr (=   1.2000 Ang.)
Calculating surface                               ...        done! (  0.0s)
Cavity surface points                             ...          812
Cavity Volume                                     ...    1286.8625
Cavity Surface-area                               ...     723.3635
Calculating surface distance matrix               ...        done! (  0.0s)
Performing Cholesky decomposition & store         ...        done! (  0.0s)
Overall time for CPCM initialization              ...                 0.1s

----------------------------------------D-I-I-S--------------------------------------------
Iteration    Energy (Eh)           Delta-E    RMSDP     MaxDP     DIISErr   Damp  Time(sec)
-------------------------------------------------------------------------------------------
               ***  Starting incremental Fock matrix formation  ***
    1    -518.1656156946047531     0.00e+00  5.16e-04  5.12e-02  5.69e-02  0.850  39.6
Warning: op=1 Small HOMO/LUMO gap (   0.046) - skipping pre-diagonalization
         Will do a full diagonalization
    2    -518.2149223293473597    -4.93e-02  4.19e-04  2.47e-02  4.44e-02  0.850  32.4
                               ***Turning on AO-DIIS***
    3    -518.2485365805326865    -3.36e-02  3.34e-04  2.07e-02  3.30e-02  0.850  28.7
    4    -518.2707192520080071    -2.22e-02  2.93e-04  2.26e-02  2.68e-02  0.850  30.6
    5    -518.2868581559436052    -1.61e-02  1.72e-03  1.48e-01  2.18e-02  0.000  30.3
    6    -518.3630620710899848    -7.62e-02  1.58e-04  1.30e-02  6.56e-03  0.000  33.4
    7    -518.3634807722015694    -4.19e-04  7.36e-05  7.44e-03  3.87e-03  0.000  29.1
    8    -518.3637590944198337    -2.78e-04  4.21e-05  3.83e-03  1.00e-03  0.000  26.3
                              *** Initializing SOSCF ***
---------------------------------------S-O-S-C-F--------------------------------------
Iteration    Energy (Eh)           Delta-E    RMSDP     MaxDP     MaxGrad    Time(sec)
--------------------------------------------------------------------------------------
    9    -518.3638530071533523    -9.39e-05  2.77e-05  1.54e-03  9.89e-04    25.2
               *** Restarting incremental Fock matrix formation ***
   10    -518.3639244238662513    -7.14e-05  1.87e-05  1.34e-03  1.06e-03    32.1
   11    -518.3639752869561335    -5.09e-05  5.16e-05  2.44e-03  8.54e-04    18.8
   12    -518.3640136092750481    -3.83e-05  1.78e-05  1.42e-03  6.66e-04    19.4
   13    -518.3640289526396145    -1.53e-05  6.23e-06  6.74e-04  1.09e-04    17.8
   14    -518.3640291589705384    -2.06e-07  2.29e-06  1.36e-04  1.28e-04    16.5
   15    -518.3640296976342370    -5.39e-07  1.66e-06  1.52e-04  2.34e-05    15.6
   16    -518.3640297058326496    -8.20e-09  7.63e-07  7.49e-05  2.87e-05    15.0
                 **** Energy Check signals convergence ****

               *****************************************************
               *                     SUCCESS                       *
               *           SCF CONVERGED AFTER  16 CYCLES          *
               *****************************************************


SMD CDS free energy correction energy :                -3.06954     Kcal/mol
Total Energy after SMD CDS correction =              -518.368921333 Eh
             **** ENERGY FILE WAS UPDATED (cs_rporg_073_ox_solv_03.en.tmp) ****

----------------
TOTAL SCF ENERGY
----------------

Total Energy       :       -518.36892133290178 Eh          -14105.53546 eV

Components:
Nuclear Repulsion  :        695.13241981308909 Eh           18915.51479 eV
Electronic Energy  :      -1213.41149669286074 Eh          -33018.60546 eV
One Electron Energy:      -2062.66901158739483 Eh          -56128.07730 eV
Two Electron Energy:        849.25751489453410 Eh           23109.47184 eV
CPCM Dielectric    :         -0.08495282606104 Eh              -2.31168 eV
SMD CDS (Gcds)     :         -0.00489162706918 Eh              -0.13311 eV

Virial components:
Potential Energy   :      -1033.62471854691421 Eh          -28126.35851 eV
Kinetic Energy     :        515.25579721401243 Eh           14020.82305 eV
Virial Ratio       :          2.00604190022843

DFT components:
N(Alpha)           :       45.000033503370 electrons
N(Beta)            :       44.000042125001 electrons
N(Total)           :       89.000075628371 electrons
E(X)               :      -72.724130119171 Eh       
E(C)               :       -2.866798543078 Eh       
E(XC)              :      -75.590928662249 Eh       

CPCM Solvation Model Properties:
Surface-charge          :         -1.04491690840467
Corrected charge        :         -1.00000000000000
Outlying charge corr.   :          0.00013126447270 Eh               0.00357 eV
Free-energy (cav+disp)  :         -0.00489162706918 Eh              -0.13311 eV

---------------
SCF CONVERGENCE
---------------

  Last Energy change         ...    8.1984e-09  Tolerance :   1.0000e-08
  Last MAX-Density change    ...    7.4905e-05  Tolerance :   1.0000e-07
  Last RMS-Density change    ...    7.6251e-07  Tolerance :   5.0000e-09
  Last DIIS Error            ...    9.8903e-04  Tolerance :   5.0000e-07
  Last Orbital Gradient      ...    2.8706e-05  Tolerance :   1.0000e-05
  Last Orbital Rotation      ...    1.0263e-04  Tolerance :   1.0000e-05


----------------------
UHF SPIN CONTAMINATION
----------------------

Warning: in a DFT calculation there is little theoretical justification to 
         calculate <S**2> as in Hartree-Fock theory. We will do it anyways
         but you should keep in mind that the values have only limited relevance

Expectation value of <S**2>     :     0.789030
Ideal value S*(S+1) for S=0.5   :     0.750000
Deviation                       :     0.039030

----------------
ORBITAL ENERGIES
----------------
                 SPIN UP ORBITALS
  NO   OCC          E(Eh)            E(eV) 
   0   1.0000     -14.277038      -388.4980 
   1   1.0000     -10.126946      -275.5682 
   2   1.0000     -10.126929      -275.5677 
   3   1.0000     -10.075324      -274.1635 
   4   1.0000     -10.075290      -274.1626 
   5   1.0000     -10.075109      -274.1576 
   6   1.0000     -10.075104      -274.1575 
   7   1.0000     -10.071844      -274.0688 
   8   1.0000     -10.071841      -274.0687 
   9   1.0000     -10.064593      -273.8715 
  10   1.0000     -10.064574      -273.8710 
  11   1.0000     -10.064209      -273.8610 
  12   1.0000     -10.064206      -273.8610 
  13   1.0000      -0.988868       -26.9085 
  14   1.0000      -0.858336       -23.3565 
  15   1.0000      -0.837870       -22.7996 
  16   1.0000      -0.762378       -20.7454 
  17   1.0000      -0.749472       -20.3942 
  18   1.0000      -0.742251       -20.1977 
  19   1.0000      -0.715451       -19.4684 
  20   1.0000      -0.632260       -17.2047 
  21   1.0000      -0.625670       -17.0253 
  22   1.0000      -0.594768       -16.1845 
  23   1.0000      -0.578392       -15.7388 
  24   1.0000      -0.533433       -14.5155 
  25   1.0000      -0.530216       -14.4279 
  26   1.0000      -0.492113       -13.3911 
  27   1.0000      -0.473268       -12.8783 
  28   1.0000      -0.457525       -12.4499 
  29   1.0000      -0.439546       -11.9607 
  30   1.0000      -0.429576       -11.6894 
  31   1.0000      -0.423923       -11.5355 
  32   1.0000      -0.416977       -11.3465 
  33   1.0000      -0.414008       -11.2657 
  34   1.0000      -0.405145       -11.0246 
  35   1.0000      -0.378183       -10.2909 
  36   1.0000      -0.357612        -9.7311 
  37   1.0000      -0.348097        -9.4722 
  38   1.0000      -0.346799        -9.4369 
  39   1.0000      -0.335144        -9.1197 
  40   1.0000      -0.329888        -8.9767 
  41   1.0000      -0.273742        -7.4489 
  42   1.0000      -0.270230        -7.3533 
  43   1.0000      -0.267640        -7.2829 
  44   1.0000      -0.227265        -6.1842 
  45   0.0000      -0.076911        -2.0928 
  46   0.0000      -0.063396        -1.7251 
  47   0.0000      -0.061049        -1.6612 
  48   0.0000      -0.040571        -1.1040 
  49   0.0000       0.001411         0.0384 
  50   0.0000       0.014728         0.4008 
  51   0.0000       0.016671         0.4536 
  52   0.0000       0.024974         0.6796 
  53   0.0000       0.029163         0.7936 
  54   0.0000       0.035076         0.9545 
  55   0.0000       0.041202         1.1212 

                 SPIN DOWN ORBITALS
  NO   OCC          E(Eh)            E(eV) 
   0   1.0000     -14.267237      -388.2313 
   1   1.0000     -10.127697      -275.5886 
   2   1.0000     -10.127679      -275.5881 
   3   1.0000     -10.072575      -274.0887 
   4   1.0000     -10.072543      -274.0878 
   5   1.0000     -10.072359      -274.0828 
   6   1.0000     -10.072353      -274.0827 
   7   1.0000     -10.068000      -273.9642 
   8   1.0000     -10.067998      -273.9642 
   9   1.0000     -10.066055      -273.9113 
  10   1.0000     -10.066036      -273.9108 
  11   1.0000     -10.065701      -273.9016 
  12   1.0000     -10.065697      -273.9015 
  13   1.0000      -0.975979       -26.5577 
  14   1.0000      -0.854677       -23.2569 
  15   1.0000      -0.832769       -22.6608 
  16   1.0000      -0.759025       -20.6541 
  17   1.0000      -0.746460       -20.3122 
  18   1.0000      -0.739849       -20.1323 
  19   1.0000      -0.706037       -19.2122 
  20   1.0000      -0.627049       -17.0629 
  21   1.0000      -0.623744       -16.9729 
  22   1.0000      -0.592146       -16.1131 
  23   1.0000      -0.575384       -15.6570 
  24   1.0000      -0.532198       -14.4819 
  25   1.0000      -0.527135       -14.3441 
  26   1.0000      -0.489226       -13.3125 
  27   1.0000      -0.470055       -12.7908 
  28   1.0000      -0.449447       -12.2301 
  29   1.0000      -0.438406       -11.9296 
  30   1.0000      -0.423348       -11.5199 
  31   1.0000      -0.421926       -11.4812 
  32   1.0000      -0.414018       -11.2660 
  33   1.0000      -0.413393       -11.2490 
  34   1.0000      -0.398026       -10.8308 
  35   1.0000      -0.368960       -10.0399 
  36   1.0000      -0.356259        -9.6943 
  37   1.0000      -0.345874        -9.4117 
  38   1.0000      -0.336779        -9.1642 
  39   1.0000      -0.334253        -9.0955 
  40   1.0000      -0.321844        -8.7578 
  41   1.0000      -0.264314        -7.1923 
  42   1.0000      -0.261943        -7.1278 
  43   1.0000      -0.260965        -7.1012 
  44   0.0000      -0.191435        -5.2092 
  45   0.0000      -0.065571        -1.7843 
  46   0.0000      -0.057212        -1.5568 
  47   0.0000      -0.054285        -1.4772 
  48   0.0000      -0.025818        -0.7025 
  49   0.0000       0.002215         0.0603 
  50   0.0000       0.015526         0.4225 
  51   0.0000       0.017360         0.4724 
  52   0.0000       0.025441         0.6923 
  53   0.0000       0.030085         0.8187 
  54   0.0000       0.035527         0.9667 
*Only the first 10 virtual orbitals were printed.

                    ********************************
                    * MULLIKEN POPULATION ANALYSIS *
                    ********************************

--------------------------------------------
MULLIKEN ATOMIC CHARGES AND SPIN POPULATIONS
--------------------------------------------
   0 C :   -0.738943    0.172142
   1 C :   -0.442066   -0.122314
   2 C :   -0.312819    0.262142
   3 C :   -0.921329   -0.118868
   4 C :   -0.310064    0.173824
   5 C :    1.119224   -0.033060
   6 N :   -0.501441    0.381118
   7 C :    1.111487   -0.032882
   8 C :   -0.302338    0.173623
   9 C :   -0.920968   -0.118797
  10 C :   -0.312605    0.262037
  11 C :   -0.442619   -0.122248
  12 C :   -0.740269    0.172004
  13 H :    0.485190   -0.019856
  14 H :    0.345508   -0.005596
  15 H :    0.521062    0.005783
  16 H :    0.313851   -0.004886
  17 H :    0.703432    0.004982
  18 H :   -0.021875   -0.009586
  19 H :    0.701781    0.004963
  20 H :    0.313824   -0.004884
  21 H :    0.521092    0.005786
  22 H :    0.345490   -0.005604
  23 H :    0.485393   -0.019823
Sum of atomic charges         :    1.0000000
Sum of atomic spin populations:    1.0000000

-----------------------------------------------------
MULLIKEN REDUCED ORBITAL CHARGES AND SPIN POPULATIONS
-----------------------------------------------------
CHARGE
  0 C s       :     3.990598  s :     3.990598
      pz      :     1.021276  p :     2.739058
      px      :     0.801338
      py      :     0.916444
      dz2     :     0.012577  d :     0.028893
      dxz     :    -0.017219
      dyz     :     0.049210
      dx2y2   :     0.018535
      dxy     :    -0.034211
      f0      :     0.000100  f :    -0.019607
      f+1     :    -0.000973
      f-1     :     0.000075
      f+2     :    -0.000153
      f-2     :    -0.000934
      f+3     :    -0.015208
      f-3     :    -0.002514

  1 C s       :     3.664159  s :     3.664159
      pz      :     0.890805  p :     2.789059
      px      :     0.998905
      py      :     0.899349
      dz2     :    -0.006326  d :    -0.001718
      dxz     :    -0.039207
      dyz     :    -0.004980
      dx2y2   :    -0.010052
      dxy     :     0.058846
      f0      :     0.000061  f :    -0.009434
      f+1     :     0.000023
      f-1     :     0.000695
      f+2     :    -0.002181
      f-2     :     0.001009
      f+3     :    -0.007291
      f-3     :    -0.001749

  2 C s       :     3.554698  s :     3.554698
      pz      :     0.859594  p :     2.713221
      px      :     0.941712
      py      :     0.911915
      dz2     :     0.012411  d :     0.054586
      dxz     :    -0.014069
      dyz     :     0.020336
      dx2y2   :    -0.023136
      dxy     :     0.059044
      f0      :     0.000358  f :    -0.009685
      f+1     :     0.001278
      f-1     :     0.000226
      f+2     :    -0.001178
      f-2     :    -0.001881
      f+3     :    -0.007722
      f-3     :    -0.000766

  3 C s       :     3.896875  s :     3.896875
      pz      :     0.964348  p :     3.016301
      px      :     1.118683
      py      :     0.933270
      dz2     :    -0.007531  d :     0.017701
      dxz     :     0.012955
      dyz     :     0.044723
      dx2y2   :    -0.031027
      dxy     :    -0.001420
      f0      :     0.000315  f :    -0.009549
      f+1     :     0.000442
      f-1     :    -0.000117
      f+2     :     0.001690
      f-2     :    -0.001724
      f+3     :    -0.009109
      f-3     :    -0.001046

  4 C s       :     3.808495  s :     3.808495
      pz      :     0.933892  p :     2.505347
      px      :     0.684426
      py      :     0.887029
      dz2     :    -0.013105  d :     0.021324
      dxz     :    -0.036803
      dyz     :    -0.027690
      dx2y2   :     0.026379
      dxy     :     0.072542
      f0      :     0.000622  f :    -0.025101
      f+1     :    -0.000124
      f-1     :    -0.001410
      f+2     :    -0.000925
      f-2     :    -0.002674
      f+3     :    -0.021896
      f-3     :     0.001306

  5 C s       :     3.406678  s :     3.406678
      pz      :     0.849543  p :     1.659913
      px      :     0.208446
      py      :     0.601923
      dz2     :    -0.043185  d :    -0.158374
      dxz     :     0.051459
      dyz     :    -0.013092
      dx2y2   :    -0.139442
      dxy     :    -0.014113
      f0      :     0.002978  f :    -0.027441
      f+1     :     0.000373
      f-1     :    -0.000749
      f+2     :    -0.001241
      f-2     :    -0.001474
      f+3     :    -0.016473
      f-3     :    -0.010854

  6 N s       :     4.052647  s :     4.052647
      pz      :     1.355097  p :     3.325155
      px      :     0.888382
      py      :     1.081676
      dz2     :    -0.020913  d :     0.116734
      dxz     :     0.082441
      dyz     :     0.014719
      dx2y2   :     0.007703
      dxy     :     0.032784
      f0      :     0.000352  f :     0.006904
      f+1     :    -0.001245
      f-1     :    -0.000707
      f+2     :     0.001621
      f-2     :     0.002826
      f+3     :     0.007941
      f-3     :    -0.003884

  7 C s       :     3.408958  s :     3.408958
      pz      :     0.848274  p :     1.664316
      px      :     0.209939
      py      :     0.606104
      dz2     :    -0.043121  d :    -0.157253
      dxz     :     0.051161
      dyz     :    -0.012855
      dx2y2   :    -0.139141
      dxy     :    -0.013297
      f0      :     0.002973  f :    -0.027508
      f+1     :     0.000371
      f-1     :    -0.000772
      f+2     :    -0.001247
      f-2     :    -0.001463
      f+3     :    -0.016509
      f-3     :    -0.010862

  8 C s       :     3.807076  s :     3.807076
      pz      :     0.931812  p :     2.498630
      px      :     0.679579
      py      :     0.887239
      dz2     :    -0.013002  d :     0.021778
      dxz     :    -0.036918
      dyz     :    -0.027887
      dx2y2   :     0.026863
      dxy     :     0.072723
      f0      :     0.000592  f :    -0.025146
      f+1     :    -0.000127
      f-1     :    -0.001400
      f+2     :    -0.000926
      f-2     :    -0.002686
      f+3     :    -0.021904
      f-3     :     0.001305

  9 C s       :     3.896796  s :     3.896796
      pz      :     0.964765  p :     3.016096
      px      :     1.118154
      py      :     0.933177
      dz2     :    -0.007592  d :     0.017591
      dxz     :     0.013317
      dyz     :     0.044974
      dx2y2   :    -0.031345
      dxy     :    -0.001763
      f0      :     0.000310  f :    -0.009516
      f+1     :     0.000442
      f-1     :    -0.000117
      f+2     :     0.001691
      f-2     :    -0.001712
      f+3     :    -0.009089
      f-3     :    -0.001042

 10 C s       :     3.554740  s :     3.554740
      pz      :     0.859496  p :     2.713120
      px      :     0.941657
      py      :     0.911968
      dz2     :     0.012293  d :     0.054411
      dxz     :    -0.014104
      dyz     :     0.020335
      dx2y2   :    -0.023343
      dxy     :     0.059230
      f0      :     0.000359  f :    -0.009666
      f+1     :     0.001284
      f-1     :     0.000226
      f+2     :    -0.001175
      f-2     :    -0.001877
      f+3     :    -0.007719
      f-3     :    -0.000764

 11 C s       :     3.664277  s :     3.664277
      pz      :     0.890781  p :     2.789151
      px      :     0.998997
      py      :     0.899373
      dz2     :    -0.006304  d :    -0.001375
      dxz     :    -0.039353
      dyz     :    -0.004995
      dx2y2   :    -0.009854
      dxy     :     0.059131
      f0      :     0.000063  f :    -0.009434
      f+1     :     0.000022
      f-1     :     0.000696
      f+2     :    -0.002177
      f-2     :     0.001009
      f+3     :    -0.007288
      f-3     :    -0.001758

 12 C s       :     3.990384  s :     3.990384
      pz      :     1.021287  p :     2.739917
      px      :     0.802075
      py      :     0.916555
      dz2     :     0.012581  d :     0.029605
      dxz     :    -0.017379
      dyz     :     0.049338
      dx2y2   :     0.018615
      dxy     :    -0.033549
      f0      :     0.000101  f :    -0.019637
      f+1     :    -0.000971
      f-1     :     0.000078
      f+2     :    -0.000143
      f-2     :    -0.000937
      f+3     :    -0.015245
      f-3     :    -0.002520

 13 H s       :     0.540165  s :     0.540165
      pz      :     0.001505  p :    -0.033441
      px      :    -0.008062
      py      :    -0.026885
      dz2     :     0.001749  d :     0.008087
      dxz     :     0.000128
      dyz     :     0.003572
      dx2y2   :     0.001545
      dxy     :     0.001093

 14 H s       :     0.641475  s :     0.641475
      pz      :     0.019771  p :     0.003756
      px      :    -0.009956
      py      :    -0.006059
      dz2     :     0.001621  d :     0.009261
      dxz     :     0.002529
      dyz     :     0.000946
      dx2y2   :     0.002777
      dxy     :     0.001387

 15 H s       :     0.488947  s :     0.488947
      pz      :     0.010336  p :    -0.019469
      px      :    -0.029986
      py      :     0.000182
      dz2     :    -0.000200  d :     0.009459
      dxz     :     0.004341
      dyz     :     0.000689
      dx2y2   :     0.002362
      dxy     :     0.002267

 16 H s       :     0.643198  s :     0.643198
      pz      :     0.010977  p :     0.032637
      px      :     0.011658
      py      :     0.010002
      dz2     :     0.001969  d :     0.010315
      dxz     :     0.000233
      dyz     :     0.003213
      dx2y2   :     0.001588
      dxy     :     0.003312

 17 H s       :     0.387502  s :     0.387502
      pz      :     0.006846  p :    -0.099401
      px      :    -0.061274
      py      :    -0.044974
      dz2     :     0.002243  d :     0.008467
      dxz     :     0.002797
      dyz     :     0.000544
      dx2y2   :     0.000902
      dxy     :     0.001980

 18 H s       :     0.872496  s :     0.872496
      pz      :     0.037092  p :     0.108374
      px      :     0.039627
      py      :     0.031655
      dz2     :     0.004656  d :     0.041005
      dxz     :    -0.000193
      dyz     :     0.012000
      dx2y2   :     0.003760
      dxy     :     0.020783

 19 H s       :     0.389034  s :     0.389034
      pz      :     0.006844  p :    -0.099310
      px      :    -0.061262
      py      :    -0.044893
      dz2     :     0.002236  d :     0.008495
      dxz     :     0.002798
      dyz     :     0.000560
      dx2y2   :     0.000905
      dxy     :     0.001996

 20 H s       :     0.643180  s :     0.643180
      pz      :     0.011009  p :     0.032684
      px      :     0.011734
      py      :     0.009941
      dz2     :     0.001967  d :     0.010311
      dxz     :     0.000232
      dyz     :     0.003213
      dx2y2   :     0.001588
      dxy     :     0.003312

 21 H s       :     0.488925  s :     0.488925
      pz      :     0.010340  p :    -0.019477
      px      :    -0.029993
      py      :     0.000175
      dz2     :    -0.000199  d :     0.009459
      dxz     :     0.004341
      dyz     :     0.000689
      dx2y2   :     0.002362
      dxy     :     0.002267

 22 H s       :     0.641480  s :     0.641480
      pz      :     0.019797  p :     0.003769
      px      :    -0.009962
      py      :    -0.006065
      dz2     :     0.001624  d :     0.009261
      dxz     :     0.002528
      dyz     :     0.000946
      dx2y2   :     0.002777
      dxy     :     0.001386

 23 H s       :     0.539998  s :     0.539998
      pz      :     0.001523  p :    -0.033481
      px      :    -0.008045
      py      :    -0.026959
      dz2     :     0.001754  d :     0.008090
      dxz     :     0.000130
      dyz     :     0.003566
      dx2y2   :     0.001546
      dxy     :     0.001094


SPIN
  0 C s       :     0.012060  s :     0.012060
      pz      :     0.126005  p :     0.158366
      px      :     0.013355
      py      :     0.019007
      dz2     :    -0.000025  d :     0.003274
      dxz     :    -0.002672
      dyz     :     0.000404
      dx2y2   :     0.001007
      dxy     :     0.004561
      f0      :    -0.000414  f :    -0.001558
      f+1     :    -0.000168
      f-1     :    -0.000142
      f+2     :    -0.000684
      f-2     :    -0.000292
      f+3     :    -0.000047
      f-3     :     0.000188

  1 C s       :    -0.027401  s :    -0.027401
      pz      :    -0.075181  p :    -0.108928
      px      :    -0.013551
      py      :    -0.020195
      dz2     :    -0.000687  d :     0.014314
      dxz     :    -0.008080
      dyz     :     0.003854
      dx2y2   :     0.004698
      dxy     :     0.014528
      f0      :     0.000157  f :    -0.000298
      f+1     :     0.000158
      f-1     :     0.000066
      f+2     :     0.000044
      f-2     :    -0.000049
      f+3     :    -0.000271
      f-3     :    -0.000403

  2 C s       :     0.015037  s :     0.015037
      pz      :     0.191252  p :     0.239567
      px      :     0.008387
      py      :     0.039928
      dz2     :    -0.001329  d :     0.009312
      dxz     :     0.000892
      dyz     :     0.000397
      dx2y2   :     0.000544
      dxy     :     0.008808
      f0      :    -0.000204  f :    -0.001774
      f+1     :    -0.000349
      f-1     :    -0.000543
      f+2     :    -0.000139
      f-2     :    -0.000089
      f+3     :    -0.000420
      f-3     :    -0.000029

  3 C s       :    -0.019940  s :    -0.019940
      pz      :    -0.072560  p :    -0.105361
      px      :    -0.020324
      py      :    -0.012476
      dz2     :    -0.000004  d :     0.006819
      dxz     :     0.012968
      dyz     :    -0.000722
      dx2y2   :    -0.004620
      dxy     :    -0.000802
      f0      :     0.000186  f :    -0.000387
      f+1     :     0.000162
      f-1     :     0.000023
      f+2     :     0.000025
      f-2     :     0.000022
      f+3     :    -0.000459
      f-3     :    -0.000346

  4 C s       :     0.009483  s :     0.009483
      pz      :     0.102511  p :     0.154833
      px      :     0.003321
      py      :     0.049001
      dz2     :     0.000735  d :     0.010629
      dxz     :     0.004335
      dyz     :     0.001002
      dx2y2   :    -0.001667
      dxy     :     0.006225
      f0      :    -0.000301  f :    -0.001121
      f+1     :    -0.000012
      f-1     :    -0.000302
      f+2     :    -0.000486
      f-2     :    -0.000405
      f+3     :     0.000223
      f-3     :     0.000160

  5 C s       :     0.023361  s :     0.023361
      pz      :    -0.025088  p :    -0.059490
      px      :    -0.021365
      py      :    -0.013037
      dz2     :    -0.002038  d :     0.000717
      dxz     :     0.004106
      dyz     :     0.006808
      dx2y2   :    -0.003168
      dxy     :    -0.004990
      f0      :     0.000529  f :     0.002351
      f+1     :     0.000285
      f-1     :     0.000109
      f+2     :    -0.000006
      f-2     :     0.000719
      f+3     :     0.000950
      f-3     :    -0.000236

  6 N s       :     0.031716  s :     0.031716
      pz      :     0.318355  p :     0.349568
      px      :     0.009149
      py      :     0.022063
      dz2     :    -0.001932  d :     0.000642
      dxz     :    -0.001783
      dyz     :     0.001614
      dx2y2   :     0.000285
      dxy     :     0.002458
      f0      :     0.000118  f :    -0.000808
      f+1     :    -0.000275
      f-1     :    -0.000234
      f+2     :    -0.000057
      f-2     :    -0.000039
      f+3     :    -0.000444
      f-3     :     0.000123

  7 C s       :     0.023379  s :     0.023379
      pz      :    -0.025044  p :    -0.059337
      px      :    -0.021342
      py      :    -0.012951
      dz2     :    -0.002021  d :     0.000725
      dxz     :     0.004085
      dyz     :     0.006831
      dx2y2   :    -0.003179
      dxy     :    -0.004991
      f0      :     0.000528  f :     0.002351
      f+1     :     0.000285
      f-1     :     0.000105
      f+2     :    -0.000013
      f-2     :     0.000726
      f+3     :     0.000951
      f-3     :    -0.000231

  8 C s       :     0.009458  s :     0.009458
      pz      :     0.102363  p :     0.154651
      px      :     0.003278
      py      :     0.049011
      dz2     :     0.000735  d :     0.010626
      dxz     :     0.004328
      dyz     :     0.001007
      dx2y2   :    -0.001670
      dxy     :     0.006226
      f0      :    -0.000299  f :    -0.001112
      f+1     :    -0.000012
      f-1     :    -0.000302
      f+2     :    -0.000482
      f-2     :    -0.000402
      f+3     :     0.000224
      f-3     :     0.000161

  9 C s       :    -0.019930  s :    -0.019930
      pz      :    -0.072528  p :    -0.105326
      px      :    -0.020336
      py      :    -0.012461
      dz2     :    -0.000005  d :     0.006845
      dxz     :     0.012973
      dyz     :    -0.000728
      dx2y2   :    -0.004610
      dxy     :    -0.000786
      f0      :     0.000186  f :    -0.000386
      f+1     :     0.000163
      f-1     :     0.000023
      f+2     :     0.000025
      f-2     :     0.000025
      f+3     :    -0.000462
      f-3     :    -0.000346

 10 C s       :     0.015031  s :     0.015031
      pz      :     0.191129  p :     0.239473
      px      :     0.008391
      py      :     0.039952
      dz2     :    -0.001330  d :     0.009305
      dxz     :     0.000903
      dyz     :     0.000394
      dx2y2   :     0.000534
      dxy     :     0.008804
      f0      :    -0.000204  f :    -0.001773
      f+1     :    -0.000349
      f-1     :    -0.000543
      f+2     :    -0.000140
      f-2     :    -0.000089
      f+3     :    -0.000419
      f-3     :    -0.000029

 11 C s       :    -0.027388  s :    -0.027388
      pz      :    -0.075144  p :    -0.108867
      px      :    -0.013547
      py      :    -0.020176
      dz2     :    -0.000691  d :     0.014307
      dxz     :    -0.008068
      dyz     :     0.003838
      dx2y2   :     0.004709
      dxy     :     0.014518
      f0      :     0.000157  f :    -0.000301
      f+1     :     0.000157
      f-1     :     0.000065
      f+2     :     0.000044
      f-2     :    -0.000049
      f+3     :    -0.000272
      f-3     :    -0.000402

 12 C s       :     0.012047  s :     0.012047
      pz      :     0.125921  p :     0.158260
      px      :     0.013333
      py      :     0.019006
      dz2     :    -0.000032  d :     0.003257
      dxz     :    -0.002667
      dyz     :     0.000403
      dx2y2   :     0.000984
      dxy     :     0.004570
      f0      :    -0.000414  f :    -0.001560
      f+1     :    -0.000169
      f-1     :    -0.000140
      f+2     :    -0.000683
      f-2     :    -0.000289
      f+3     :    -0.000053
      f-3     :     0.000189

 13 H s       :    -0.022493  s :    -0.022493
      pz      :     0.001526  p :     0.002233
      px      :    -0.000127
      py      :     0.000834
      dz2     :     0.000179  d :     0.000404
      dxz     :     0.000006
      dyz     :     0.000301
      dx2y2   :    -0.000035
      dxy     :    -0.000046

 14 H s       :    -0.004329  s :    -0.004329
      pz      :    -0.003956  p :    -0.000949
      px      :     0.001830
      py      :     0.001177
      dz2     :    -0.000114  d :    -0.000318
      dxz     :    -0.000196
      dyz     :    -0.000056
      dx2y2   :     0.000015
      dxy     :     0.000032

 15 H s       :    -0.000223  s :    -0.000223
      pz      :     0.004152  p :     0.005302
      px      :    -0.000679
      py      :     0.001829
      dz2     :     0.000088  d :     0.000704
      dxz     :     0.000587
      dyz     :     0.000131
      dx2y2   :    -0.000045
      dxy     :    -0.000058

 16 H s       :    -0.002117  s :    -0.002117
      pz      :    -0.001846  p :    -0.002425
      px      :    -0.000444
      py      :    -0.000136
      dz2     :    -0.000079  d :    -0.000344
      dxz     :    -0.000114
      dyz     :    -0.000178
      dx2y2   :    -0.000006
      dxy     :     0.000033

 17 H s       :    -0.000077  s :    -0.000077
      pz      :     0.004675  p :     0.004371
      px      :    -0.001024
      py      :     0.000720
      dz2     :     0.000267  d :     0.000688
      dxz     :     0.000443
      dyz     :     0.000001
      dx2y2   :     0.000088
      dxy     :    -0.000112

 18 H s       :    -0.015688  s :    -0.015688
      pz      :     0.003962  p :     0.004729
      px      :    -0.001934
      py      :     0.002700
      dz2     :     0.000263  d :     0.001373
      dxz     :     0.000072
      dyz     :     0.001231
      dx2y2   :     0.000052
      dxy     :    -0.000245

 19 H s       :    -0.000092  s :    -0.000092
      pz      :     0.004683  p :     0.004366
      px      :    -0.001026
      py      :     0.000710
      dz2     :     0.000267  d :     0.000688
      dxz     :     0.000444
      dyz     :     0.000002
      dx2y2   :     0.000089
      dxy     :    -0.000113

 20 H s       :    -0.002115  s :    -0.002115
      pz      :    -0.001843  p :    -0.002425
      px      :    -0.000443
      py      :    -0.000138
      dz2     :    -0.000079  d :    -0.000344
      dxz     :    -0.000114
      dyz     :    -0.000178
      dx2y2   :    -0.000006
      dxy     :     0.000033

 21 H s       :    -0.000220  s :    -0.000220
      pz      :     0.004161  p :     0.005302
      px      :    -0.000680
      py      :     0.001822
      dz2     :     0.000088  d :     0.000704
      dxz     :     0.000588
      dyz     :     0.000131
      dx2y2   :    -0.000045
      dxy     :    -0.000058

 22 H s       :    -0.004336  s :    -0.004336
      pz      :    -0.003957  p :    -0.000950
      px      :     0.001831
      py      :     0.001176
      dz2     :    -0.000114  d :    -0.000318
      dxz     :    -0.000196
      dyz     :    -0.000055
      dx2y2   :     0.000015
      dxy     :     0.000032

 23 H s       :    -0.022469  s :    -0.022469
      pz      :     0.001530  p :     0.002242
      px      :    -0.000127
      py      :     0.000839
      dz2     :     0.000180  d :     0.000405
      dxz     :     0.000006
      dyz     :     0.000301
      dx2y2   :    -0.000035
      dxy     :    -0.000046



                     *******************************
                     * LOEWDIN POPULATION ANALYSIS *
                     *******************************

-------------------------------------------
LOEWDIN ATOMIC CHARGES AND SPIN POPULATIONS
-------------------------------------------
   0 C :    0.265583    0.070464
   1 C :    0.230097    0.012660
   2 C :    0.234654    0.100249
   3 C :    0.234989    0.013607
   4 C :    0.251655    0.071549
   5 C :   -0.155880    0.064253
   6 N :    0.624285    0.228119
   7 C :   -0.155944    0.064248
   8 C :    0.251720    0.071506
   9 C :    0.234932    0.013603
  10 C :    0.234640    0.100208
  11 C :    0.230085    0.012659
  12 C :    0.265512    0.070422
  13 H :   -0.140652    0.014256
  14 H :   -0.155488   -0.007482
  15 H :   -0.154020    0.025484
  16 H :   -0.154200   -0.006977
  17 H :   -0.163519    0.015187
  18 H :   -0.210455    0.025488
  19 H :   -0.163651    0.015202
  20 H :   -0.154186   -0.006980
  21 H :   -0.154020    0.025495
  22 H :   -0.155484   -0.007486
  23 H :   -0.140654    0.014264

----------------------------------------------------
LOEWDIN REDUCED ORBITAL CHARGES AND SPIN POPULATIONS
----------------------------------------------------
CHARGE
  0 C s       :     2.483959  s :     2.483959
      pz      :     0.618003  p :     2.250069
      px      :     0.832146
      py      :     0.799920
      dz2     :     0.068789  d :     0.664888
      dxz     :     0.128342
      dyz     :     0.060384
      dx2y2   :     0.232327
      dxy     :     0.175047
      f0      :     0.026049  f :     0.335500
      f+1     :     0.039112
      f-1     :     0.016552
      f+2     :     0.031514
      f-2     :     0.050275
      f+3     :     0.110775
      f-3     :     0.061221

  1 C s       :     2.493445  s :     2.493445
      pz      :     0.622219  p :     2.273806
      px      :     0.835518
      py      :     0.816070
      dz2     :     0.068152  d :     0.672423
      dxz     :     0.089559
      dyz     :     0.091515
      dx2y2   :     0.169407
      dxy     :     0.253790
      f0      :     0.025396  f :     0.330230
      f+1     :     0.019622
      f-1     :     0.032302
      f+2     :     0.047267
      f-2     :     0.032645
      f+3     :     0.109464
      f-3     :     0.063534

  2 C s       :     2.497224  s :     2.497224
      pz      :     0.602732  p :     2.255329
      px      :     0.834419
      py      :     0.818179
      dz2     :     0.080270  d :     0.682100
      dxz     :     0.068341
      dyz     :     0.121596
      dx2y2   :     0.205194
      dxy     :     0.206699
      f0      :     0.021570  f :     0.330692
      f+1     :     0.028710
      f-1     :     0.027563
      f+2     :     0.046350
      f-2     :     0.046166
      f+3     :     0.100643
      f-3     :     0.059690

  3 C s       :     2.492230  s :     2.492230
      pz      :     0.627581  p :     2.270765
      px      :     0.842483
      py      :     0.800701
      dz2     :     0.067553  d :     0.671271
      dxz     :     0.124324
      dyz     :     0.064117
      dx2y2   :     0.247925
      dxy     :     0.167352
      f0      :     0.026408  f :     0.330744
      f+1     :     0.035429
      f-1     :     0.016392
      f+2     :     0.033933
      f-2     :     0.047844
      f+3     :     0.112102
      f-3     :     0.058637

  4 C s       :     2.477213  s :     2.477213
      pz      :     0.631293  p :     2.251795
      px      :     0.838463
      py      :     0.782039
      dz2     :     0.069780  d :     0.684056
      dxz     :     0.115068
      dyz     :     0.093860
      dx2y2   :     0.183114
      dxy     :     0.222235
      f0      :     0.027228  f :     0.335281
      f+1     :     0.020946
      f-1     :     0.034521
      f+2     :     0.050493
      f-2     :     0.036242
      f+3     :     0.100439
      f-3     :     0.065412

  5 C s       :     2.445905  s :     2.445905
      pz      :     0.631978  p :     2.194075
      px      :     0.754341
      py      :     0.807756
      dz2     :     0.110215  d :     0.964372
      dxz     :     0.161987
      dyz     :     0.141634
      dx2y2   :     0.267269
      dxy     :     0.283268
[...]
      dx2y2   :     0.002479
      dxy     :     0.007404
      f0      :     0.001517  f :     0.019487
      f+1     :     0.003732
      f-1     :     0.000913
      f+2     :     0.001191
      f-2     :     0.006966
      f+3     :     0.004284
      f-3     :     0.000884

 10 C s       :     0.004431  s :     0.004431
      pz      :     0.098064  p :     0.115255
      px      :     0.003511
      py      :     0.013680
      dz2     :    -0.004317  d :    -0.012015
      dxz     :    -0.000466
      dyz     :    -0.004525
      dx2y2   :    -0.001396
      dxy     :    -0.001312
      f0      :    -0.000390  f :    -0.007463
      f+1     :    -0.001524
      f-1     :    -0.002539
      f+2     :    -0.000948
      f-2     :    -0.000776
      f+3     :    -0.000290
      f-3     :    -0.000996

 11 C s       :    -0.001898  s :    -0.001898
      pz      :    -0.033291  p :    -0.042038
      px      :    -0.001996
      py      :    -0.006751
      dz2     :     0.002900  d :     0.037266
      dxz     :     0.013374
      dyz     :     0.013490
      dx2y2   :     0.005704
      dxy     :     0.001799
      f0      :     0.001716  f :     0.019329
      f+1     :     0.000433
      f-1     :     0.004233
      f+2     :     0.008061
      f-2     :     0.001324
      f+3     :     0.001521
      f-3     :     0.002041

 12 C s       :     0.003229  s :     0.003229
      pz      :     0.062423  p :     0.079925
      px      :     0.005836
      py      :     0.011667
      dz2     :    -0.000995  d :    -0.010776
      dxz     :    -0.007209
      dyz     :    -0.000499
      dx2y2   :    -0.001580
      dxy     :    -0.000493
      f0      :    -0.001162  f :    -0.001956
      f+1     :    -0.000659
      f-1     :     0.000142
      f+2     :    -0.000641
      f-2     :     0.000812
      f+3     :     0.000123
      f-3     :    -0.000570

 13 H s       :    -0.002538  s :    -0.002538
      pz      :     0.006944  p :     0.009199
      px      :     0.000070
      py      :     0.002185
      dz2     :     0.001789  d :     0.007595
      dxz     :    -0.000206
      dyz     :     0.003954
      dx2y2   :     0.001879
      dxy     :     0.000179

 14 H s       :     0.001514  s :     0.001514
      pz      :    -0.004535  p :    -0.005953
      px      :    -0.000503
      py      :    -0.000915
      dz2     :    -0.000526  d :    -0.003043
      dxz     :    -0.001930
      dyz     :     0.000213
      dx2y2   :    -0.000169
      dxy     :    -0.000632

 15 H s       :    -0.003550  s :    -0.003550
      pz      :     0.013233  p :     0.016863
      px      :     0.001503
      py      :     0.002127
      dz2     :    -0.000126  d :     0.012171
      dxz     :     0.008815
      dyz     :     0.001336
      dx2y2   :     0.000988
      dxy     :     0.001158

 16 H s       :     0.001680  s :     0.001680
      pz      :    -0.004260  p :    -0.005746
      px      :    -0.000435
      py      :    -0.001051
      dz2     :    -0.000610  d :    -0.002911
      dxz     :     0.000382
      dyz     :    -0.001871
      dx2y2   :    -0.000721
      dxy     :    -0.000091

 17 H s       :    -0.002164  s :    -0.002164
      pz      :     0.006154  p :     0.008734
      px      :     0.001033
      py      :     0.001547
      dz2     :     0.002906  d :     0.008617
      dxz     :     0.003216
      dyz     :     0.000880
      dx2y2   :     0.000223
      dxy     :     0.001393

 18 H s       :    -0.005835  s :    -0.005835
      pz      :     0.014787  p :     0.016899
      px      :     0.000248
      py      :     0.001864
      dz2     :     0.000015  d :     0.014424
      dxz     :    -0.000493
      dyz     :     0.013878
      dx2y2   :     0.000901
      dxy     :     0.000123

 19 H s       :    -0.002163  s :    -0.002163
      pz      :     0.006163  p :     0.008745
      px      :     0.001033
      py      :     0.001549
      dz2     :     0.002908  d :     0.008620
      dxz     :     0.003215
      dyz     :     0.000883
      dx2y2   :     0.000223
      dxy     :     0.001392

 20 H s       :     0.001681  s :     0.001681
      pz      :    -0.004261  p :    -0.005748
      px      :    -0.000436
      py      :    -0.001051
      dz2     :    -0.000610  d :    -0.002913
      dxz     :     0.000382
      dyz     :    -0.001872
      dx2y2   :    -0.000722
      dxy     :    -0.000091

 21 H s       :    -0.003551  s :    -0.003551
      pz      :     0.013238  p :     0.016870
      px      :     0.001504
      py      :     0.002128
      dz2     :    -0.000126  d :     0.012177
      dxz     :     0.008819
      dyz     :     0.001337
      dx2y2   :     0.000989
      dxy     :     0.001158

 22 H s       :     0.001515  s :     0.001515
      pz      :    -0.004538  p :    -0.005956
      px      :    -0.000503
      py      :    -0.000915
      dz2     :    -0.000527  d :    -0.003045
      dxz     :    -0.001930
      dyz     :     0.000213
      dx2y2   :    -0.000169
      dxy     :    -0.000633

 23 H s       :    -0.002539  s :    -0.002539
      pz      :     0.006948  p :     0.009204
      px      :     0.000070
      py      :     0.002186
      dz2     :     0.001790  d :     0.007599
      dxz     :    -0.000206
      dyz     :     0.003955
      dx2y2   :     0.001880
      dxy     :     0.000180



                      *****************************
                      * MAYER POPULATION ANALYSIS *
                      *****************************

  NA   - Mulliken gross atomic population
  ZA   - Total nuclear charge
  QA   - Mulliken gross atomic charge
  VA   - Mayer's total valence
  BVA  - Mayer's bonded valence
  FA   - Mayer's free valence

  ATOM       NA         ZA         QA         VA         BVA        FA
  0 C      6.7389     6.0000    -0.7389     2.3295     2.3056     0.0239
  1 C      6.4421     6.0000    -0.4421     2.6606     2.6519     0.0087
  2 C      6.3128     6.0000    -0.3128     2.8500     2.8049     0.0451
  3 C      6.9213     6.0000    -0.9213     2.7097     2.7017     0.0080
  4 C      6.3101     6.0000    -0.3101     2.0328     2.0088     0.0240
  5 C      4.8808     6.0000     1.1192     0.8048     0.7971     0.0077
  6 N      7.5014     7.0000    -0.5014     2.7083     2.5996     0.1086
  7 C      4.8885     6.0000     1.1115     0.8132     0.8055     0.0077
  8 C      6.3023     6.0000    -0.3023     2.0289     2.0049     0.0240
  9 C      6.9210     6.0000    -0.9210     2.7090     2.7010     0.0080
 10 C      6.3126     6.0000    -0.3126     2.8498     2.8048     0.0450
 11 C      6.4426     6.0000    -0.4426     2.6618     2.6531     0.0087
 12 C      6.7403     6.0000    -0.7403     2.3325     2.3086     0.0238
 13 H      0.5148     1.0000     0.4852     0.4394     0.4388     0.0006
 14 H      0.6545     1.0000     0.3455     0.8351     0.8351    -0.0000
 15 H      0.4789     1.0000     0.5211     0.5236     0.5235     0.0000
 16 H      0.6861     1.0000     0.3139     0.9072     0.9072    -0.0000
 17 H      0.2966     1.0000     0.7034    -0.0181    -0.0181     0.0001
 18 H      1.0219     1.0000    -0.0219     1.1950     1.1946     0.0005
 19 H      0.2982     1.0000     0.7018    -0.0149    -0.0150     0.0001
 20 H      0.6862     1.0000     0.3138     0.9072     0.9072    -0.0000
 21 H      0.4789     1.0000     0.5211     0.5235     0.5235     0.0000
 22 H      0.6545     1.0000     0.3455     0.8351     0.8352    -0.0000
 23 H      0.5146     1.0000     0.4854     0.4388     0.4383     0.0006

  Mayer bond orders larger than 0.100000
B(  0-C ,  1-C ) :   1.1830 B(  0-C ,  2-C ) :   0.1502 B(  0-C ,  3-C ) :  -0.1178 
B(  0-C ,  4-C ) :   0.1040 B(  0-C ,  5-C ) :   0.2485 B(  0-C ,  6-N ) :   0.1059 
B(  0-C , 23-H ) :   0.3636 B(  1-C ,  2-C ) :   0.9524 B(  1-C ,  5-C ) :  -0.2297 
B(  1-C , 19-H ) :   0.1002 B(  1-C , 22-H ) :   0.8064 B(  2-C ,  3-C ) :   1.1692 
B(  2-C ,  4-C ) :   0.2165 B(  2-C ,  5-C ) :  -0.1293 B(  2-C , 21-H ) :   0.5119 
B(  3-C ,  4-C ) :   1.2222 B(  3-C ,  5-C ) :  -0.3619 B(  3-C , 20-H ) :   0.8431 
B(  4-C ,  5-C ) :   0.4222 B(  4-C ,  6-N ) :  -0.1748 B(  4-C ,  7-C ) :   0.2015 
B(  4-C , 17-H ) :  -0.1341 B(  4-C , 19-H ) :   0.2178 B(  5-C ,  6-N ) :   0.6319 
B(  5-C ,  8-C ) :   0.1988 B(  5-C , 17-H ) :  -0.1470 B(  6-N ,  7-C ) :   0.6322 
B(  6-N ,  8-C ) :  -0.1764 B(  6-N , 12-C ) :   0.1072 B(  6-N , 18-H ) :   1.2895 
B(  7-C ,  8-C ) :   0.4265 B(  7-C ,  9-C ) :  -0.3611 B(  7-C , 10-C ) :  -0.1292 
B(  7-C , 11-C ) :  -0.2291 B(  7-C , 12-C ) :   0.2492 B(  7-C , 19-H ) :  -0.1473 
B(  8-C ,  9-C ) :   1.2176 B(  8-C , 10-C ) :   0.2155 B(  8-C , 12-C ) :   0.1048 
B(  8-C , 17-H ) :   0.2169 B(  8-C , 19-H ) :  -0.1327 B(  9-C , 10-C ) :   1.1690 
B(  9-C , 12-C ) :  -0.1169 B(  9-C , 16-H ) :   0.8433 B( 10-C , 11-C ) :   0.9524 
B( 10-C , 12-C ) :   0.1504 B( 10-C , 15-H ) :   0.5120 B( 11-C , 12-C ) :   1.1835 
B( 11-C , 14-H ) :   0.8063 B( 12-C , 13-H ) :   0.3639 

-------
TIMINGS
-------

Total SCF time: 0 days 0 hours 6 min 53 sec 

Total time                  ....     413.831 sec
Sum of individual times     ....     413.679 sec  (100.0%)

SCF preparation             ....       1.358 sec  (  0.3%)
Fock matrix formation       ....     389.831 sec  ( 94.2%)
  Startup                   ....       1.375 sec  (  0.4% of F)
  Split-RI-J                ....      30.769 sec  (  7.9% of F)
  XC integration            ....     339.654 sec  ( 87.1% of F)
    XC Preparation          ....       0.000 sec  (  0.0% of XC)
    Basis function eval.    ....      14.825 sec  (  4.4% of XC)
    Density eval.           ....     106.080 sec  ( 31.2% of XC)
    XC-Functional eval.     ....       1.882 sec  (  0.6% of XC)
    XC-Potential eval.      ....     214.084 sec  ( 63.0% of XC)
  CPCM terms                ....      13.714 sec  (  3.5% of F)
Diagonalization             ....       0.000 sec  (  0.0%)
Density matrix formation    ....       3.142 sec  (  0.8%)
Total Energy calculation    ....       1.278 sec  (  0.3%)
Population analysis         ....       0.573 sec  (  0.1%)
Orbital Transformation      ....       2.032 sec  (  0.5%)
Orbital Orthonormalization  ....       0.000 sec  (  0.0%)
DIIS solution               ....      11.203 sec  (  2.7%)
SOSCF solution              ....       4.262 sec  (  1.0%)
Finished LeanSCF after 414.1 sec

Maximum memory used throughout the entire LEANSCF-calculation: 122.2 MB


-------------------------------------------------------------------------------
                          DFT DISPERSION CORRECTION                            
                                                                               
                              DFTD3 V3.1  Rev 1                                
                          USING Becke-Johnson damping                          
-------------------------------------------------------------------------------
The R2SCAN functional is recognized
Active option DFTDOPT                   ...         4   

molecular C6(AA) [au] = 6978.958112 


            DFT-D V3
 parameters
 s6 scaling factor         :     1.0000 
 a1 scaling factor         :     0.4948 
 s8 scaling factor         :     0.7898 
 a2 scaling factor         :     5.7308 
 ad hoc parameters k1-k3   :    16.0000     1.3333    -4.0000 

 Edisp/kcal,au: -5.513045228961  -0.008785595865 
 E6   /kcal   :  -4.316601473 
 E8   /kcal   :  -1.196443756 
 % E8         :  21.702048617 

-------------------------   ----------------
Dispersion correction           -0.008785596
-------------------------   ----------------


-------------------------   --------------------
FINAL SINGLE POINT ENERGY      -518.377706928767
-------------------------   --------------------



           ************************************************************
           *        Program running with 4 parallel MPI-processes     *
           *              working on a common directory               *
           ************************************************************

------------------------------------------------------------------------------
                              ORCA PROPERTY CALCULATIONS
------------------------------------------------------------------------------

GBWName                                 ... cs_rporg_073_ox_solv_03.gbw
Number of atoms                         ...     24
Number of basis functions               ...    929
Max core memory                         ...   3000 MB

Electric properties:
Dipole moment                           ... YES
Quadrupole moment                       ...  NO
Static polarizability (Dipole/Dipole)   ...  NO
Static polarizability (Dipole/Quad.)    ...  NO
Static polarizability (Quad./Quad.)     ...  NO
Static polarizability (Velocity)        ...  NO

Atomic electric properties:
Dipole moment                           ...  NO
Quadrupole moment                       ...  NO
Static polarizability                   ...  NO

Choice of electric origin               ... Center of mass
Position of electric origin             ...     0.000000     0.005572    -0.000007

General magnetic properties:
Magnetizability                         ...  NO

EPR properties:
g-Tensor (aka g-matrix)                 ...  NO
Zero-Field splitting spin-orbit         ...  NO
Zero-field splitting spin-spin          ...  NO
Hyperfine couplings                     ...  NO (   0 nuclei)
Quadrupole couplings                    ...  NO (   0 nuclei)
Contact density                         ...  NO (   0 nuclei)

NMR properties:
Chemical shifts                         ...  NO (   0 nuclei)
Spin-rotation constants                 ...  NO (   0 nuclei)
Spin-spin couplings                     ...  NO (   0 nuclei,    0 pairs)

Choice of magnetic origin               ... GIAO
Position of magnetic origin             ...     0.000000     0.000000     0.000000

Properties with geometric perturbations:
SCF Hessian                             ...  NO
IR spectrum                             ...  NO
VCD spectrum                            ...  NO
X-ray spectroscopy properties:
SCF XES/XAS/RIXS spectra                ...  NO


-------------
DIPOLE MOMENT
-------------

Method             : SCF
Type of density    : Electron Density
Multiplicity       :   2
Irrep              :   0
Energy             :  -518.3689213329017775 Eh
Relativity type    : 
Basis              : AO
                                X                 Y                 Z
Electronic contribution:     -0.000945253      -1.449819777       0.003447162
Nuclear contribution   :      0.000010787       0.666083860       0.000129839
                        -----------------------------------------
Total Dipole Moment    :     -0.000934466      -0.783735917       0.003577002
                        -----------------------------------------
Magnitude (a.u.)       :      0.783744637
Magnitude (Debye)      :      1.992120551



--------------------
Rotational spectrum 
--------------------
 
Rotational constants in cm-1:             0.083302             0.013962             0.012406 
Rotational constants in MHz :          2497.339782           418.559791           371.935015 

Dipole components along the rotational axes: 
x,y,z [a.u.] :     0.000925    -0.783736     0.003574 
x,y,z [Debye]:     0.002351    -1.992098     0.009085 

 

Dipole moment calculation done in   0.1 sec 

Maximum memory used throughout the entire PROP-calculation: 97.8 MB

--------------------------------
SUGGESTED CITATIONS FOR THIS RUN
--------------------------------

Below you find a list of papers that are relevant to this ORCA run
We neither can nor want to force you to cite these papers, but we appreciate if you do
You receive ORCA, which is the product of decades of hard work by many enthusiastic individuals, for free
The only thing we kindly ask in return is that you cite our papers,
We deeply appreciate it, if you show your appreciation for ORCA by not just citing the generic ORCA reference.

Please note that relegating all ORCA citations to the supporting information does *not* help us.
SI sections are not indexed - citations you put there will not count into any citation statistics
But we need these citations in order to attract the funding resources that allow us to do what we are doing

Therefore, if you are a happy ORCA user, please consider citing a few of the papers listed below in the main body of your paper

In addition to the list printed below, the program has created the file cs_rporg_073_ox_solv_03.bibtex that contains the list in bibtex format
You can import this file easily into all common literature databanks and citation aid programs


List of essential papers. We consider these as the minimum necessary citations

  1. Neese,F.
     Software update: the ORCA program system, version 5.0
     WIRES Comput. Molec. Sci., 2022 12(1)e1606
     doi.org/10.1002/wcms.1606

List of papers to cite with high priority. The work reported in these papers was absolutely
necessary for this run to complete.
Our perspective: the developers of density functionals and basis sets usually get cited in chemistry papers
Good! But without the algorithms to do something with them, the functionals or basis sets would not do anything.
Hence, in our opinion, the algorithm design and method developments papers are equally worthy of getting cited

  1. Neese,F.
     An improvement of the resolution of the identity approximation for the formation of the Coulomb matrix
     J. Comp. Chem., 2003 24(14)1740-1747
     doi.org/10.1002/jcc.10318
  2. Garcia-Rates,M.; Neese,F.
     Effect of the Solute Cavity on the Solvation Energy and its Derivatives within the Framework of the Gaussian Charge Scheme
     J. Comput. Chem., 2020 41 922-939
     doi.org/10.1002/jcc.26139
  3. Neese,F.
     The SHARK Integral Generation and Digestion System
     J. Comp. Chem., 2022  1-16
     doi.org/10.1002/jcc.26942
  4. Lehtola,S.; Steigemann,C.; Oliveira,M.; Marques,M.
     Recent developments in Libxc - A comprehensive library of functionals for density functional theory
     Software X, 2018 7 
     doi.org/10.1016/j.softx.2017.11.002
  5. Grimme,S.; Antony,J.; Ehrlich,S.; Krieg,H.
     A consistent and accurate ab initio parametrization of density functional dispersion correction (DFT-D) for the 94 elements H-Pu
     J. Chem. Phys., 2010 132 154104-XXXX
     doi.org/10.1063/1.3382344
  6. Grimme,S.; Ehrlich,S.; Goerigk,L.
     Effect of the damping function in dispersion corrected density functional theory
     J. Comput. Chem., 2011 32(7)1456-1465
     doi.org/10.1002/jcc.21759

List of suggested additional citations. These are papers that are important in the 'surrounding' of 
of this run, or papers that preceded the highly important papers. If you like your results we are grateful for a citation.

  1. Neese,F.
     The ORCA program system
     WIRES Comput. Molec. Sci., 2012 2(1)73-78
     doi.org/10.1002/wcms.81
  2. Neese,F.
     Software update: the ORCA program system, version 4.0
     WIRES Comput. Molec. Sci., 2018 8(1)1-6
     doi.org/10.1002/wcms.1327
  3. Neese,F.; Wennmohs,F.; Becker,U.; Riplinger,C.
     The ORCA quantum chemistry program package
     J. Chem. Phys., 2020 152 Art. No. L224108
     doi.org/10.1063/5.0004608

List of optional additional citations

  1. Neese,F.
     Approximate second-order SCF convergence for spin unrestricted wavefunctions
     Chem. Phys. Lett., 2000 325(1-3)93-98
     doi.org/10.1016/s0009-2614(00)00662-x

Timings for individual modules:

Sum of individual times          ...      438.346 sec (=   7.306 min)
Startup calculation              ...       13.656 sec (=   0.228 min)   3.1 %
SCF iterations                   ...      422.647 sec (=   7.044 min)  96.4 %
Property calculations            ...        2.043 sec (=   0.034 min)   0.5 %
                             ****ORCA TERMINATED NORMALLY****
TOTAL RUN TIME: 0 days 0 hours 7 minutes 21 seconds 558 msec
