
                                 *****************
                                 * O   R   C   A *
                                 *****************

                                            #,                                       
                                            ###                                      
                                            ####                                     
                                            #####                                    
                                            ######                                   
                                           ########,                                 
                                     ,,################,,,,,                         
                               ,,#################################,,                 
                          ,,##########################################,,             
                       ,#########################################, ''#####,          
                    ,#############################################,,   '####,        
                  ,##################################################,,,,####,       
                ,###########''''           ''''###############################       
              ,#####''   ,,,,##########,,,,          '''####'''          '####       
            ,##' ,,,,###########################,,,                        '##       
           ' ,,###''''                  '''############,,,                           
         ,,##''                                '''############,,,,        ,,,,,,###''
      ,#''                                            '''#######################'''  
     '                                                          ''''####''''         
             ,#######,   #######,   ,#######,      ##                                
            ,#'     '#,  ##    ##  ,#'     '#,    #''#        ,####,   ,####,        
            ##       ##  ##   ,#'  ##            #'  '#       #'       #'  '#        
            ##       ##  #######   ##           ,######,      #####,   #    #        
            '#,     ,#'  ##    ##  '#,     ,#' ,#      #,     #,   #   #,  ,#        
             '#######'   ##     ##  '#######'  #'      '#     '####' # '####'        



                #########################################################
                #                        -***-                          #
                #          Department of theory and spectroscopy        #
                #                                                       #
                #                      Frank Neese                      #
                #                                                       #
                #     Directorship, Architecture, Infrastructure        #
                #                    SHARK, DRIVERS                     #
                #        Core code/Algorithms in most modules           #
                #                                                       #
                #        Max Planck Institute fuer Kohlenforschung      #
                #                Kaiser Wilhelm Platz 1                 #
                #                 D-45470 Muelheim/Ruhr                 #
                #                      Germany                          #
                #                                                       #
                #                  All rights reserved                  #
                #                        -***-                          #
                #########################################################


                         Program Version 6.0.0  -   RELEASE  -


 With contributions from (in alphabetic order):
   Daniel Aravena         : Magnetic Suceptibility
   Michael Atanasov       : Ab Initio Ligand Field Theory (pilot matlab implementation)
   Alexander A. Auer      : GIAO ZORA, VPT2 properties, NMR spectrum
   Ute Becker             : All parallelization in ORCA, NUMFREQ, NUMCALC
   Giovanni Bistoni       : ED, misc. LED, open-shell LED, HFLD
   Martin Brehm           : Molecular dynamics
   Dmytro Bykov           : pre 5.0 version of the SCF Hessian
   Marcos Casanova-Páez   : Triplet and SCS-CIS(D). UHF-(DLPNO)-IP/EA/STEOM-CCSD. UHF-CVS-IP/STEOM-CCSD
   Vijay G. Chilkuri      : MRCI spin determinant printing, contributions to CSF-ICE
   Pauline Colinet        : FMM embedding
   Dipayan Datta          : RHF DLPNO-CCSD density
   Achintya Kumar Dutta   : EOM-CC, STEOM-CC
   Nicolas Foglia         : Exact transition moments, OPA infrastructure, MCD improvements
   Dmitry Ganyushin       : Spin-Orbit,Spin-Spin,Magnetic field MRCI
   Miquel Garcia          : C-PCM and meta-GGA Hessian, CCSD/C-PCM, Gaussian charge scheme
   Tiago L. C. Gouveia    : GS-ROHF, GS-ROCIS
   Yang Guo               : DLPNO-NEVPT2, F12-NEVPT2, CIM, IAO-localization
   Andreas Hansen         : Spin unrestricted coupled pair/coupled cluster methods
   Ingolf Harden          : AUTO-CI MPn and infrastructure 
   Benjamin Helmich-Paris : MC-RPA, TRAH-(SCF,CASSCF), AVAS, COSX integrals, SCF dyn. polar.
   Lee Huntington         : MR-EOM, pCC
   Robert Izsak           : Overlap fitted RIJCOSX, COSX-SCS-MP3, EOM
   Riya Kayal             : Wick's Theorem for AUTO-CI, AUTO-CI UHF-CCSDT
   Emily Kempfer          : AUTO-CI, RHF CISDT and CCSDT
   Christian Kollmar      : KDIIS, OOCD, Brueckner-CCSD(T), CCSD density, CASPT2, CASPT2-K, improved NEVPT2
   Axel Koslowski         : Symmetry handling
   Simone Kossmann        : Meta GGA functionals, TD-DFT gradient, OOMP2, (MP2 Hessian; deprecated post 5.0)
   Lucas Lang             : DCDCAS
   Marvin Lechner         : AUTO-CI (C++ implementation), FIC-MRCC
   Spencer Leger          : CASSCF response
   Dagmar Lenk            : GEPOL surface, SMD, ORCA-2-JSON
   Dimitrios Liakos       : Extrapolation schemes; Compound Job, initial MDCI parallelization
   Dimitrios Manganas     : Further ROCIS development; embedding schemes. LFT, Crystal Embedding
   Dimitrios Pantazis     : SARC Basis sets
   Anastasios Papadopoulos: AUTO-CI, single reference methods and gradients
   Taras Petrenko         : pre 6.0 DFT Hessian and TD-DFT gradient, (ASA, deprecated), ECA, 1-Electron XAS/XES, NRVS
   Peter Pinski           : DLPNO-MP2, DLPNO-MP2 Gradient
   Christoph Reimann      : Effective Core Potentials
   Marius Retegan         : Local ZFS, SOC
   Christoph Riplinger    : Optimizer, TS searches, QM/MM, DLPNO-CCSD(T), (RO)-DLPNO pert. Triples
   Michael Roemelt        : Original ROCIS implementation
   Masaaki Saitow         : Open-shell DLPNO-CCSD energy and density
   Barbara Sandhoefer     : DKH picture change effects
   Kantharuban Sivalingam : CASSCF convergence/infrastructure, NEVPT2 and variants, FIC-MRCI
   Bernardo de Souza      : ESD, SOC TD-DFT
   Georgi Stoychev        : AutoAux, RI-MP2 NMR, DLPNO-MP2 response, X2C
   Van Anh Tran           : RI-MP2 g-tensors
   Willem Van den Heuvel  : Paramagnetic NMR
   Zikuan Wang            : NOTCH, Electric field optimization 
   Frank Wennmohs         : Technical directorship and infrastructure
   Hang Xu                : AUTO-CI-Response properties 


 We gratefully acknowledge several colleagues who have allowed us to
 interface, adapt or use parts of their codes:
   Stefan Grimme, W. Hujo, H. Kruse, P. Pracht,  : VdW corrections, initial TS optimization,
                  C. Bannwarth, S. Ehlert,         DFT functionals, gCP, sTDA/sTD-DF
                  L. Wittmann, M. Mueller
   Ed Valeev, F. Pavosevic, A. Kumar             : LibInt (2-el integral package), F12 methods
   Garnet Chan, S. Sharma, J. Yang, R. Olivares  : DMRG
   Ulf Ekstrom                                   : XCFun DFT Library
   Mihaly Kallay                                 : mrcc  (arbitrary order and MRCC methods)
   Frank Weinhold                                : gennbo (NPA and NBO analysis)
   Simon Mueller                                 : openCOSMO-RS
   Christopher J. Cramer and Donald G. Truhlar   : smd solvation model
   Lars Goerigk                                  : TD-DFT with DH, B97 family of functionals
   V. Asgeirsson, H. Jonsson                     : NEB implementation
   FAccTs GmbH                                   : IRC, NEB, NEB-TS, DLPNO-Multilevel, CI-OPT
                                                   MM, QMMM, 2- and 3-layer-ONIOM, Crystal-QMMM,
                                                   LR-CPCM, SF, NACMEs, symmetry and pop. for TD-DFT,
                                                   nearIR, NL-DFT gradient (VV10), updates on ESD,
                                                   ML-optimized integration grids, MBIS, APM,
                                                   GOAT, DOCKER, SOLVATOR, interface openCOSMO-RS
   S Lehtola, MJT Oliveira, MAL Marques          : LibXC Library
   Liviu Ungur et al                             : ANISO software


 Your calculation uses the libint2 library for the computation of 2-el integrals
 For citations please refer to: http://libint.valeyev.net

 Your ORCA version has been built with support for libXC version: 6.2.2
 For citations please refer to: https://libxc.gitlab.io

 This ORCA versions uses:
   CBLAS   interface :  Fast vector & matrix operations
   LAPACKE interface :  Fast linear algebra routines
   SCALAPACK package :  Parallel linear algebra routines
   Shared memory     :  Shared parallel matrices
   BLAS/LAPACK       :  OpenBLAS 0.3.27  USE64BITINT DYNAMIC_ARCH NO_AFFINITY Sandybridge SINGLE_THREADED
        Core in use  :  Sandybridge
   Copyright (c) 2011-2014, The OpenBLAS Project


NOTE: MaxCore=3500 MB was set to SCF,MP2,MDCI,CIPSI,MRCI and CIS
      => If you want to overwrite this, your respective input block should be placed after the MaxCore statement
Your calculation utilizes the atom-pairwise dispersion correction
with the Becke-Johnson damping scheme (D3BJ)


Your calculation utilizes the SMD solvation module
Please cite in your paper:
A.V. Marenich, C.J. Cramer, D.G. Truhlar J. Phys. Chem. B, 113, (2009), 6378 

Warning: RI is on but no J-basis has been assigned. Assigning Def2/J (nothing to worry about!)
================================================================================

----- Orbital basis set information -----
Your calculation utilizes the basis: aug-cc-pVTZ 
    H, B-Ne : Obtained from the ccRepo (grant-hill.group.shef.ac.uk/ccrepo) Feb. 2017
              R. A. Kendall, T. H. Dunning, Jr., R. J. Harrison, J. Chem. Phys. 96, 6796 (1992)
         He : Obtained from the ccRepo (grant-hill.group.shef.ac.uk/ccrepo) Feb. 2017
              D. E. Woon, T. H. Dunning, Jr., J. Chem. Phys. 100, 2975 (1994)
  Li-Be, Na : Obtained from the ccRepo (grant-hill.group.shef.ac.uk/ccrepo) Feb. 2017
              B. P. Prascher, D. E. Woon, K. A. Peterson, T. H. Dunning, Jr., A. K. Wilson, Theor. Chem. Acc. 128, 69 (2011)
         Mg : Obtained from the Peterson Research Group Website (tyr0.chem.wsu.edu/~kipeters) Feb. 2017
              B. P. Prascher, D. E. Woon, K. A. Peterson, T. H. Dunning, Jr., A. K. Wilson, Theor. Chem. Acc. 128, 69 (2011)
      Al-Ar : Obtained from the ccRepo (grant-hill.group.shef.ac.uk/ccrepo) Feb. 2017
              D. E. Woon, T. H. Dunning, Jr., J. Chem. Phys. 98, 1358 (1993)
      Sc-Zn : Obtained from the ccRepo (grant-hill.group.shef.ac.uk/ccrepo) Feb. 2017
              N. B. Balabanov, K. A. Peterson, J. Chem. Phys. 123, 064107 (2005)
              N. B. Balabanov, K. A. Peterson, J. Chem. Phys. 125, 074110 (2006)
      Ga-Kr : Obtained from the ccRepo (grant-hill.group.shef.ac.uk/ccrepo) Feb. 2017
              A. K. Wilson, D. E. Woon, K. A. Peterson, T. H. Dunning, Jr., J. Chem. Phys. 110, 7667 (1999)
     Ag, Au : Obtained from the Peterson Research Group Website (tyr0.chem.wsu.edu/~kipeters) Feb. 2017
              K. A. Peterson, C. Puzzarini, Theor. Chem. Acc. 114, 283 (2005)

----- AuxJ basis set information -----
Your calculation utilizes the auxiliary basis: def2/J
   F. Weigend, Phys. Chem. Chem. Phys. 8, 1057 (2006).

================================================================================
                                        WARNINGS
                       Please study these warnings very carefully!
================================================================================


WARNING: Geometry Optimization
  ===> : Switching off AutoStart
         For restart on a previous wavefunction, please use MOREAD

================================================================================
                                       INPUT FILE
================================================================================
NAME = cs_rporg_018_red_opt_04.inp
|  1> !PBE0 opt aug-cc-pVTZ d3 TightSCF SlowConv RIJCOSX defgrid2
|  2> 
|  3> %pal
|  4> nprocs 8
|  5> end
|  6> 
|  7> %scf
|  8> MaxIter 1500
|  9> end
| 10> 
| 11> %maxcore 3500
| 12> 
| 13> !CPCM
| 14> %cpcm smd true
| 15> SMDsolvent "MeCN"
| 16> surfacetype gepol_ses
| 17> rsolv 2.19
| 18> end 
| 19> 
| 20> * xyz 0 1
| 21> C          -0.33578897576289      0.78706332413970     -0.00007064342653
| 22> C          -1.63104450940735      0.25443214150099      0.00002424994707
| 23> C          -1.80666505085776     -1.13184792287007      0.00010488474499
| 24> C          -0.67709514280741     -1.95709297790421      0.00008171672668
| 25> C           0.60485199074243     -1.42986794226310     -0.00000896897667
| 26> C           0.79403740595386     -0.03404919740528     -0.00007754792200
| 27> C           2.11776775675579      0.59942775277408     -0.00015788147995
| 28> C           3.31301096591764     -0.01037680773538      0.00016998990263
| 29> C           4.62672268480693      0.69670422006693      0.00006613977785
| 30> H           5.22986800286636      0.42062681248378     -0.88556810108390
| 31> H           5.22969209158747      0.42121685919020      0.88600364391119
| 32> H           4.49947065542959      1.79239087728672     -0.00031400154329
| 33> H           3.35830731979376     -1.10765129675188      0.00055685548665
| 34> H           2.10183131012046      1.69773297660842     -0.00050241232510
| 35> H           1.46480294351024     -2.10372145346859     -0.00005885954138
| 36> H          -0.81507815522221     -3.04272899333565      0.00012435061663
| 37> H          -2.80202830314914     -1.57931173714880      0.00017356816380
| 38> O          -2.63880088575063      1.15236499149081      0.00002597094029
| 39> C          -3.95583677666632      0.68525859520605      0.00017372040280
| 40> H          -4.60351833384684      1.57486457447649      0.00019490121742
| 41> H          -4.17725863855936      0.08018155004781      0.90083429325456
| 42> H          -4.17743481291300      0.08009944047560     -0.90038823724126
| 43> H          -0.23264934254160      1.87564721313537     -0.00013303155248
| 44> *
| 45> 
| 46>                          ****END OF INPUT****
================================================================================

                       *****************************
                       * Geometry Optimization Run *
                       *****************************

Geometry optimization settings:
Update method            Update   .... BFGS
Choice of coordinates    CoordSys .... (2022) Redundant Internals
Initial Hessian          InHess   .... Almloef's Model
Max. no of cycles        MaxIter  .... 69

Convergence Tolerances:
Energy Change            TolE     ....  5.0000e-06 Eh
Max. Gradient            TolMAXG  ....  3.0000e-04 Eh/bohr
RMS Gradient             TolRMSG  ....  1.0000e-04 Eh/bohr
Max. Displacement        TolMAXD  ....  4.0000e-03 bohr
RMS Displacement         TolRMSD  ....  2.0000e-03 bohr
Strict Convergence                .... False

------------------------------------------------------------------------------
                        ORCA OPTIMIZATION COORDINATE SETUP
------------------------------------------------------------------------------

The optimization will be done in redundant internal coordinates (2022)
Making redundant internal coordinates   ...  (2022 redundants) done
Evaluating the initial hessian          ...  (Almloef) done
Evaluating the coordinates              ...  done
Calculating the B-matrix                .... done
Calculating the G-matrix                .... done
Diagonalizing the G-matrix              .... done
Small eigenvalue found = 8.806e-03
Small eigenvalue found = 2.471e-02
The first mode is                       ....   39
The number of degrees of freedom        ....   63

    -----------------------------------------------------------------
                    Redundant Internal Coordinates


    -----------------------------------------------------------------
         Definition                    Initial Value    Approx d2E/dq
    -----------------------------------------------------------------
      1. B(C   1,C   0)                  1.4005         0.601169   
      2. B(C   2,C   1)                  1.3974         0.608130   
      3. B(C   3,C   2)                  1.3989         0.604670   
      4. B(C   4,C   3)                  1.3861         0.633744   
      5. B(C   5,C   4)                  1.4086         0.583571   
      6. B(C   5,C   0)                  1.3967         0.609636   
      7. B(C   6,C   5)                  1.4675         0.469995   
      8. B(C   7,C   6)                  1.3418         0.745786   
      9. B(C   8,C   7)                  1.4919         0.429679   
     10. B(H   9,C   8)                  1.1065         0.338916   
     11. B(H  10,C   8)                  1.1065         0.338916   
     12. B(H  11,C   8)                  1.1031         0.343242   
     13. B(H  12,C   7)                  1.0982         0.349403   
     14. B(H  13,C   6)                  1.0984         0.349131   
     15. B(H  14,C   4)                  1.0925         0.356785   
     16. B(H  15,C   3)                  1.0944         0.354366   
     17. B(H  16,C   2)                  1.0913         0.358363   
     18. B(O  17,C   1)                  1.3498         0.648744   
     19. B(C  18,O  17)                  1.3974         0.544557   
     20. B(H  19,C  18)                  1.1004         0.346596   
     21. B(H  20,C  18)                  1.1074         0.337802   
     22. B(H  21,C  18)                  1.1074         0.337802   
     23. B(H  22,C   0)                  1.0935         0.355553   
     24. A(C   1,C   0,H  22)          117.7657         0.350320   
     25. A(C   5,C   0,H  22)          120.5957         0.351149   
     26. A(C   1,C   0,C   5)          121.6385         0.430361   
     27. A(C   0,C   1,O  17)          115.9450         0.432350   
     28. A(C   0,C   1,C   2)          119.5733         0.430169   
     29. A(C   2,C   1,O  17)          124.4817         0.433245   
     30. A(C   1,C   2,H  16)          121.4263         0.351469   
     31. A(C   1,C   2,C   3)          118.9312         0.430618   
     32. A(C   3,C   2,H  16)          119.6425         0.351131   
     33. A(C   4,C   3,H  15)          119.5992         0.353260   
     34. A(C   2,C   3,H  15)          118.9079         0.350466   
     35. A(C   2,C   3,C   4)          121.4929         0.433823   
     36. A(C   3,C   4,C   5)          120.0745         0.431062   
     37. A(C   3,C   4,H  14)          119.5621         0.353667   
     38. A(C   5,C   4,H  14)          120.3634         0.348772   
     39. A(C   0,C   5,C   4)          118.2895         0.428073   
     40. A(C   0,C   5,C   6)          118.4182         0.411862   
     41. A(C   4,C   5,C   6)          123.2923         0.408685   
     42. A(C   7,C   6,H  13)          117.8617         0.362257   
     43. A(C   5,C   6,H  13)          114.7423         0.335142   
     44. A(C   5,C   6,C   7)          127.3960         0.426934   
     45. A(C   6,C   7,C   8)          124.6791         0.420143   
     46. A(C   8,C   7,H  12)          115.9267         0.330238   
     47. A(C   6,C   7,H  12)          119.3942         0.362305   
     48. A(H   9,C   8,H  11)          108.0861         0.285940   
     49. A(C   7,C   8,H  11)          111.6659         0.329269   
     50. A(H   9,C   8,H  10)          106.3609         0.285375   
     51. A(C   7,C   8,H  10)          111.2101         0.328580   
     52. A(C   7,C   8,H   9)          111.2100         0.328580   
     53. A(H  10,C   8,H  11)          108.0863         0.285940   
     54. A(C   1,O  17,C  18)          118.7705         0.421986   
     55. A(O  17,C  18,H  20)          111.7879         0.339512   
     56. A(O  17,C  18,H  19)          106.5288         0.340973   
     57. A(H  20,C  18,H  21)          108.8326         0.285083   
     58. A(H  19,C  18,H  21)          108.9062         0.286227   
     59. A(O  17,C  18,H  21)          111.7881         0.339512   
     60. A(H  19,C  18,H  20)          108.9064         0.286227   
     61. D(O  17,C   1,C   0,C   5)    179.9997         0.024920   
     62. D(O  17,C   1,C   0,H  22)      0.0002         0.024920   
     63. D(C   2,C   1,C   0,H  22)    179.9999         0.024920   
     64. D(C   2,C   1,C   0,C   5)     -0.0005         0.024920   
     65. D(H  16,C   2,C   1,O  17)      0.0002         0.025533   
     66. D(C   3,C   2,C   1,C   0)     -0.0003         0.025533   
     67. D(C   3,C   2,C   1,O  17)    179.9994         0.025533   
     68. D(H  16,C   2,C   1,C   0)   -179.9996         0.025533   
     69. D(H  15,C   3,C   2,H  16)      0.0005         0.025227   
     70. D(H  15,C   3,C   2,C   1)   -179.9988         0.025227   
     71. D(C   4,C   3,C   2,H  16)    179.9998         0.025227   
     72. D(C   4,C   3,C   2,C   1)      0.0005         0.025227   
     73. D(H  14,C   4,C   3,C   2)   -179.9979         0.027869   
     74. D(C   5,C   4,C   3,H  15)    179.9994         0.027869   
     75. D(C   5,C   4,C   3,C   2)      0.0001         0.027869   
     76. D(H  14,C   4,C   3,H  15)      0.0013         0.027869   
     77. D(C   6,C   5,C   4,H  14)     -0.0027         0.023411   
     78. D(C   0,C   5,C   4,H  14)    179.9972         0.023411   
     79. D(C   0,C   5,C   4,C   3)     -0.0009         0.023411   
     80. D(C   6,C   5,C   0,H  22)      0.0006         0.025666   
     81. D(C   6,C   5,C   0,C   1)   -179.9990         0.025666   
     82. D(C   6,C   5,C   4,C   3)    179.9992         0.023411   
     83. D(C   4,C   5,C   0,H  22)   -179.9994         0.025666   
     84. D(C   4,C   5,C   0,C   1)      0.0011         0.025666   
     85. D(H  13,C   6,C   5,C   4)    179.9829         0.015041   
     86. D(H  13,C   6,C   5,C   0)     -0.0170         0.015041   
     87. D(C   7,C   6,C   5,C   4)     -0.0187         0.015041   
     88. D(C   7,C   6,C   5,C   0)    179.9814         0.015041   
     89. D(H  12,C   7,C   6,C   5)     -0.0006         0.039623   
     90. D(C   8,C   7,C   6,H  13)     -0.0016         0.039623   
     91. D(C   8,C   7,C   6,C   5)   -179.9999         0.039623   
     92. D(H  12,C   7,C   6,H  13)    179.9976         0.039623   
     93. D(H  11,C   8,C   7,C   6)      0.0001         0.013636   
     94. D(H  10,C   8,C   7,H  12)    -59.1693         0.013636   
     95. D(H  10,C   8,C   7,C   6)    120.8300         0.013636   
     96. D(H   9,C   8,C   7,H  12)     59.1713         0.013636   
     97. D(H   9,C   8,C   7,C   6)   -120.8294         0.013636   
     98. D(C  18,O  17,C   1,C   2)      0.0028         0.031094   
     99. D(C  18,O  17,C   1,C   0)   -179.9974         0.031094   
    100. D(H  21,C  18,O  17,C   1)    -61.1463         0.023611   
    101. D(H  20,C  18,O  17,C   1)     61.1411         0.023611   
    102. D(H  19,C  18,O  17,C   1)    179.9974         0.023611   
    -----------------------------------------------------------------

Number of atoms                         .... 23
Number of degrees of freedom            .... 102


         *************************************************************
         *                GEOMETRY OPTIMIZATION CYCLE   1            *
         *************************************************************
---------------------------------
CARTESIAN COORDINATES (ANGSTROEM)
---------------------------------
  C     -0.335789    0.787063   -0.000071
  C     -1.631045    0.254432    0.000024
  C     -1.806665   -1.131848    0.000105
  C     -0.677095   -1.957093    0.000082
  C      0.604852   -1.429868   -0.000009
  C      0.794037   -0.034049   -0.000078
  C      2.117768    0.599428   -0.000158
  C      3.313011   -0.010377    0.000170
  C      4.626723    0.696704    0.000066
  H      5.229868    0.420627   -0.885568
  H      5.229692    0.421217    0.886004
  H      4.499471    1.792391   -0.000314
  H      3.358307   -1.107651    0.000557
  H      2.101831    1.697733   -0.000502
  H      1.464803   -2.103721   -0.000059
  H     -0.815078   -3.042729    0.000124
  H     -2.802028   -1.579312    0.000174
  O     -2.638801    1.152365    0.000026
  C     -3.955837    0.685259    0.000174
  H     -4.603518    1.574865    0.000195
  H     -4.177259    0.080182    0.900834
  H     -4.177435    0.080099   -0.900388
  H     -0.232649    1.875647   -0.000133

----------------------------
CARTESIAN COORDINATES (A.U.)
----------------------------
  NO LB      ZA    FRAG     MASS         X           Y           Z
   0 C     6.0000    0    12.011   -0.634549    1.487334   -0.000133
   1 C     6.0000    0    12.011   -3.082227    0.480807    0.000046
   2 C     6.0000    0    12.011   -3.414102   -2.138883    0.000198
   3 C     6.0000    0    12.011   -1.279524   -3.698370    0.000154
   4 C     6.0000    0    12.011    1.143005   -2.702059   -0.000017
   5 C     6.0000    0    12.011    1.500513   -0.064344   -0.000147
   6 C     6.0000    0    12.011    4.002001    1.132754   -0.000298
   7 C     6.0000    0    12.011    6.260683   -0.019609    0.000321
   8 C     6.0000    0    12.011    8.743239    1.316580    0.000125
   9 H     1.0000    0     1.008    9.883018    0.794869   -1.673481
  10 H     1.0000    0     1.008    9.882686    0.795985    1.674304
  11 H     1.0000    0     1.008    8.502767    3.387128   -0.000593
  12 H     1.0000    0     1.008    6.346281   -2.093158    0.001052
  13 H     1.0000    0     1.008    3.971886    3.208250   -0.000949
  14 H     1.0000    0     1.008    2.768076   -3.975457   -0.000111
  15 H     1.0000    0     1.008   -1.540274   -5.749924    0.000235
  16 H     1.0000    0     1.008   -5.295066   -2.984467    0.000328
  17 O     8.0000    0    15.999   -4.986611    2.177654    0.000049
  18 C     6.0000    0    12.011   -7.475448    1.294951    0.000328
  19 H     1.0000    0     1.008   -8.699389    2.976063    0.000368
  20 H     1.0000    0     1.008   -7.893875    0.151521    1.702330
  21 H     1.0000    0     1.008   -7.894208    0.151366   -1.701487
  22 H     1.0000    0     1.008   -0.439644    3.544460   -0.000251

--------------------------------
INTERNAL COORDINATES (ANGSTROEM)
--------------------------------
 C      0   0   0     0.000000000000     0.00000000     0.00000000
 C      1   0   0     1.400493799758     0.00000000     0.00000000
 C      2   1   0     1.397360010146   119.57334193     0.00000000
 C      3   2   1     1.398912998927   118.93120447     0.00000000
 C      4   3   2     1.386129394987   121.49291159     0.00000000
 C      1   2   3     1.396686588290   121.63854745     0.00000000
 C      6   1   2     1.467499606302   118.41819906   180.00097246
 C      7   6   1     1.341815202837   127.39599747   179.98135514
 C      8   7   6     1.491912219606   124.67911004   180.00011385
 H      9   8   7     1.106503962154   111.21003885   239.17061770
 H      9   8   7     1.106503796987   111.21012170   120.82997430
 H      9   8   7     1.103051437739   111.66593701     0.00000000
 H      8   7   6     1.098209093746   119.39422584     0.00000000
 H      7   6   1     1.098420890977   114.74234408     0.00000000
 H      5   4   3     1.092517367468   119.56207478   180.00206550
 H      4   3   2     1.094369622904   118.90785822   180.00122841
 H      3   2   1     1.091316578184   121.42625794   180.00038188
 O      2   1   3     1.349761577892   115.94496589   180.00020912
 C     18   2   1     1.397416167518   118.77045779   180.00258916
 H     19  18   2     1.100404561202   106.52884643   179.99740442
 H     19  18   2     1.107400261419   111.78794203    61.14105768
 H     19  18   2     1.107400167861   111.78811351   298.85367366
 H      1   2   3     1.093459039569   117.76572529   179.99994793

---------------------------
INTERNAL COORDINATES (A.U.)
---------------------------
 C      0   0   0     0.000000000000     0.00000000     0.00000000
 C      1   0   0     2.646549733797     0.00000000     0.00000000
 C      2   1   0     2.640627729668   119.57334193     0.00000000
 C      3   2   1     2.643562453155   118.93120447     0.00000000
 C      4   3   2     2.619404942704   121.49291159     0.00000000
 C      1   2   3     2.639355146789   121.63854745     0.00000000
 C      6   1   2     2.773172357548   118.41819906   180.00097246
 C      7   6   1     2.535663255694   127.39599747   179.98135514
 C      8   7   6     2.819305510906   124.67911004   180.00011385
 H      9   8   7     2.090989454569   111.21003885   239.17061770
 H      9   8   7     2.090989142449   111.21012170   120.82997430
 H      9   8   7     2.084465128954   111.66593701     0.00000000
 H      8   7   6     2.075314424961   119.39422584     0.00000000
 H      7   6   1     2.075714663724   114.74234408     0.00000000
 H      5   4   3     2.064558621067   119.56207478   180.00206550
 H      4   3   2     2.068058876571   118.90785822   180.00122841
 H      3   2   1     2.062289458175   121.42625794   180.00038188
 O      2   1   3     2.550679728306   115.94496589   180.00020912
 C     18   2   1     2.640733851722   118.77045779   180.00258916
 H     19  18   2     2.079463257190   106.52884643   179.99740442
 H     19  18   2     2.092683214715   111.78794203    61.14105768
 H     19  18   2     2.092683037915   111.78811351   298.85367366
 H      1   2   3     2.066338123445   117.76572529   179.99994793

---------------------
BASIS SET INFORMATION
---------------------
There are 3 groups of distinct atoms

 Group   1 Type C   : 19s6p3d2f contracted to 5s4p3d2f pattern {88111/3111/111/11}
 Group   2 Type H   : 6s3p2d contracted to 4s3p2d pattern {3111/111/11}
 Group   3 Type O   : 19s6p3d2f contracted to 5s4p3d2f pattern {88111/3111/111/11}

Atom   0C    basis set group =>   1
Atom   1C    basis set group =>   1
Atom   2C    basis set group =>   1
Atom   3C    basis set group =>   1
Atom   4C    basis set group =>   1
Atom   5C    basis set group =>   1
Atom   6C    basis set group =>   1
Atom   7C    basis set group =>   1
Atom   8C    basis set group =>   1
Atom   9H    basis set group =>   2
Atom  10H    basis set group =>   2
Atom  11H    basis set group =>   2
Atom  12H    basis set group =>   2
Atom  13H    basis set group =>   2
Atom  14H    basis set group =>   2
Atom  15H    basis set group =>   2
Atom  16H    basis set group =>   2
Atom  17O    basis set group =>   3
Atom  18C    basis set group =>   1
Atom  19H    basis set group =>   2
Atom  20H    basis set group =>   2
Atom  21H    basis set group =>   2
Atom  22H    basis set group =>   2
---------------------------------
AUXILIARY/J BASIS SET INFORMATION
---------------------------------
There are 3 groups of distinct atoms

 Group   1 Type C   : 12s5p4d2f1g contracted to 6s4p3d1f1g pattern {711111/2111/211/2/1}
 Group   2 Type H   : 5s2p1d contracted to 3s1p1d pattern {311/2/1}
 Group   3 Type O   : 12s5p4d2f1g contracted to 6s4p3d1f1g pattern {711111/2111/211/2/1}

Atom   0C    basis set group =>   1
Atom   1C    basis set group =>   1
Atom   2C    basis set group =>   1
Atom   3C    basis set group =>   1
Atom   4C    basis set group =>   1
Atom   5C    basis set group =>   1
Atom   6C    basis set group =>   1
Atom   7C    basis set group =>   1
Atom   8C    basis set group =>   1
Atom   9H    basis set group =>   2
Atom  10H    basis set group =>   2
Atom  11H    basis set group =>   2
Atom  12H    basis set group =>   2
Atom  13H    basis set group =>   2
Atom  14H    basis set group =>   2
Atom  15H    basis set group =>   2
Atom  16H    basis set group =>   2
Atom  17O    basis set group =>   3
Atom  18C    basis set group =>   1
Atom  19H    basis set group =>   2
Atom  20H    basis set group =>   2
Atom  21H    basis set group =>   2
Atom  22H    basis set group =>   2


           ************************************************************
           *        Program running with 8 parallel MPI-processes     *
           *              working on a common directory               *
           ************************************************************
------------------------------------------------------------------------------
                             ORCA STARTUP CALCULATIONS
                           -- RI-GTO INTEGRALS CHOSEN --
------------------------------------------------------------------------------
------------------------------------------------------------------------------
                   ___                                                        
                  /   \      - P O W E R E D   B Y -                         
                 /     \                                                     
                 |  |  |   _    _      __       _____    __    __             
                 |  |  |  | |  | |    /  \     |  _  \  |  |  /  |          
                  \  \/   | |  | |   /    \    | | | |  |  | /  /          
                 / \  \   | |__| |  /  /\  \   | |_| |  |  |/  /          
                |  |  |   |  __  | /  /__\  \  |    /   |      \           
                |  |  |   | |  | | |   __   |  |    \   |  |\   \          
                \     /   | |  | | |  |  |  |  | |\  \  |  | \   \       
                 \___/    |_|  |_| |__|  |__|  |_| \__\ |__|  \__/        
                                                                              
                      - O R C A' S   B I G   F R I E N D -                    
                                      &                                       
                       - I N T E G R A L  F E E D E R -                       
                                                                              
 v1 FN, 2020, v2 2021, v3 2022-2024                                           
------------------------------------------------------------------------------


----------------------
SHARK INTEGRAL PACKAGE
----------------------

Number of atoms                             ...     23
Number of basis functions                   ...    848
Number of shells                            ...    328
Maximum angular momentum                    ...      3
Integral batch strategy                     ... SHARK/LIBINT Hybrid
RI-J (if used) integral strategy            ... SPLIT-RIJ (Revised 2003 algorithm where possible)
Printlevel                                  ...      1
Contraction scheme used                     ... PARTIAL GENERAL contraction
Prescreening option                         ... SCHWARTZ
   Thresh                                   ... 2.500e-11
   Tcut                                     ... 2.500e-12
   Tpresel                                  ... 2.500e-12 
Coulomb Range Separation                    ... NOT USED
Exchange Range Separation                   ... NOT USED
Multipole approximations                    ... NOT USED
Finite Nucleus Model                        ... NOT USED
CABS basis                                  ... NOT available
Auxiliary Coulomb fitting basis             ... AVAILABLE
   # of basis functions in Aux-J            ...    671
   # of shells in Aux-J                     ...    225
   Maximum angular momentum in Aux-J        ...      4
Auxiliary J/K fitting basis                 ... NOT available
Auxiliary Correlation fitting basis         ... NOT available
Auxiliary 'external' fitting basis          ... NOT available

Checking pre-screening integrals            ... done (  0.1 sec) Dimension = 328
Save PGC pre-screening integrals            ... done (  0.1 sec) Dimension = 328
Calculate PGC overlap integrals             ... done (  0.2 sec) Dimension = 262
Calculating pre-screening integrals (ORCA)  ... done (  0.3 sec) Dimension = 262
Check shell pair data                       ... done (  0.0 sec)
Shell pair information
Shell pair cut-off parameter TPreSel        ...   2.5e-12
Total number of shell pairs                 ...     53956
Shell pairs after pre-screening             ...     42204
Total number of primitive shell pairs       ...     70194
Primitive shell pairs kept                  ...     50343
          la=0 lb=0:   9575 shell pairs
          la=1 lb=0:  10914 shell pairs
          la=1 lb=1:   2872 shell pairs
          la=2 lb=0:   7543 shell pairs
          la=2 lb=1:   3934 shell pairs
          la=2 lb=2:   1402 shell pairs
          la=3 lb=0:   3050 shell pairs
          la=3 lb=1:   1575 shell pairs
          la=3 lb=2:   1103 shell pairs
          la=3 lb=3:    236 shell pairs

Calculating one electron integrals          ... done (  0.1 sec)
Calculating RI/J V-Matrix + Cholesky decomp.... done (  0.1 sec)
Calculating Nuclear repulsion               ... done (  0.0 sec) ENN=    557.555815540774 Eh

Diagonalization of the overlap matrix:
Smallest eigenvalue                        ... 4.472e-07
Time for diagonalization                   ...    0.204 sec
Threshold for overlap eigenvalues          ... 1.000e-07
Number of eigenvalues below threshold      ... 0

IMPORTANT:
Smallest eigenvalue of S below the DiffSThresh (1.000e-06) while
Thresh>1e-12 and/or TCut>1e-13! In order to avoid SCF convergence issues,
Thresh will be set to at least 1e-12 and TCut to at least 1e-13.
This can be turned off by adding %SCF DiffSThresh -1 END to the input.

Time for construction of square roots      ...    0.153 sec
Total time needed                          ...    0.424 sec

-------------------
DFT GRID GENERATION
-------------------

General Integration Accuracy     IntAcc      ... 4.388
Radial Grid Type                 RadialGrid  ... OptM3 with GC (2021)
Angular Grid (max. ang.)         AngularGrid ... 4 (Lebedev-302)
Angular grid pruning method      GridPruning ... 4 (adaptive)
Weight generation scheme         WeightScheme... mBecke (2022)
Basis function cutoff            BFCut       ... 1.0000e-11
Integration weight cutoff        WCut        ... 1.0000e-14
Partially contracted basis set               ... off
Rotationally invariant grid construction     ... off
Angular grids for H and He will be reduced by one unit
Diffuse basis detected: some atoms will have their outermost
                        angular grid increased by 1.

Total number of grid points                  ...   109705
Total number of batches                      ...     1726
Average number of points per batch           ...       63
Average number of grid points per atom       ...     4770

---------------------
SHARK GRID GENERATION
---------------------

General Integration Accuracy     IntAcc      ... 4.388
Radial Grid Type                 RadialGrid  ... OptM3 with GC (2021)
Angular Grid (max. ang.)         AngularGrid ... 4 (Lebedev-302)
Angular grid pruning method      GridPruning ... 4 (adaptive)
Weight generation scheme         WeightScheme... mBecke (2022)
Basis function cutoff            BFCut       ... 1.0000e-11
Integration weight cutoff        WCut        ... 1.0000e-14
Partially contracted basis set               ... off
Rotationally invariant grid construction     ... off
Angular grids for H and He will be reduced by one unit
Diffuse basis detected: some atoms will have their outermost
                        angular grid increased by 1.
Steep s-basis detected: some atoms will have their radial
                        grid points doubled.

Total number of grid points                  ...   178957
Total number of batches                      ...     2809
Average number of points per batch           ...       63
Average number of grid points per atom       ...     7781

--------------------
COSX GRID GENERATION
--------------------

GRIDX 1
-------
General Integration Accuracy     IntAcc      ... 3.816
Radial Grid Type                 RadialGrid  ... OptM3 with GC (2021)
Angular Grid (max. ang.)         AngularGrid ... 1 (Lebedev-50)
Angular grid pruning method      GridPruning ... 4 (adaptive)
Weight generation scheme         WeightScheme... mBecke (2022)
Basis function cutoff            BFCut       ... 1.0000e-11
Integration weight cutoff        WCut        ... 1.0000e-14
Partially contracted basis set               ... on
Rotationally invariant grid construction     ... off
Angular grids for H and He will be reduced by one unit
Diffuse basis detected: some atoms will have their outermost
                        angular grid increased by 1.

Total number of grid points                  ...    13756
Total number of batches                      ...      119
Average number of points per batch           ...      115
Average number of grid points per atom       ...      598
UseSFitting                                  ... on

GRIDX 2
-------
General Integration Accuracy     IntAcc      ... 4.020
Radial Grid Type                 RadialGrid  ... OptM3 with GC (2021)
Angular Grid (max. ang.)         AngularGrid ... 2 (Lebedev-110)
Angular grid pruning method      GridPruning ... 4 (adaptive)
Weight generation scheme         WeightScheme... mBecke (2022)
Basis function cutoff            BFCut       ... 1.0000e-11
Integration weight cutoff        WCut        ... 1.0000e-14
Partially contracted basis set               ... on
Rotationally invariant grid construction     ... off
Angular grids for H and He will be reduced by one unit
Diffuse basis detected: some atoms will have their outermost
                        angular grid increased by 1.

Total number of grid points                  ...    32928
Total number of batches                      ...      267
Average number of points per batch           ...      123
Average number of grid points per atom       ...     1432
UseSFitting                                  ... on

GRIDX 3
-------
General Integration Accuracy     IntAcc      ... 4.338
Radial Grid Type                 RadialGrid  ... OptM3 with GC (2021)
Angular Grid (max. ang.)         AngularGrid ... 3 (Lebedev-194)
Angular grid pruning method      GridPruning ... 4 (adaptive)
Weight generation scheme         WeightScheme... mBecke (2022)
Basis function cutoff            BFCut       ... 1.0000e-11
Integration weight cutoff        WCut        ... 1.0000e-14
Partially contracted basis set               ... on
Rotationally invariant grid construction     ... off
Angular grids for H and He will be reduced by one unit
Diffuse basis detected: some atoms will have their outermost
                        angular grid increased by 1.

Total number of grid points                  ...    73266
Total number of batches                      ...      587
Average number of points per batch           ...      124
Average number of grid points per atom       ...     3185
UseSFitting                                  ... on
Initializing property integral containers    ... done (  0.2 sec)

SHARK setup successfully completed in  11.2 seconds

Maximum memory used throughout the entire STARTUP-calculation: 88.9 MB


           ************************************************************
           *        Program running with 8 parallel MPI-processes     *
           *              working on a common directory               *
           ************************************************************
-------------------------------------------------------------------------------
                                 ORCA GUESS
                   Start orbitals & Density for SCF / CASSCF
-------------------------------------------------------------------------------

------------
SCF SETTINGS
------------
Hamiltonian:
 Density Functional     Method          .... DFT(GTOs)
 Exchange Functional    Exchange        .... PBE
   PBE kappa parameter   XKappa         ....  0.804000
   PBE mue parameter    XMuePBE         ....  0.219520
 Correlation Functional Correlation     .... PBE
   PBE beta parameter  CBetaPBE         ....  0.066725
 LDA part of GGA corr.  LDAOpt          .... PW91-LDA
 Gradients option       PostSCFGGA      .... off
 Hybrid DFT is turned on
   Fraction HF Exchange ScalHFX         ....  0.250000
   Scaling of DF-GGA-X  ScalDFX         ....  0.750000
   Scaling of DF-GGA-C  ScalDFC         ....  1.000000
   Scaling of DF-LDA-C  ScalLDAC        ....  1.000000
   Perturbative correction              ....  0.000000
   NL short-range parameter             ....  6.900000
 RI-approximation to the Coulomb term is turned on
   Number of AuxJ basis functions       .... 671
   RIJ-COSX (HFX calculated with COS-X)).... on


General Settings:
 Integral files         IntName         .... cs_rporg_018_red_opt_04
 Hartree-Fock type      HFTyp           .... RHF
 Total Charge           Charge          ....    0
 Multiplicity           Mult            ....    1
 Number of Electrons    NEL             ....   80
 Basis Dimension        Dim             ....  782
 Nuclear Repulsion      ENuc            ....    557.5558155408 Eh

Convergence Acceleration:
 AO-DIIS                CNVDIIS         .... on
   Start iteration      DIISMaxIt       ....     0
   Startup error        DIISStart       ....  0.200000
   # of expansion vecs  DIISMaxEq       ....     5
   Bias factor          DIISBfac        ....   1.050
   Max. coefficient     DIISMaxC        ....  10.000
 MO-DIIS                CNVKDIIS        .... off
 Trust-Rad. Augm. Hess. CNVTRAH         .... auto
   Auto Start mean grad. ratio tolernc. ....  1.125000
   Auto Start start iteration           ....    50
   Auto Start num. interpolation iter.  ....    10
   Max. Number of Micro iterations      ....    24
   Max. Number of Macro iterations      .... Maxiter - #DIIS iter
   Number of Davidson start vectors     ....     2
   Converg. threshold    (grad. norm)   ....   1.000e-05
   Grad. Scal. Fac. for Micro threshold ....   0.100
   Minimum threshold for Micro iter.    ....   1.000e-02
   NR start threshold (gradient norm)   ....   1.000e-04
   Initial trust radius                 ....   0.400
   Minimum AH scaling param. (alpha)    ....   1.000
   Maximum AH scaling param. (alpha)    .... 1000.000
   Quad. conv. algorithm                .... NR
   White noise on init. David. guess    .... on
   Maximum white noise                  ....   0.010
   Pseudo random numbers                .... off
   Inactive MOs                         .... canonical
   Orbital update algorithm             .... Taylor
   Preconditioner                       .... Diag
   Full preconditioner red. dimension   ....   250
 SOSCF                  CNVSOSCF        .... on
   Start iteration      SOSCFMaxIt      ....   150
   Startup grad/error   SOSCFStart      ....  0.001000
   Hessian update       SOSCFHessUp     .... L-BFGS
 Level Shifting         CNVShift        .... on
   Level shift para.    LevelShift      ....    0.2500
   Turn off err/grad.   ShiftErr        ....    0.0000
 Zerner damping         CNVZerner       .... off
 Static damping         CNVDamp         .... on
   Fraction old density DampFac         ....    0.8500
   Max. Damping (<1)    DampMax         ....    0.9800
   Min. Damping (>=0)   DampMin         ....    0.0000
   Turn off err/grad.   DampErr         ....    0.0300

SCF Procedure:
 Maximum # iterations   MaxIter         ....  1500
 SCF integral mode      SCFMode         .... Direct
   Integral package                     .... SHARK and LIBINT hybrid scheme
 Reset frequency        DirectResetFreq ....    20
 Integral Threshold     Thresh          ....  1.000e-12 Eh
 Primitive CutOff       TCut            ....  1.000e-13 Eh

Convergence Tolerance:
 Convergence Check Mode ConvCheckMode   .... Total+1el-Energy
 Convergence forced     ConvForced      .... 0
 Energy Change          TolE            ....  1.000e-08 Eh
 1-El. energy change                    ....  1.000e-05 Eh
 Orbital Gradient       TolG            ....  1.000e-05
 Orbital Rotation angle TolX            ....  1.000e-05
 DIIS Error             TolErr          ....  5.000e-07

------------------------------
INITIAL GUESS: MODEL POTENTIAL
------------------------------
Loading Hartree-Fock densities                     ... done
Calculating cut-offs                               ... done
Initializing the effective Hamiltonian             ... done
Setting up the integral package (SHARK)            ... done
Starting the Coulomb interaction                   ... done (   0.7 sec)
Making the grid                                    ... done (   0.4 sec)
Mapping shells                                     ... done
Starting the XC term evaluation                    ... done (   0.6 sec)
  promolecular density results
     # of electrons  =     79.994179528
     EX              =    -62.816327610
     EC              =     -2.635971139
     EX+EC           =    -65.452298749
Transforming the Hamiltonian                       ... done (   0.2 sec)
Diagonalizing the Hamiltonian                      ... done (   0.2 sec)
Back transforming the eigenvectors                 ... done (   0.2 sec)
Now organizing SCF variables                       ... done
                      ------------------
                      INITIAL GUESS DONE (   2.8 sec)
                      ------------------
             **** ENERGY FILE WAS UPDATED (cs_rporg_018_red_opt_04.en.tmp) ****
Finished Guess after   4.3 sec
Maximum memory used throughout the entire GUESS-calculation: 67.5 MB


           ************************************************************
           *        Program running with 8 parallel MPI-processes     *
           *              working on a common directory               *
           ************************************************************

-------------------------------------------------------------------------------------------
                                      ORCA LEAN-SCF
                              memory conserving SCF solver
-------------------------------------------------------------------------------------------

--------------------
CPCM SOLVATION MODEL
--------------------
CPCM parameters:
  Epsilon                                         ...      35.6880
  Refrac                                          ...       1.3442
  Rsolv                                           ...       2.1900
  Surface type                                    ...    GEPOL SES
  Discretization scheme                           ... Constant num. charges
  Epsilon function type                           ...         CPCM
Solvent:                                          ... ACETONITRILE
SMD-CDS solvent descriptors:
  Soln                                            ...       1.3442
  Soln25                                          ...       1.3416
  Sola                                            ...       0.0700
  Solb                                            ...       0.3200
  Solg                                            ...      41.2500
  Solc                                            ...       0.0000
  Solh                                            ...       0.0000
Radii:
  Scheme                                          ... Element-dependent radii
  Radius for C  used is    3.4960 Bohr (=   1.8500 Ang.)
  Radius for H  used is    2.2677 Bohr (=   1.2000 Ang.)
  Radius for O  used is    4.0969 Bohr (=   2.1680 Ang.)
Calculating surface                               ...        done! (  0.0s)
Cavity surface points                             ...          783
Cavity Volume                                     ...    1234.0005
Cavity Surface-area                               ...     707.2395
Calculating surface distance matrix               ...        done! (  0.0s)
Performing Cholesky decomposition & store         ...        done! (  0.0s)
Overall time for CPCM initialization              ...                 0.1s

----------------------------------------D-I-I-S--------------------------------------------
Iteration    Energy (Eh)           Delta-E    RMSDP     MaxDP     DIISErr   Damp  Time(sec)
-------------------------------------------------------------------------------------------
               ***  Starting incremental Fock matrix formation  ***
    1    -462.8615099633781256     0.00e+00  1.18e-03  1.25e-01  1.88e-01  0.850  20.9
    2    -462.9199031835812548    -5.84e-02  1.10e-03  1.03e-01  1.45e-01  0.850  13.4
                               ***Turning on AO-DIIS***
    3    -462.9616067720800174    -4.17e-02  8.15e-04  6.64e-02  1.04e-01  0.850  12.0
    4    -462.9899074472086795    -2.83e-02  6.65e-04  5.29e-02  8.30e-02  0.850  13.5
    5    -463.0108524688025682    -2.09e-02  5.59e-04  4.51e-02  6.93e-02  0.850  13.5
    6    -463.0273568401646571    -1.65e-02  4.76e-04  3.93e-02  5.87e-02  0.850  12.3
    7    -463.0408003664815624    -1.34e-02  4.05e-04  3.42e-02  4.96e-02  0.850  12.4
    8    -463.0518554058995733    -1.11e-02  3.43e-04  2.92e-02  4.17e-02  0.850  12.2
    9    -463.0609511280971446    -9.10e-03  2.92e-04  2.47e-02  3.49e-02  0.850  11.2
   10    -463.0684580284143976    -7.51e-03  2.48e-04  2.10e-02  2.93e-02  0.850  12.0
   11    -463.0746808429499879    -6.22e-03  1.40e-03  1.19e-01  2.47e-02  0.000  11.3
   12    -463.1074240747229851    -3.27e-02  2.85e-05  2.79e-03  1.79e-03  0.000  11.7
                              *** Initializing SOSCF ***
---------------------------------------S-O-S-C-F--------------------------------------
Iteration    Energy (Eh)           Delta-E    RMSDP     MaxDP     MaxGrad    Time(sec)
--------------------------------------------------------------------------------------
   13    -463.1074420147323281    -1.79e-05  9.39e-06  5.86e-04  3.76e-04    13.5
               *** Restarting incremental Fock matrix formation ***
   14    -463.1074415960756596     4.19e-07  6.30e-04  4.87e-02  4.31e-05    19.6
   15    -463.1074417681037403    -1.72e-07  1.30e-04  9.98e-03  6.33e-05    17.4
   16    -463.1074422589499591    -4.91e-07  1.46e-04  1.11e-02  1.19e-05    17.1
   17    -463.1074422553174372     3.63e-09  5.12e-06  4.26e-04  7.41e-06    16.4
                 **** Energy Check signals convergence ****

               *****************************************************
               *                     SUCCESS                       *
               *           SCF CONVERGED AFTER  17 CYCLES          *
               *****************************************************

Recomputing exchange energy using gridx3       ... done (   28.135 sec)
Old exchange energy                            :    -16.070185176 Eh
New exchange energy                            :    -16.070239816 Eh
Exchange energy change after final integration :     -0.000054640 Eh
Total energy after final integration           :   -463.107496896 Eh

SMD CDS free energy correction energy :                -1.75857     Kcal/mol
Total Energy after SMD CDS correction =              -463.110299362 Eh
             **** ENERGY FILE WAS UPDATED (cs_rporg_018_red_opt_04.en.tmp) ****

----------------
TOTAL SCF ENERGY
----------------

Total Energy       :       -463.11029936220382 Eh          -12601.87191 eV

Components:
Nuclear Repulsion  :        557.55581554077389 Eh           15171.86506 eV
Electronic Energy  :      -1020.65072566863194 Eh          -27773.31821 eV
One Electron Energy:      -1731.98725593342306 Eh          -47129.76927 eV
Two Electron Energy:        711.33653026479112 Eh           19356.45105 eV
CPCM Dielectric    :         -0.01253212745943 Eh              -0.34102 eV
SMD CDS (Gcds)     :         -0.00280246644430 Eh              -0.07626 eV

Virial components:
Potential Energy   :       -923.20484513315807 Eh          -25121.68100 eV
Kinetic Energy     :        460.09454577095426 Eh           12519.80909 eV
Virial Ratio       :          2.00655463886492

DFT components:
N(Alpha)           :       39.999931747282 electrons
N(Beta)            :       39.999931747282 electrons
N(Total)           :       79.999863494563 electrons
E(X)               :      -48.058308724086 Eh       
E(C)               :       -2.642684376660 Eh       
E(XC)              :      -50.700993100746 Eh       

CPCM Solvation Model Properties:
Surface-charge          :         -0.04994873473035
Corrected charge        :         -0.00000000000000
Outlying charge corr.   :          0.00016337534093 Eh               0.00445 eV
Free-energy (cav+disp)  :         -0.00280246644430 Eh              -0.07626 eV

---------------
SCF CONVERGENCE
---------------

  Last Energy change         ...   -3.6325e-09  Tolerance :   1.0000e-08
  Last MAX-Density change    ...    4.2561e-04  Tolerance :   1.0000e-07
  Last RMS-Density change    ...    5.1239e-06  Tolerance :   5.0000e-09
  Last DIIS Error            ...    3.7573e-04  Tolerance :   5.0000e-07
  Last Orbital Gradient      ...    7.4091e-06  Tolerance :   1.0000e-05
  Last Orbital Rotation      ...    2.4087e-05  Tolerance :   1.0000e-05


----------------
ORBITAL ENERGIES
----------------

  NO   OCC          E(Eh)            E(eV) 
   0   2.0000     -19.244474      -523.6688 
   1   2.0000     -10.290961      -280.0313 
   2   2.0000     -10.265824      -279.3473 
   3   2.0000     -10.244559      -278.7686 
   4   2.0000     -10.232529      -278.4413 
   5   2.0000     -10.231576      -278.4153 
   6   2.0000     -10.226395      -278.2744 
   7   2.0000     -10.225818      -278.2586 
   8   2.0000     -10.225466      -278.2491 
   9   2.0000     -10.222873      -278.1785 
  10   2.0000     -10.216422      -278.0030 
  11   2.0000      -1.107145       -30.1270 
  12   2.0000      -0.886306       -24.1176 
  13   2.0000      -0.824075       -22.4242 
  14   2.0000      -0.781461       -21.2646 
  15   2.0000      -0.773056       -21.0359 
  16   2.0000      -0.712110       -19.3775 
  17   2.0000      -0.698906       -19.0182 
  18   2.0000      -0.624544       -16.9947 
  19   2.0000      -0.616669       -16.7804 
  20   2.0000      -0.566392       -15.4123 
  21   2.0000      -0.537604       -14.6289 
  22   2.0000      -0.502903       -13.6847 
  23   2.0000      -0.496360       -13.5066 
  24   2.0000      -0.483583       -13.1590 
  25   2.0000      -0.472718       -12.8633 
  26   2.0000      -0.444687       -12.1005 
  27   2.0000      -0.430714       -11.7203 
  28   2.0000      -0.419860       -11.4250 
  29   2.0000      -0.409997       -11.1566 
  30   2.0000      -0.397616       -10.8197 
  31   2.0000      -0.395420       -10.7599 
  32   2.0000      -0.378106       -10.2888 
  33   2.0000      -0.363997        -9.9049 
  34   2.0000      -0.352681        -9.5969 
  35   2.0000      -0.344679        -9.3792 
  36   2.0000      -0.335471        -9.1286 
  37   2.0000      -0.304375        -8.2825 
  38   2.0000      -0.244335        -6.6487 
  39   2.0000      -0.229537        -6.2460 
  40   0.0000      -0.034447        -0.9373 
  41   0.0000      -0.006339        -0.1725 
  42   0.0000       0.002296         0.0625 
  43   0.0000       0.010135         0.2758 
  44   0.0000       0.014762         0.4017 
  45   0.0000       0.024393         0.6638 
  46   0.0000       0.027125         0.7381 
  47   0.0000       0.028018         0.7624 
  48   0.0000       0.035635         0.9697 
  49   0.0000       0.038991         1.0610 
  50   0.0000       0.044405         1.2083 
*Only the first 10 virtual orbitals were printed.

                    ********************************
                    * MULLIKEN POPULATION ANALYSIS *
                    ********************************

-----------------------
MULLIKEN ATOMIC CHARGES
-----------------------
   0 C :   -0.982756
   1 C :    0.737041
   2 C :   -0.237207
   3 C :   -1.055434
   4 C :   -0.637045
   5 C :    1.425865
   6 C :   -0.199720
   7 C :   -0.442788
   8 C :   -0.810854
   9 H :    0.223280
  10 H :    0.222361
  11 H :    0.288109
  12 H :    0.233237
  13 H :    0.095477
  14 H :    0.318307
  15 H :    0.640970
  16 H :    0.350325
  17 O :   -0.584075
  18 C :   -0.691961
  19 H :    0.265410
  20 H :    0.282979
  21 H :    0.283516
  22 H :    0.274963
Sum of atomic charges:   -0.0000000

--------------------------------
MULLIKEN REDUCED ORBITAL CHARGES
--------------------------------
  0 C s       :     4.203068  s :     4.203068
      pz      :     0.999363  p :     2.685949
      px      :     0.739459
      py      :     0.947126
      dz2     :    -0.002267  d :     0.122117
      dxz     :     0.030353
      dyz     :     0.010774
      dx2y2   :     0.067806
      dxy     :     0.015452
      f0      :     0.000361  f :    -0.028378
      f+1     :    -0.001606
      f-1     :     0.001014
      f+2     :    -0.000882
      f-2     :     0.000545
      f+3     :    -0.022378
      f-3     :    -0.005431

  1 C s       :     3.159191  s :     3.159191
      pz      :     0.941973  p :     2.143230
      px      :     0.707354
      py      :     0.493903
      dz2     :    -0.014393  d :    -0.039183
      dxz     :     0.049347
      dyz     :     0.007557
      dx2y2   :    -0.040948
      dxy     :    -0.040746
      f0      :     0.003635  f :    -0.000280
      f+1     :     0.001745
      f-1     :     0.000167
      f+2     :     0.001470
      f-2     :     0.013824
      f+3     :    -0.021405
      f-3     :     0.000284

  2 C s       :     3.643297  s :     3.643297
      pz      :     1.015479  p :     2.568241
      px      :     0.859187
      py      :     0.693574
      dz2     :    -0.006324  d :     0.041863
      dxz     :     0.002245
      dyz     :     0.000877
      dx2y2   :     0.006798
      dxy     :     0.038266
      f0      :     0.000431  f :    -0.016194
      f+1     :     0.000854
      f-1     :     0.000451
      f+2     :    -0.001897
      f-2     :     0.002294
      f+3     :    -0.014783
      f-3     :    -0.003543

  3 C s       :     3.940126  s :     3.940126
      pz      :     0.965057  p :     2.971574
      px      :     1.128488
      py      :     0.878029
      dz2     :    -0.001945  d :     0.157267
      dxz     :     0.035149
      dyz     :     0.014831
      dx2y2   :     0.079738
      dxy     :     0.029493
      f0      :     0.001644  f :    -0.013533
      f+1     :     0.000448
      f-1     :     0.000888
      f+2     :     0.000265
      f-2     :    -0.000111
      f+3     :    -0.014659
      f-3     :    -0.002009

  4 C s       :     3.808538  s :     3.808538
      pz      :     1.013241  p :     2.745840
      px      :     0.625585
      py      :     1.107014
      dz2     :    -0.015998  d :     0.096672
      dxz     :     0.016915
      dyz     :     0.006364
      dx2y2   :     0.066079
      dxy     :     0.023313
      f0      :     0.001084  f :    -0.014005
      f+1     :     0.001031
      f-1     :     0.000713
      f+2     :    -0.000691
      f-2     :     0.000300
      f+3     :    -0.014016
      f-3     :    -0.002426

  5 C s       :     2.754810  s :     2.754810
      pz      :     0.950304  p :     1.991675
      px      :     0.241757
      py      :     0.799614
      dz2     :    -0.029371  d :    -0.080266
      dxz     :    -0.025810
      dyz     :    -0.004515
      dx2y2   :     0.020972
      dxy     :    -0.041543
      f0      :     0.001959  f :    -0.092084
      f+1     :    -0.003485
      f-1     :    -0.001526
      f+2     :    -0.001044
      f-2     :     0.000938
      f+3     :    -0.071912
      f-3     :    -0.017015

  6 C s       :     3.650953  s :     3.650953
      pz      :     1.022751  p :     2.608027
      px      :     0.661319
      py      :     0.923957
      dz2     :     0.009208  d :    -0.031641
      dxz     :    -0.004888
      dyz     :     0.012204
      dx2y2   :     0.053539
      dxy     :    -0.101704
      f0      :     0.001199  f :    -0.027619
      f+1     :    -0.001322
      f-1     :    -0.000014
      f+2     :    -0.001083
      f-2     :     0.000945
      f+3     :    -0.025503
      f-3     :    -0.001841

  7 C s       :     3.617831  s :     3.617831
      pz      :     0.927189  p :     2.733386
      px      :     0.803300
      py      :     1.002896
      dz2     :     0.001480  d :     0.099532
      dxz     :     0.022287
      dyz     :     0.010112
      dx2y2   :     0.067002
      dxy     :    -0.001349
      f0      :     0.000096  f :    -0.007961
      f+1     :     0.000731
      f-1     :     0.000328
      f+2     :    -0.000940
      f-2     :     0.001164
      f+3     :    -0.002945
      f-3     :    -0.006394

  8 C s       :     3.460778  s :     3.460778
      pz      :     1.122161  p :     3.244073
      px      :     0.995872
      py      :     1.126040
      dz2     :     0.014327  d :     0.094466
      dxz     :     0.041885
      dyz     :     0.003128
      dx2y2   :     0.032171
      dxy     :     0.002956
      f0      :     0.002556  f :     0.011538
      f+1     :     0.001427
      f-1     :     0.000766
      f+2     :    -0.001321
      f-2     :     0.002790
      f+3     :     0.003073
      f-3     :     0.002247

  9 H s       :     0.720250  s :     0.720250
      pz      :     0.015876  p :     0.049625
      px      :     0.020161
      py      :     0.013589
      dz2     :     0.002213  d :     0.006844
      dxz     :     0.000423
      dyz     :     0.001085
      dx2y2   :     0.002119
      dxy     :     0.001004

 10 H s       :     0.721039  s :     0.721039
      pz      :     0.015972  p :     0.049754
      px      :     0.020218
      py      :     0.013564
      dz2     :     0.002204  d :     0.006846
      dxz     :     0.000430
      dyz     :     0.001083
      dx2y2   :     0.002118
      dxy     :     0.001011

 11 H s       :     0.662485  s :     0.662485
      pz      :     0.011023  p :     0.042297
      px      :     0.010043
      py      :     0.021231
      dz2     :     0.000077  d :     0.007109
      dxz     :     0.001195
      dyz     :     0.002713
      dx2y2   :    -0.000704
      dxy     :     0.003828

 12 H s       :     0.718920  s :     0.718920
      pz      :     0.022021  p :     0.042672
      px      :     0.022764
      py      :    -0.002113
      dz2     :     0.000201  d :     0.005170
      dxz     :     0.000455
      dyz     :     0.003414
      dx2y2   :    -0.000489
      dxy     :     0.001590

 13 H s       :     0.879365  s :     0.879365
      pz      :     0.021996  p :     0.019382
      px      :    -0.013124
      py      :     0.010510
      dz2     :     0.000353  d :     0.005777
      dxz     :     0.000582
      dyz     :     0.003390
      dx2y2   :     0.000465
      dxy     :     0.000987

 14 H s       :     0.696440  s :     0.696440
      pz      :     0.021367  p :    -0.019765
      px      :    -0.032748
      py      :    -0.008383
      dz2     :     0.000351  d :     0.005018
      dxz     :     0.003370
      dyz     :     0.001519
      dx2y2   :    -0.000535
      dxy     :     0.000313

 15 H s       :     0.353990  s :     0.353990
      pz      :     0.019650  p :    -0.002854
      px      :     0.012510
      py      :    -0.035013
      dz2     :     0.000067  d :     0.007893
      dxz     :    -0.000210
      dyz     :     0.004371
      dx2y2   :     0.001052
      dxy     :     0.002614

 16 H s       :     0.643964  s :     0.643964
      pz      :     0.013780  p :    -0.002049
      px      :    -0.001520
      py      :    -0.014308
      dz2     :     0.000169  d :     0.007759
      dxz     :     0.004623
      dyz     :    -0.000323
      dx2y2   :     0.001313
      dxy     :     0.001977

 17 O s       :     4.093112  s :     4.093112
      pz      :     1.762719  p :     4.401710
      px      :     1.118898
      py      :     1.520092
      dz2     :     0.001976  d :     0.082216
      dxz     :     0.020403
      dyz     :     0.011615
      dx2y2   :     0.024129
      dxy     :     0.024093
      f0      :     0.000951  f :     0.007038
      f+1     :     0.000235
      f-1     :     0.000159
      f+2     :     0.000356
      f-2     :     0.001519
      f+3     :     0.002315
      f-3     :     0.001503

 18 C s       :     3.472766  s :     3.472766
      pz      :     1.138317  p :     2.992939
      px      :     0.770798
      py      :     1.083824
      dz2     :     0.011915  d :     0.194571
      dxz     :     0.045594
      dyz     :     0.059892
      dx2y2   :     0.024057
      dxy     :     0.053113
      f0      :     0.003444  f :     0.031685
      f+1     :     0.001757
      f-1     :     0.003386
      f+2     :     0.008230
      f-2     :    -0.000100
      f+3     :     0.013834
      f-3     :     0.001133

 19 H s       :     0.702179  s :     0.702179
      pz      :     0.011776  p :     0.030941
      px      :     0.010298
      py      :     0.008866
      dz2     :    -0.001162  d :     0.001470
      dxz     :     0.000217
      dyz     :     0.003171
      dx2y2   :    -0.001550
      dxy     :     0.000795

 20 H s       :     0.685848  s :     0.685848
      pz      :     0.015139  p :     0.026538
      px      :     0.004782
      py      :     0.006618
      dz2     :     0.002369  d :     0.004635
      dxz     :     0.001061
      dyz     :     0.000423
      dx2y2   :     0.000743
      dxy     :     0.000038

 21 H s       :     0.684836  s :     0.684836
      pz      :     0.015606  p :     0.027024
      px      :     0.004839
      py      :     0.006580
      dz2     :     0.002358  d :     0.004624
      dxz     :     0.001057
      dyz     :     0.000420
      dx2y2   :     0.000740
      dxy     :     0.000049

 22 H s       :     0.721880  s :     0.721880
      pz      :     0.017126  p :    -0.001526
      px      :    -0.014857
      py      :    -0.003796
      dz2     :    -0.000286  d :     0.004684
      dxz     :     0.000283
      dyz     :     0.004144
      dx2y2   :     0.000240
      dxy     :     0.000302



                     *******************************
                     * LOEWDIN POPULATION ANALYSIS *
                     *******************************

----------------------
LOEWDIN ATOMIC CHARGES
----------------------
   0 C :    0.204620
   1 C :   -0.405643
   2 C :    0.196454
   3 C :    0.181549
   4 C :    0.192033
   5 C :   -0.164385
   6 C :    0.196316
   7 C :    0.195613
   8 C :    0.545888
   9 H :   -0.161791
  10 H :   -0.161816
  11 H :   -0.171696
  12 H :   -0.180552
  13 H :   -0.180912
  14 H :   -0.184618
  15 H :   -0.165232
  16 H :   -0.188838
  17 O :    0.594411
  18 C :    0.310771
  19 H :   -0.167740
  20 H :   -0.158884
  21 H :   -0.158863
  22 H :   -0.166685

-------------------------------
LOEWDIN REDUCED ORBITAL CHARGES
-------------------------------
  0 C s       :     2.475777  s :     2.475777
      pz      :     0.623910  p :     2.286263
      px      :     0.838970
      py      :     0.823382
      dz2     :     0.070183  d :     0.680325
      dxz     :     0.128113
      dyz     :     0.040377
      dx2y2   :     0.254959
      dxy     :     0.186693
      f0      :     0.022010  f :     0.353015
      f+1     :     0.034033
      f-1     :     0.020197
      f+2     :     0.023336
      f-2     :     0.056653
      f+3     :     0.118376
      f-3     :     0.078409

  1 C s       :     2.457787  s :     2.457787
      pz      :     0.611341  p :     2.218084
      px      :     0.778248
      py      :     0.828494
      dz2     :     0.099760  d :     1.085897
      dxz     :     0.164702
      dyz     :     0.168156
      dx2y2   :     0.303242
      dxy     :     0.350037
      f0      :     0.038141  f :     0.643876
      f+1     :     0.041617
      f-1     :     0.042224
      f+2     :     0.062414
      f-2     :     0.100038
      f+3     :     0.240783
      f-3     :     0.118658

  2 C s       :     2.477391  s :     2.477391
      pz      :     0.635653  p :     2.304817
      px      :     0.831770
      py      :     0.837395
      dz2     :     0.069413  d :     0.684116
      dxz     :     0.059743
      dyz     :     0.107141
      dx2y2   :     0.222234
      dxy     :     0.225585
      f0      :     0.020806  f :     0.337221
      f+1     :     0.021879
      f-1     :     0.029984
      f+2     :     0.039022
      f-2     :     0.037658
      f+3     :     0.118831
      f-3     :     0.069043

  3 C s       :     2.487153  s :     2.487153
      pz      :     0.596383  p :     2.279162
      px      :     0.853625
      py      :     0.829154
      dz2     :     0.067292  d :     0.712780
      dxz     :     0.144177
      dyz     :     0.040226
      dx2y2   :     0.282092
      dxy     :     0.178992
      f0      :     0.019324  f :     0.339356
      f+1     :     0.030904
      f-1     :     0.019790
      f+2     :     0.015533
      f-2     :     0.059538
      f+3     :     0.126893
      f-3     :     0.067375

  4 C s       :     2.475293  s :     2.475293
      pz      :     0.623028  p :     2.293381
      px      :     0.835196
      py      :     0.835156
      dz2     :     0.069636  d :     0.701460
      dxz     :     0.074085
      dyz     :     0.093799
      dx2y2   :     0.190769
      dxy     :     0.273170
      f0      :     0.020386  f :     0.337833
      f+1     :     0.024609
      f-1     :     0.026444
      f+2     :     0.055041
      f-2     :     0.017777
      f+3     :     0.125434
      f-3     :     0.068141

  5 C s       :     2.462654  s :     2.462654
      pz      :     0.599308  p :     2.266876
      px      :     0.821682
      py      :     0.845886
      dz2     :     0.088000  d :     0.939879
      dxz     :     0.148369
      dyz     :     0.131133
      dx2y2   :     0.277190
      dxy     :     0.295187
      f0      :     0.028960  f :     0.494977
      f+1     :     0.033551
      f-1     :     0.033899
      f+2     :     0.062658
      f-2     :     0.050895
      f+3     :     0.197959
      f-3     :     0.087054

  6 C s       :     2.486284  s :     2.486284
      pz      :     0.628810  p :     2.294691
      px      :     0.857522
      py      :     0.808359
      dz2     :     0.070774  d :     0.705700
      dxz     :     0.142726
      dyz     :     0.022800
      dx2y2   :     0.260441
      dxy     :     0.208959
      f0      :     0.019526  f :     0.317009
      f+1     :     0.033218
      f-1     :     0.017237
      f+2     :     0.019611
      f-2     :     0.036004
      f+3     :     0.128471
      f-3     :     0.062943

  7 C s       :     2.492135  s :     2.492135
      pz      :     0.594103  p :     2.261740
      px      :     0.848051
      py      :     0.819586
      dz2     :     0.064553  d :     0.732217
      dxz     :     0.172579
      dyz     :     0.017801
      dx2y2   :     0.269477
      dxy     :     0.207808
      f0      :     0.024401  f :     0.318295
      f+1     :     0.025257
      f-1     :     0.017566
      f+2     :     0.026723
      f-2     :     0.039651
      f+3     :     0.134738
      f-3     :     0.049959

  8 C s       :     2.462175  s :     2.462175
      pz      :     0.775797  p :     2.300015
      px      :     0.757034
      py      :     0.767184
      dz2     :     0.079168  d :     0.510876
      dxz     :     0.161347
      dyz     :     0.021399
      dx2y2   :     0.147151
      dxy     :     0.101810
      f0      :     0.015243  f :     0.181046
      f+1     :     0.027147
      f-1     :     0.014943
      f+2     :     0.015559
      f-2     :     0.021462
      f+3     :     0.057477
      f-3     :     0.029216

  9 H s       :     0.628765  s :     0.628765
      pz      :     0.128922  p :     0.312166
      px      :     0.095957
      py      :     0.087287
      dz2     :     0.075957  d :     0.220860
      dxz     :     0.044608
      dyz     :     0.041148
      dx2y2   :     0.033068
      dxy     :     0.026079

 10 H s       :     0.628769  s :     0.628769
      pz      :     0.128950  p :     0.312185
      px      :     0.095948
      py      :     0.087286
      dz2     :     0.075949  d :     0.220863
      dxz     :     0.044628
      dyz     :     0.041192
      dx2y2   :     0.033035
      dxy     :     0.026058

 11 H s       :     0.625329  s :     0.625329
      pz      :     0.086753  p :     0.318165
      px      :     0.086719
      py      :     0.144693
      dz2     :     0.016325  d :     0.228202
      dxz     :     0.011840
      dyz     :     0.075814
      dx2y2   :     0.044758
      dxy     :     0.079465

 12 H s       :     0.642872  s :     0.642872
      pz      :     0.075096  p :     0.312019
      px      :     0.088686
      py      :     0.148238
      dz2     :     0.025938  d :     0.225661
      dxz     :     0.006367
      dyz     :     0.057427
      dx2y2   :     0.047969
      dxy     :     0.087961

 13 H s       :     0.633609  s :     0.633609
      pz      :     0.080539  p :     0.314963
      px      :     0.090522
      py      :     0.143902
      dz2     :     0.026299  d :     0.232340
      dxz     :     0.006063
      dyz     :     0.061448
      dx2y2   :     0.054338
      dxy     :     0.084192

 14 H s       :     0.640314  s :     0.640314
      pz      :     0.083715  p :     0.315953
      px      :     0.132140
      py      :     0.100098
      dz2     :     0.026266  d :     0.228350
      dxz     :     0.043207
      dyz     :     0.023384
      dx2y2   :     0.082442
      dxy     :     0.053051

 15 H s       :     0.656687  s :     0.656687
      pz      :     0.080345  p :     0.296626
      px      :     0.077445
      py      :     0.138835
      dz2     :     0.022675  d :     0.211920
      dxz     :     0.005577
      dyz     :     0.057312
      dx2y2   :     0.046718
      dxy     :     0.079638

 16 H s       :     0.635824  s :     0.635824
      pz      :     0.088962  p :     0.323967
      px      :     0.142866
      py      :     0.092140
      dz2     :     0.024117  d :     0.229047
      dxz     :     0.053747
      dyz     :     0.014508
      dx2y2   :     0.064586
      dxy     :     0.072089

 17 O s       :     2.968189  s :     2.968189
      pz      :     1.369168  p :     3.835699
      px      :     1.144393
      py      :     1.322138
      dz2     :     0.041325  d :     0.472069
      dxz     :     0.102934
      dyz     :     0.040582
      dx2y2   :     0.144513
      dxy     :     0.142715
      f0      :     0.013362  f :     0.129631
      f+1     :     0.010736
      f-1     :     0.005039
      f+2     :     0.007051
      f-2     :     0.022984
      f+3     :     0.039216
      f-3     :     0.031243

 18 C s       :     2.460538  s :     2.460538
      pz      :     0.804766  p :     2.228606
      px      :     0.631054
      py      :     0.792786
      dz2     :     0.098127  d :     0.683150
      dxz     :     0.132120
      dyz     :     0.117161
      dx2y2   :     0.115873
      dxy     :     0.219870
      f0      :     0.036043  f :     0.316935
      f+1     :     0.036180
      f-1     :     0.024608
      f+2     :     0.051076
      f-2     :     0.022274
      f+3     :     0.079741
      f-3     :     0.067013

 19 H s       :     0.648022  s :     0.648022
      pz      :     0.089563  p :     0.297629
      px      :     0.081333
      py      :     0.126733
      dz2     :     0.016450  d :     0.222089
      dxz     :     0.021974
[...]
      dxz     :     0.045184
      dyz     :     0.042116
      dx2y2   :     0.033851
      dxy     :     0.025828

 10 H s       :     0.627310  s :     0.627310
      pz      :     0.129538  p :     0.315858
      px      :     0.097353
      py      :     0.088967
      dz2     :     0.077342  d :     0.224131
      dxz     :     0.044701
      dyz     :     0.041103
      dx2y2   :     0.034686
      dxy     :     0.026299

 11 H s       :     0.624731  s :     0.624731
      pz      :     0.087774  p :     0.320747
      px      :     0.087851
      py      :     0.145121
      dz2     :     0.016467  d :     0.230863
      dxz     :     0.011848
      dyz     :     0.076984
      dx2y2   :     0.045116
      dxy     :     0.080449

 12 H s       :     0.642268  s :     0.642268
      pz      :     0.076049  p :     0.314876
      px      :     0.090317
      py      :     0.148509
      dz2     :     0.026284  d :     0.228649
      dxz     :     0.006603
      dyz     :     0.058089
      dx2y2   :     0.048436
      dxy     :     0.089237

 13 H s       :     0.633762  s :     0.633762
      pz      :     0.081626  p :     0.317514
      px      :     0.091717
      py      :     0.144171
      dz2     :     0.026580  d :     0.234821
      dxz     :     0.006207
      dyz     :     0.062084
      dx2y2   :     0.054923
      dxy     :     0.085026

 14 H s       :     0.640178  s :     0.640178
      pz      :     0.085130  p :     0.319314
      px      :     0.132869
      py      :     0.101315
      dz2     :     0.026648  d :     0.231439
      dxz     :     0.043565
      dyz     :     0.023894
      dx2y2   :     0.083859
      dxy     :     0.053474

 15 H s       :     0.656765  s :     0.656765
      pz      :     0.081638  p :     0.300120
      px      :     0.079273
      py      :     0.139209
      dz2     :     0.022992  d :     0.214692
      dxz     :     0.005824
      dyz     :     0.057881
      dx2y2   :     0.047087
      dxy     :     0.080908

 16 H s       :     0.634499  s :     0.634499
      pz      :     0.090283  p :     0.328655
      px      :     0.144714
      py      :     0.093658
      dz2     :     0.024611  d :     0.234112
      dxz     :     0.054892
      dyz     :     0.014778
      dx2y2   :     0.065230
      dxy     :     0.074601

 17 O s       :     2.975006  s :     2.975006
      pz      :     1.374327  p :     3.834960
      px      :     1.138036
      py      :     1.322598
      dz2     :     0.040759  d :     0.461734
      dxz     :     0.098726
      dyz     :     0.040934
      dx2y2   :     0.143563
      dxy     :     0.137753
      f0      :     0.013049  f :     0.126835
      f+1     :     0.010350
      f-1     :     0.004982
      f+2     :     0.006294
      f-2     :     0.022984
      f+3     :     0.039356
      f-3     :     0.029821

 18 C s       :     2.458055  s :     2.458055
      pz      :     0.807587  p :     2.221759
      px      :     0.623072
      py      :     0.791100
      dz2     :     0.098718  d :     0.668848
      dxz     :     0.123350
      dyz     :     0.118194
      dx2y2   :     0.112489
      dxy     :     0.216097
      f0      :     0.035498  f :     0.312251
      f+1     :     0.035336
      f-1     :     0.024940
      f+2     :     0.048288
      f-2     :     0.023462
      f+3     :     0.080350
      f-3     :     0.064378

 19 H s       :     0.648396  s :     0.648396
      pz      :     0.091131  p :     0.301532
      px      :     0.083817
      py      :     0.126584
      dz2     :     0.016508  d :     0.225184
      dxz     :     0.023286
      dyz     :     0.070833
      dx2y2   :     0.075011
      dxy     :     0.039546

 20 H s       :     0.633011  s :     0.633011
      pz      :     0.132747  p :     0.310072
      px      :     0.065376
      py      :     0.111949
      dz2     :     0.078198  d :     0.224578
      dxz     :     0.033546
      dyz     :     0.052112
      dx2y2   :     0.026400
      dxy     :     0.034323

 21 H s       :     0.633046  s :     0.633046
      pz      :     0.132769  p :     0.310049
      px      :     0.065349
      py      :     0.111930
      dz2     :     0.078183  d :     0.224556
      dxz     :     0.033584
      dyz     :     0.052129
      dx2y2   :     0.026361
      dxy     :     0.034299

 22 H s       :     0.640339  s :     0.640339
      pz      :     0.081924  p :     0.306794
      px      :     0.085908
      py      :     0.138963
      dz2     :     0.024881  d :     0.225203
      dxz     :     0.004679
      dyz     :     0.061579
      dx2y2   :     0.054082
      dxy     :     0.079983



                      *****************************
                      * MAYER POPULATION ANALYSIS *
                      *****************************

  NA   - Mulliken gross atomic population
  ZA   - Total nuclear charge
  QA   - Mulliken gross atomic charge
  VA   - Mayer's total valence
  BVA  - Mayer's bonded valence
  FA   - Mayer's free valence

  ATOM       NA         ZA         QA         VA         BVA        FA
  0 C      6.9741     6.0000    -0.9741     2.1930     2.1930     0.0000
  1 C      5.2752     6.0000     0.7248     2.1315     2.1315    -0.0000
  2 C      6.2347     6.0000    -0.2347     2.7594     2.7594    -0.0000
  3 C      7.0794     6.0000    -1.0794     2.3779     2.3779    -0.0000
  4 C      6.6323     6.0000    -0.6323     2.4364     2.4364    -0.0000
  5 C      4.5973     6.0000     1.4027     0.8336     0.8336    -0.0000
  6 C      6.1682     6.0000    -0.1682     2.3553     2.3553    -0.0000
  7 C      6.4986     6.0000    -0.4986     3.0562     3.0562    -0.0000
  8 C      6.8110     6.0000    -0.8110     3.6792     3.6792    -0.0000
  9 H      0.7601     1.0000     0.2399     0.9874     0.9874    -0.0000
 10 H      0.7584     1.0000     0.2416     0.9872     0.9872    -0.0000
 11 H      0.7192     1.0000     0.2808     0.9733     0.9733    -0.0000
 12 H      0.7830     1.0000     0.2170     1.0269     1.0269    -0.0000
 13 H      0.8929     1.0000     0.1071     1.1085     1.1085    -0.0000
 14 H      0.6643     1.0000     0.3357     0.7550     0.7550     0.0000
 15 H      0.3619     1.0000     0.6381     0.3663     0.3663     0.0000
 16 H      0.6460     1.0000     0.3540     0.8307     0.8307     0.0000
 17 O      8.5905     8.0000    -0.5905     1.5648     1.5648     0.0000
 18 C      6.7063     6.0000    -0.7063     3.7362     3.7362    -0.0000
 19 H      0.7353     1.0000     0.2647     0.9701     0.9701     0.0000
 20 H      0.7022     1.0000     0.2978     0.9248     0.9248    -0.0000
 21 H      0.7040     1.0000     0.2960     0.9262     0.9262    -0.0000
 22 H      0.7053     1.0000     0.2947     0.8642     0.8642     0.0000

  Mayer bond orders larger than 0.100000
B(  0-C ,  1-C ) :   0.7188 B(  0-C ,  2-C ) :  -0.1305 B(  0-C ,  3-C ) :   0.1125 
B(  0-C ,  4-C ) :  -0.2313 B(  0-C ,  5-C ) :   0.3603 B(  0-C ,  6-C ) :  -0.2609 
B(  0-C ,  7-C ) :   0.1889 B(  0-C , 17-O ) :   0.3103 B(  0-C , 22-H ) :   0.9517 
B(  1-C ,  2-C ) :   1.1251 B(  1-C ,  4-C ) :  -0.1331 B(  1-C , 17-O ) :   0.2553 
B(  2-C ,  3-C ) :   1.1475 B(  2-C , 16-H ) :   0.8958 B(  2-C , 17-O ) :  -0.1606 
B(  2-C , 18-C ) :  -0.1264 B(  3-C ,  4-C ) :   1.1119 B(  3-C ,  5-C ) :  -0.1208 
B(  3-C , 14-H ) :  -0.1048 B(  3-C , 15-H ) :   0.2251 B(  4-C ,  5-C ) :   0.6690 
B(  4-C , 14-H ) :   0.9103 B(  5-C ,  6-C ) :   0.1364 B(  5-C ,  7-C ) :  -0.1507 
B(  5-C ,  8-C ) :   0.1231 B(  5-C , 12-H ) :  -0.1121 B(  5-C , 17-O ) :   0.1035 
B(  6-C ,  7-C ) :   1.0756 B(  6-C , 13-H ) :   1.2111 B(  7-C ,  8-C ) :   0.8122 
B(  7-C , 12-H ) :   1.2193 B(  8-C ,  9-H ) :   0.9644 B(  8-C , 10-H ) :   0.9636 
B(  8-C , 11-H ) :   0.9165 B( 17-O , 18-C ) :   1.0015 B( 18-C , 19-H ) :   0.9415 
B( 18-C , 20-H ) :   0.9046 B( 18-C , 21-H ) :   0.9074 

-------
TIMINGS
-------

Total SCF time: 0 days 0 hours 2 min 29 sec 

Total time                  ....     149.807 sec
Sum of individual times     ....     148.555 sec  ( 99.2%)

SCF preparation             ....       1.235 sec  (  0.8%)
Fock matrix formation       ....     133.400 sec  ( 89.0%)
  Startup                   ....       1.461 sec  (  1.1% of F)
  Split-RI-J                ....       7.922 sec  (  5.9% of F)
  Chain of spheres X        ....      98.889 sec  ( 74.1% of F)
  XC integration            ....      16.527 sec  ( 12.4% of F)
    XC Preparation          ....       0.000 sec  (  0.0% of XC)
    Basis function eval.    ....       2.638 sec  ( 16.0% of XC)
    Density eval.           ....       4.624 sec  ( 28.0% of XC)
    XC-Functional eval.     ....       0.115 sec  (  0.7% of XC)
    XC-Potential eval.      ....       5.610 sec  ( 33.9% of XC)
  CPCM terms                ....       4.642 sec  (  3.5% of F)
Diagonalization             ....       0.000 sec  (  0.0%)
Density matrix formation    ....       3.109 sec  (  2.1%)
Total Energy calculation    ....       1.730 sec  (  1.2%)
Population analysis         ....       1.232 sec  (  0.8%)
Orbital Transformation      ....       1.505 sec  (  1.0%)
Orbital Orthonormalization  ....       0.000 sec  (  0.0%)
DIIS solution               ....       3.126 sec  (  2.1%)
SOSCF solution              ....       3.217 sec  (  2.1%)
Finished LeanSCF after 151.0 sec

Maximum memory used throughout the entire LEANSCF-calculation: 122.5 MB


-------------------------------------------------------------------------------
                          DFT DISPERSION CORRECTION                            
                                                                               
                              DFTD3 V3.1  Rev 1                                
                          USING Becke-Johnson damping                          
-------------------------------------------------------------------------------
The PBE0 functional is recognized
Active option DFTDOPT                   ...         4   

molecular C6(AA) [au] = 5310.287020 


            DFT-D V3
 parameters
 s6 scaling factor         :     1.0000 
 a1 scaling factor         :     0.4145 
 s8 scaling factor         :     1.2177 
 a2 scaling factor         :     4.8593 
 ad hoc parameters k1-k3   :    16.0000     1.3333    -4.0000 

 Edisp/kcal,au: -12.562422601036  -0.020019492582 
 E6   /kcal   :  -7.927492332 
 E8   /kcal   :  -4.634930269 
 % E8         :  36.895194628 

-------------------------   ----------------
Dispersion correction           -0.020019493
-------------------------   ----------------


-------------------------   --------------------
FINAL SINGLE POINT ENERGY      -463.131695022207
-------------------------   --------------------

                                *** OPTIMIZATION RUN DONE ***



           ************************************************************
           *        Program running with 8 parallel MPI-processes     *
           *              working on a common directory               *
           ************************************************************

------------------------------------------------------------------------------
                              ORCA PROPERTY CALCULATIONS
------------------------------------------------------------------------------

GBWName                                 ... cs_rporg_018_red_opt_04.gbw
Number of atoms                         ...     23
Number of basis functions               ...    848
Max core memory                         ...   3500 MB

Electric properties:
Dipole moment                           ... YES
Quadrupole moment                       ...  NO
Static polarizability (Dipole/Dipole)   ...  NO
Static polarizability (Dipole/Quad.)    ...  NO
Static polarizability (Quad./Quad.)     ...  NO
Static polarizability (Velocity)        ...  NO

Atomic electric properties:
Dipole moment                           ...  NO
Quadrupole moment                       ...  NO
Static polarizability                   ...  NO

Choice of electric origin               ... Center of mass
Position of electric origin             ...    -0.004176     0.008739     0.000491

General magnetic properties:
Magnetizability                         ...  NO

EPR properties:
g-Tensor (aka g-matrix)                 ...  NO
Zero-Field splitting spin-orbit         ...  NO
Zero-field splitting spin-spin          ...  NO
Hyperfine couplings                     ...  NO (   0 nuclei)
Quadrupole couplings                    ...  NO (   0 nuclei)
Contact density                         ...  NO (   0 nuclei)

NMR properties:
Chemical shifts                         ...  NO (   0 nuclei)
Spin-rotation constants                 ...  NO (   0 nuclei)
Spin-spin couplings                     ...  NO (   0 nuclei,    0 pairs)

Choice of magnetic origin               ... GIAO
Position of magnetic origin             ...     0.000000     0.000000     0.000000

Properties with geometric perturbations:
SCF Hessian                             ...  NO
IR spectrum                             ...  NO
VCD spectrum                            ...  NO
X-ray spectroscopy properties:
SCF XES/XAS/RIXS spectra                ...  NO


-------------
DIPOLE MOMENT
-------------

Method             : SCF
Type of density    : Electron Density
Multiplicity       :   1
Irrep              :   0
Energy             :  -463.1116755296254723 Eh
Relativity type    : 
Basis              : AO
                                X                 Y                 Z
Electronic contribution:     -5.048995799      -0.370193165       0.004266070
Nuclear contribution   :      4.740362104       0.016400295      -0.005444704
                        -----------------------------------------
Total Dipole Moment    :     -0.308633695      -0.353792870      -0.001178633
                        -----------------------------------------
Magnitude (a.u.)       :      0.469494986
Magnitude (Debye)      :      1.193361417



--------------------
Rotational spectrum 
--------------------
 
Rotational constants in cm-1:             0.103966             0.017089             0.014758 
Rotational constants in MHz :          3116.826665           512.326943           442.430095 

Dipole components along the rotational axes: 
x,y,z [a.u.] :    -0.309302    -0.353207    -0.001529 
x,y,z [Debye]:    -0.786183    -0.897782    -0.003887 

 

Dipole moment calculation done in   0.2 sec 

Maximum memory used throughout the entire PROP-calculation: 69.3 MB

--------------------------------
SUGGESTED CITATIONS FOR THIS RUN
--------------------------------

Below you find a list of papers that are relevant to this ORCA run
We neither can nor want to force you to cite these papers, but we appreciate if you do
You receive ORCA, which is the product of decades of hard work by many enthusiastic individuals, for free
The only thing we kindly ask in return is that you cite our papers,
We deeply appreciate it, if you show your appreciation for ORCA by not just citing the generic ORCA reference.

Please note that relegating all ORCA citations to the supporting information does *not* help us.
SI sections are not indexed - citations you put there will not count into any citation statistics
But we need these citations in order to attract the funding resources that allow us to do what we are doing

Therefore, if you are a happy ORCA user, please consider citing a few of the papers listed below in the main body of your paper

In addition to the list printed below, the program has created the file cs_rporg_018_red_opt_04.bibtex that contains the list in bibtex format
You can import this file easily into all common literature databanks and citation aid programs


List of essential papers. We consider these as the minimum necessary citations

  1. Neese,F.
     Software update: the ORCA program system, version 5.0
     WIRES Comput. Molec. Sci., 2022 12(1)e1606
     doi.org/10.1002/wcms.1606

List of papers to cite with high priority. The work reported in these papers was absolutely
necessary for this run to complete.
Our perspective: the developers of density functionals and basis sets usually get cited in chemistry papers
Good! But without the algorithms to do something with them, the functionals or basis sets would not do anything.
Hence, in our opinion, the algorithm design and method developments papers are equally worthy of getting cited

  1. Neese,F.
     An improvement of the resolution of the identity approximation for the formation of the Coulomb matrix
     J. Comp. Chem., 2003 24(14)1740-1747
     doi.org/10.1002/jcc.10318
  2. Neese,F.; Wennmohs,F.; Hansen,A.; Becker,U.
     Efficient, approximate and parallel Hartree-Fock and hybrid DFT calculations. A 'chain-of-spheres' algorithm for the Hartree-Fock exchange
     Chem. Phys., 2009 356(1-3)98-109
     doi.org/10.1016/j.chemphys.2008.10.036
  3. Garcia-Rates,M.; Neese,F.
     Effect of the Solute Cavity on the Solvation Energy and its Derivatives within the Framework of the Gaussian Charge Scheme
     J. Comput. Chem., 2020 41 922-939
     doi.org/10.1002/jcc.26139
  4. Helmich-Paris,B.; de Souza,B.; Neese,F.; Izsák,R.
     An improved chain of spheres for exchange algorithm
     J. Chem. Phys., 2021 155 104109
     doi.org/doi: 10.1063/5.0058766.
  5. Neese,F.
     The SHARK Integral Generation and Digestion System
     J. Comp. Chem., 2022  1-16
     doi.org/10.1002/jcc.26942
  6. Grimme,S.; Antony,J.; Ehrlich,S.; Krieg,H.
     A consistent and accurate ab initio parametrization of density functional dispersion correction (DFT-D) for the 94 elements H-Pu
     J. Chem. Phys., 2010 132 154104-XXXX
     doi.org/10.1063/1.3382344
  7. Grimme,S.; Ehrlich,S.; Goerigk,L.
     Effect of the damping function in dispersion corrected density functional theory
     J. Comput. Chem., 2011 32(7)1456-1465
     doi.org/10.1002/jcc.21759

List of suggested additional citations. These are papers that are important in the 'surrounding' of 
of this run, or papers that preceded the highly important papers. If you like your results we are grateful for a citation.

  1. Izsak,R.; Neese,F.
     An overlap fitted chain of spheres exchange method
     J. Chem. Phys., 2011 135 144105
     doi.org/10.1063/1.3646921
  2. Izsak,R.; Hansen,A.; Neese,F.
     The resolution of identity and chain of spheres approximations for the LPNO-CCSD singles Fock term
     Molec. Phys., 2012 110 2413-2417
     doi.org/10.1080/00268976.2012.687466
  3. Neese,F.
     The ORCA program system
     WIRES Comput. Molec. Sci., 2012 2(1)73-78
     doi.org/10.1002/wcms.81
  4. Izsak,R.; Neese,F.; Klopper,W.
     Robust fitting techniques in the chain of spheres approximation to the Fock exchange: The role of the complementary space
     J. Chem. Phys., 2013 139 
     doi.org/10.1063/1.4819264
  5. Neese,F.
     Software update: the ORCA program system, version 4.0
     WIRES Comput. Molec. Sci., 2018 8(1)1-6
     doi.org/10.1002/wcms.1327
  6. Neese,F.; Wennmohs,F.; Becker,U.; Riplinger,C.
     The ORCA quantum chemistry program package
     J. Chem. Phys., 2020 152 Art. No. L224108
     doi.org/10.1063/5.0004608

List of optional additional citations

  1. Neese,F.
     Approximate second-order SCF convergence for spin unrestricted wavefunctions
     Chem. Phys. Lett., 2000 325(1-3)93-98
     doi.org/10.1016/s0009-2614(00)00662-x

Timings for individual modules:

Sum of individual times          ...     1848.057 sec (=  30.801 min)
Startup calculation              ...       70.930 sec (=   1.182 min)   3.8 %
SCF iterations                   ...     1063.486 sec (=  17.725 min)  57.5 %
Property calculations            ...        2.968 sec (=   0.049 min)   0.2 %
SCF Gradient evaluation          ...      710.245 sec (=  11.837 min)  38.4 %
Geometry relaxation              ...        0.428 sec (=   0.007 min)   0.0 %
                             ****ORCA TERMINATED NORMALLY****
TOTAL RUN TIME: 0 days 0 hours 31 minutes 8 seconds 935 msec
