 vasp.6.3.2 27Jun22 (build Oct 25 2024 11:36:28) complex                        
  
 executed on             LinuxIFC date 2024.12.30  05:58:09
 running on   80 total cores
 distrk:  each k-point on   80 cores,    1 groups
 distr:  one band on NCORE=  10 cores,    8 groups


--------------------------------------------------------------------------------------------------------


 INCAR:
   SYSTEM = 103_red
   ISTART = 1
   ICHARG = 2
   INIWAV = 1
   METAGGA = R2SCAN
   LASPH = .TRUE.
   NELM = 100
   ALGO = fast   	
   ISPIN = 2
   EDIFF = 1E-05
   ISMEAR = 0
   SIGMA = 0.05
   PREC = accurate
   ENCUT = 500
   LREAL = auto  	
   LWAVE = .TRUE.
   LCHARG = .FALSE.
   LAECHG = .FALSE.
   LVHAR = .FALSE.
   LVTOT = .FALSE.
   EDIFFG = -0.02
   IBRION = 2
   NSW = 500
   ISIF = 2
   POTIM = 0.5
   IVDW = 12
   VDW_A1 = 0.49484001
   VDW_S8 = 0.78981345
   VDW_A2 = 5.73083694
   LPLANE = .TRUE.
   NCORE = 10
   LSCALU = .FALSE.
   NSIM = 4
   LSOL = .TRUE.
   ISOL = 2
   EPSILON_INF = 1.8069
   N_MOL = 0.0115
   P_MOL = 0.82
   R_SOLV = 2.1900
   EB_K = 35.6880
   NELECT = 43

 POTCAR:    PAW_PBE C 08Apr2002                   
 POTCAR:    PAW_PBE N 08Apr2002                   
 POTCAR:    PAW_PBE H 15Jun2001                   
 -----------------------------------------------------------------------------
|                                                                             |
|           W    W    AA    RRRRR   N    N  II  N    N   GGGG   !!!           |
|           W    W   A  A   R    R  NN   N  II  NN   N  G    G  !!!           |
|           W    W  A    A  R    R  N N  N  II  N N  N  G       !!!           |
|           W WW W  AAAAAA  RRRRR   N  N N  II  N  N N  G  GGG   !            |
|           WW  WW  A    A  R   R   N   NN  II  N   NN  G    G                |
|           W    W  A    A  R    R  N    N  II  N    N   GGGG   !!!           |
|                                                                             |
|     You use a magnetic or noncollinear calculation, but did not specify     |
|     the initial magnetic moment with the MAGMOM tag. Note that a            |
|     default of 1 will be used for all atoms. This ferromagnetic setup       |
|     may break the symmetry of the crystal, in particular it may rule        |
|     out finding an antiferromagnetic solution. Thence, we recommend         |
|     setting the initial magnetic moment manually or verifying carefully     |
|     that this magnetic setup is desired.                                    |
|                                                                             |
 -----------------------------------------------------------------------------

 POTCAR:    PAW_PBE C 08Apr2002                   
   SHA256 =  253f7b50bb8d59471dbedb8285d89021f4a42ed1a2c5d38a03a736e69125dd95 C/POTCAR              
   COPYR  = (c) Copyright 08Apr2002 Georg Kresse                                                    
   COPYR  = This file is part of the software VASP. Any use, copying, and all other rights are regul
   COPYR  = If you do not have a valid VASP license, you may not use, copy or distribute this file. 
   VRHFIN =C: s2p2                                                                                  
   LEXCH  = PE                                                                                      
   EATOM  =   147.1560 eV,   10.8157 Ry                                                             
                                                                                                    
   TITEL  = PAW_PBE C 08Apr2002                                                                     
   LULTRA =        F    use ultrasoft PP ?                                                          
   IUNSCR =        1    unscreen: 0-lin 1-nonlin 2-no                                               
   RPACOR =    1.200    partial core radius                                                         
   POMASS =   12.011; ZVAL   =    4.000    mass and valenz                                          
   RCORE  =    1.500    outmost cutoff radius                                                       
   RWIGS  =    1.630; RWIGS  =    0.863    wigner-seitz radius (au A)                               
   ENMAX  =  400.000; ENMIN  =  300.000 eV                                                          
   ICORE  =        2    local potential                                                             
   LCOR   =        T    correct aug charges                                                         
   LPAW   =        T    paw PP                                                                      
   EAUG   =  644.873                                                                                
   DEXC   =    0.000                                                                                
   RMAX   =    1.529    core radius for proj-oper                                                   
   RAUG   =    1.300    factor for augmentation sphere                                              
   RDEP   =    1.501    radius for radial grids                                                     
   RDEPT  =    1.300    core radius for aug-charge                                                  
                                                                                                    
   Atomic configuration                                                                             
    4 entries                                                                                       
     n  l   j            E        occ.                                                              
     1  0  0.50      -273.3789   2.0000                                                             
     2  0  0.50       -13.7508   2.0000                                                             
     2  1  0.50        -5.2854   2.0000                                                             
     3  2  1.50        -5.4423   0.0000                                                             
   Description                                                                                      
     l       E           TYP  RCUT    TYP  RCUT                                                     
     0    -13.7508458     23  1.200                                                                 
     0     -8.2022199     23  1.200                                                                 
     1     -5.2854383     23  1.500                                                                 
     1     34.0145650     23  1.500                                                                 
     2     -5.4423304      7  1.500                                                                 
  local pseudopotential read in
  partial core-charges read in
  partial kinetic energy density read in
  atomic valenz-charges read in
  non local Contribution for L=           0  read in
    real space projection operators read in
  non local Contribution for L=           0  read in
    real space projection operators read in
  non local Contribution for L=           1  read in
    real space projection operators read in
  non local Contribution for L=           1  read in
    real space projection operators read in
    PAW grid and wavefunctions read in
 
   number of l-projection  operators is LMAX  =           4
   number of lm-projection operators is LMMAX =           8
 
 POTCAR:    PAW_PBE N 08Apr2002                   
   SHA256 =  e053789ff3a61a86a1b75d8a110fcc91f86041011e7b0817c7c99e4e8a6349d7 N/POTCAR              
   COPYR  = (c) Copyright 08Apr2002 Georg Kresse                                                    
   COPYR  = This file is part of the software VASP. Any use, copying, and all other rights are regul
   COPYR  = If you do not have a valid VASP license, you may not use, copy or distribute this file. 
   VRHFIN =N: s2p3                                                                                  
   LEXCH  = PE                                                                                      
   EATOM  =   264.5486 eV,   19.4438 Ry                                                             
                                                                                                    
   TITEL  = PAW_PBE N 08Apr2002                                                                     
   LULTRA =        F    use ultrasoft PP ?                                                          
   IUNSCR =        1    unscreen: 0-lin 1-nonlin 2-no                                               
   RPACOR =    1.200    partial core radius                                                         
   POMASS =   14.001; ZVAL   =    5.000    mass and valenz                                          
   RCORE  =    1.500    outmost cutoff radius                                                       
   RWIGS  =    1.400; RWIGS  =    0.741    wigner-seitz radius (au A)                               
   ENMAX  =  400.000; ENMIN  =  300.000 eV                                                          
   ICORE  =        2    local potential                                                             
   LCOR   =        T    correct aug charges                                                         
   LPAW   =        T    paw PP                                                                      
   EAUG   =  627.112                                                                                
   DEXC   =    0.000                                                                                
   RMAX   =    1.529    core radius for proj-oper                                                   
   RAUG   =    1.300    factor for augmentation sphere                                              
   RDEP   =    1.514    radius for radial grids                                                     
   RDEPT  =    1.338    core radius for aug-charge                                                  
                                                                                                    
   Atomic configuration                                                                             
    4 entries                                                                                       
     n  l   j            E        occ.                                                              
     1  0  0.50      -384.7179   2.0000                                                             
     2  0  0.50       -18.5828   2.0000                                                             
     2  1  0.50        -7.0898   3.0000                                                             
     3  2  1.50        -6.8029   0.0000                                                             
   Description                                                                                      
     l       E           TYP  RCUT    TYP  RCUT                                                     
     0    -18.5828119     23  1.200                                                                 
     0    -13.5018863     23  1.200                                                                 
     1     -7.0897853     23  1.500                                                                 
     1      9.5240782     23  1.500                                                                 
     2     -6.8029130      7  1.500                                                                 
  local pseudopotential read in
  partial core-charges read in
  partial kinetic energy density read in
  atomic valenz-charges read in
  non local Contribution for L=           0  read in
    real space projection operators read in
  non local Contribution for L=           0  read in
    real space projection operators read in
  non local Contribution for L=           1  read in
    real space projection operators read in
  non local Contribution for L=           1  read in
    real space projection operators read in
    PAW grid and wavefunctions read in
 
   number of l-projection  operators is LMAX  =           4
   number of lm-projection operators is LMMAX =           8
 
 POTCAR:    PAW_PBE H 15Jun2001                   
   SHA256 =  030f79b5d3ab3cf0e668861823c8fb652ff669f3e15e46930bd03bfd63a607b6 H/POTCAR              
   COPYR  = (c) Copyright 15Jun2001 Georg Kresse                                                    
   COPYR  = This file is part of the software VASP. Any use, copying, and all other rights are regul
   COPYR  = If you do not have a valid VASP license, you may not use, copy or distribute this file. 
   VRHFIN =H: ultrasoft test                                                                        
   LEXCH  = PE                                                                                      
   EATOM  =    12.4884 eV,    0.9179 Ry                                                             
                                                                                                    
   TITEL  = PAW_PBE H 15Jun2001                                                                     
   LULTRA =        F    use ultrasoft PP ?                                                          
   IUNSCR =        0    unscreen: 0-lin 1-nonlin 2-no                                               
   RPACOR =    0.000    partial core radius                                                         
   POMASS =    1.000; ZVAL   =    1.000    mass and valenz                                          
   RCORE  =    1.100    outmost cutoff radius                                                       
   RWIGS  =    0.700; RWIGS  =    0.370    wigner-seitz radius (au A)                               
   ENMAX  =  250.000; ENMIN  =  200.000 eV                                                          
   RCLOC  =    0.701    cutoff for local pot                                                        
   LCOR   =        T    correct aug charges                                                         
   LPAW   =        T    paw PP                                                                      
   EAUG   =  400.000                                                                                
   RMAX   =    1.123    core radius for proj-oper                                                   
   RAUG   =    1.200    factor for augmentation sphere                                              
   RDEP   =    1.112    radius for radial grids                                                     
   RDEPT  =    0.926    core radius for aug-charge                                                  
                                                                                                    
   Atomic configuration                                                                             
    2 entries                                                                                       
     n  l   j            E        occ.                                                              
     1  0  0.50        -6.4927   1.0000                                                             
     2  1  0.50        -3.4015   0.0000                                                             
   Description                                                                                      
     l       E           TYP  RCUT    TYP  RCUT                                                     
     0     -6.4927494     23  1.100                                                                 
     0      6.8029130     23  1.100                                                                 
     1     -4.0817478     23  1.100                                                                 
  local pseudopotential read in
  atomic valenz-charges read in
  non local Contribution for L=           0  read in
    real space projection operators read in
  non local Contribution for L=           0  read in
    real space projection operators read in
  non local Contribution for L=           1  read in
    real space projection operators read in
    PAW grid and wavefunctions read in
 
   number of l-projection  operators is LMAX  =           3
   number of lm-projection operators is LMMAX =           5
 
 Optimization of the real space projectors (new method)

 maximal supplied QI-value         = 25.13
 optimisation between [QCUT,QGAM] = [ 11.31, 22.87] = [ 35.82,146.48] Ry 
 Optimized for a Real-space Cutoff    1.03 Angstroem

   l    n(q)    QCUT    max X(q) W(low)/X(q) W(high)/X(q)  e(spline) 
   0      7    11.310   115.676    0.20E-03    0.90E-03    0.20E-06
   0      7    11.310    87.132    0.20E-03    0.89E-03    0.19E-06
   1      6    11.310     4.429    0.16E-03    0.28E-03    0.12E-06
   1      6    11.310     2.733    0.12E-03    0.21E-03    0.99E-07
 Optimization of the real space projectors (new method)

 maximal supplied QI-value         = 25.13
 optimisation between [QCUT,QGAM] = [ 11.31, 22.87] = [ 35.82,146.48] Ry 
 Optimized for a Real-space Cutoff    1.43 Angstroem

   l    n(q)    QCUT    max X(q) W(low)/X(q) W(high)/X(q)  e(spline) 
   0     10    11.310    79.467    0.42E-04    0.81E-04    0.60E-06
   0     10    11.310    66.151    0.40E-04    0.81E-04    0.60E-06
   1      9    11.310    17.416    0.14E-03    0.88E-04    0.14E-05
   1      9    11.310    12.382    0.15E-03    0.93E-04    0.14E-05
 Optimization of the real space projectors (new method)

 maximal supplied QI-value         = 34.20
 optimisation between [QCUT,QGAM] = [ 11.29, 22.57] = [ 35.68,142.71] Ry 
 Optimized for a Real-space Cutoff    1.20 Angstroem

   l    n(q)    QCUT    max X(q) W(low)/X(q) W(high)/X(q)  e(spline) 
   0      8    11.287    19.460    0.22E-03    0.50E-03    0.19E-06
   0      8    11.287    12.209    0.21E-03    0.48E-03    0.18E-06
   1      8    11.287     4.655    0.21E-03    0.11E-04    0.26E-06
  PAW_PBE C 08Apr2002                   :
 energy of atom  1       EATOM= -147.1560
 kinetic energy error for atom=    0.0076 (will be added to EATOM!!)
  PAW_PBE N 08Apr2002                   :
 energy of atom  2       EATOM= -264.5486
 kinetic energy error for atom=    0.0138 (will be added to EATOM!!)
  PAW_PBE H 15Jun2001                   :
 energy of atom  3       EATOM=  -12.4884
 kinetic energy error for atom=    0.0020 (will be added to EATOM!!)
 
 
 POSCAR: C N H
  positions in direct lattice
  velocities in cartesian coordinates

 METAGGA = R2SCA    LMAXTAU =  6    LMIXTAU =  F

 exchange correlation table for  LEXCH =        8
   RHO(1)=    0.500       N(1)  =     2000
   RHO(2)=  100.500       N(2)  =     4000
 
 POSCAR: C N H
  positions in direct lattice
  velocities in cartesian coordinates
 
 POSCAR: C N H
  positions in direct lattice
  velocities in cartesian coordinates
 


--------------------------------------------------------------------------------------------------------


 ion  position               nearest neighbor table
   1  0.475  0.501  0.521-  11 1.09  12 1.09   7 1.45   2 1.54
   2  0.441  0.498  0.504-   8 1.09   9 1.09  10 1.09   1 1.54
   3  0.515  0.475  0.479-  17 1.09  16 1.10   7 1.45   4 1.51
   4  0.514  0.443  0.499-  13 1.09  14 1.09  15 1.09   3 1.51
   5  0.513  0.537  0.487-  22 1.09  21 1.09   7 1.45   6 1.53
   6  0.543  0.547  0.509-  20 1.09  19 1.09  18 1.09   5 1.53
   7  0.501  0.504  0.497-   1 1.45   5 1.45   3 1.45
   8  0.422  0.496  0.523-   2 1.09
   9  0.440  0.475  0.488-   2 1.09
  10  0.436  0.520  0.488-   2 1.09
  11  0.480  0.479  0.537-   1 1.09
  12  0.475  0.524  0.537-   1 1.09
  13  0.488  0.435  0.503-   4 1.09
  14  0.526  0.424  0.483-   4 1.09
  15  0.527  0.445  0.522-   4 1.09
  16  0.501  0.474  0.456-   3 1.10
  17  0.541  0.482  0.472-   3 1.09
  18  0.563  0.530  0.506-   6 1.09
  19  0.536  0.549  0.535-   6 1.09
  20  0.551  0.572  0.501-   6 1.09
  21  0.520  0.536  0.461-   5 1.09
  22  0.492  0.555  0.491-   5 1.09
 
  LATTYP: Found a simple cubic cell.
 ALAT       =    40.0000000000
  
  Lattice vectors:
  
 A1 = (  40.0000000000,   0.0000000000,   0.0000000000)
 A2 = (   0.0000000000,  40.0000000000,   0.0000000000)
 A3 = (   0.0000000000,   0.0000000000,  40.0000000000)


Analysis of symmetry for initial positions (statically):
=====================================================================
 Subroutine PRICEL returns:
 Original cell was already a primitive cell.
 

 Routine SETGRP: Setting up the symmetry group for a 
 simple cubic supercell.


 Subroutine GETGRP returns: Found  1 space group operations
 (whereof  1 operations were pure point group operations)
 out of a pool of 48 trial point group operations.


The static configuration has the point symmetry C_1 .


Analysis of symmetry for dynamics (positions and initial velocities):
=====================================================================
 Subroutine PRICEL returns:
 Original cell was already a primitive cell.
 

 Routine SETGRP: Setting up the symmetry group for a 
 simple cubic supercell.


 Subroutine GETGRP returns: Found  1 space group operations
 (whereof  1 operations were pure point group operations)
 out of a pool of 48 trial point group operations.


The dynamic configuration has the point symmetry C_1 .


Analysis of constrained symmetry for selective dynamics:
=====================================================================
 Subroutine PRICEL returns:
 Original cell was already a primitive cell.
 

 Routine SETGRP: Setting up the symmetry group for a 
 simple cubic supercell.


 Subroutine GETGRP returns: Found  1 space group operations
 (whereof  1 operations were pure point group operations)
 out of a pool of 48 trial point group operations.


The constrained configuration has the point symmetry C_1 .


Analysis of structural, dynamic, and magnetic symmetry:
=====================================================================
 Subroutine PRICEL returns:
 Original cell was already a primitive cell.
 

 Routine SETGRP: Setting up the symmetry group for a 
 simple cubic supercell.


 Subroutine GETGRP returns: Found  1 space group operations
 (whereof  1 operations were pure point group operations)
 out of a pool of 48 trial point group operations.


The overall configuration has the point symmetry C_1 .


 Subroutine INISYM returns: Found  1 space group operations
 (whereof  1 operations are pure point group operations),
 and found     1 'primitive' translations


----------------------------------------------------------------------------------------

                                     Primitive cell                                     

  volume of cell :   64000.0000

  direct lattice vectors                    reciprocal lattice vectors
    40.000000000  0.000000000  0.000000000     0.025000000  0.000000000  0.000000000
     0.000000000 40.000000000  0.000000000     0.000000000  0.025000000  0.000000000
     0.000000000  0.000000000 40.000000000     0.000000000  0.000000000  0.025000000

  length of vectors
    40.000000000 40.000000000 40.000000000     0.025000000  0.025000000  0.025000000

  position of ions in fractional coordinates (direct lattice)
     0.474906061  0.501186583  0.521457666
     0.440985126  0.497877674  0.503666311
     0.515052380  0.475454277  0.479497651
     0.513824262  0.442785498  0.498615655
     0.512800307  0.537086612  0.487218690
     0.542784628  0.547335641  0.508863977
     0.501357468  0.504139154  0.496981964
     0.421704926  0.496329334  0.522856154
     0.440085983  0.475327386  0.488390402
     0.436150668  0.519615885  0.487950066
     0.479650729  0.479385002  0.537050662
     0.475410373  0.523622018  0.536887864
     0.488304301  0.434529012  0.503409999
     0.526025668  0.423774387  0.483377958
     0.527255108  0.444727198  0.522279202
     0.500886607  0.473691569  0.455956686
     0.540556186  0.482162437  0.472371518
     0.563405268  0.529785242  0.505774016
     0.535852823  0.548527882  0.535188944
     0.550933620  0.572021293  0.500707513
     0.519908282  0.536079047  0.460928430
     0.492160225  0.554557870  0.490568673

  ion indices of the primitive-cell ions
   primitive index   ion index
                 1           1
                 2           2
                 3           3
                 4           4
                 5           5
                 6           6
                 7           7
                 8           8
                 9           9
                10          10
                11          11
                12          12
                13          13
                14          14
                15          15
                16          16
                17          17
                18          18
                19          19
                20          20
                21          21
                22          22

----------------------------------------------------------------------------------------

 
 
 KPOINTS: K-Point Grid                            

Automatic generation of k-mesh.
 Grid dimensions read from file:
 generate k-points for:    1    1    1

 Generating k-lattice:

  Cartesian coordinates                     Fractional coordinates (reciprocal lattice)
     0.025000000  0.000000000  0.000000000     1.000000000  0.000000000  0.000000000
     0.000000000  0.025000000  0.000000000     0.000000000  1.000000000  0.000000000
     0.000000000  0.000000000  0.025000000     0.000000000  0.000000000  1.000000000

  Length of vectors
     0.025000000  0.025000000  0.025000000

  Shift w.r.t. Gamma in fractional coordinates (k-lattice)
     0.000000000  0.000000000  0.000000000

 
 Subroutine IBZKPT returns following result:
 ===========================================
 
 Found      1 irreducible k-points:
 
 Following reciprocal coordinates:
            Coordinates               Weight
  0.000000  0.000000  0.000000      1.000000
 
 Following cartesian coordinates:
            Coordinates               Weight
  0.000000  0.000000  0.000000      1.000000
 


--------------------------------------------------------------------------------------------------------




 Dimension of arrays:
   k-points           NKPTS =      1   k-points in BZ     NKDIM =      1   number of bands    NBANDS=     48
   number of dos      NEDOS =    301   number of ions     NIONS =     22
   non local maximal  LDIM  =      4   non local SUM 2l+1 LMDIM =      8
   total plane-waves  NPLWV = ******
   max r-space proj   IRMAX =   4928   max aug-charges    IRDMAX=   5085
   dimension x,y,z NGX =   294 NGY =  294 NGZ =  294
   dimension x,y,z NGXF=   588 NGYF=  588 NGZF=  588
   support grid    NGXF=   588 NGYF=  588 NGZF=  588
   ions per type =               6   1  15
   NGX,Y,Z   is equivalent  to a cutoff of  12.22, 12.22, 12.22 a.u.
   NGXF,Y,Z  is equivalent  to a cutoff of  24.44, 24.44, 24.44 a.u.

 SYSTEM =  103_red                                 
 POSCAR =  C N H                                   

 Startparameter for this run:
   NWRITE =      2    write-flag & timer
   PREC   = accura    normal or accurate (medium, high low for compatibility)
   ISTART =      1    job   : 0-new  1-cont  2-samecut
   ICHARG =      2    charge: 1-file 2-atom 10-const
   ISPIN  =      2    spin polarized calculation?
   LNONCOLLINEAR =      F non collinear calculations
   LSORBIT =      F    spin-orbit coupling
   INIWAV =      1    electr: 0-lowe 1-rand  2-diag
   LASPH  =      T    aspherical Exc in radial PAW
 Electronic Relaxation 1
   ENCUT  =  500.0 eV  36.75 Ry    6.06 a.u.  72.93 72.93 72.93*2*pi/ulx,y,z
   ENINI  =  500.0     initial cutoff
   ENAUG  =  644.9 eV  augmentation charge cutoff
   NELM   =    100;   NELMIN=  2; NELMDL=  0     # of ELM steps 
   EDIFF  = 0.1E-04   stopping-criterion for ELM
   LREAL  =      T    real-space projection
   NLSPLINE    = F    spline interpolate recip. space projectors
   LCOMPAT=      F    compatible to vasp.4.4
   GGA_COMPAT  = T    GGA compatible to vasp.4.4-vasp.4.6
   LMAXPAW     = -100 max onsite density
   LMAXMIX     =    2 max onsite mixed and CHGCAR
   VOSKOWN=      0    Vosko Wilk Nusair interpolation
   ROPT   =   -0.00025  -0.00025  -0.00025
 Ionic relaxation
   EDIFFG = -.2E-01   stopping-criterion for IOM
   NSW    =    500    number of steps for IOM
   NBLOCK =      1;   KBLOCK =    500    inner block; outer block 
   IBRION =      2    ionic relax: 0-MD 1-quasi-New 2-CG
   NFREE  =      1    steps in history (QN), initial steepest desc. (CG)
   ISIF   =      2    stress and relaxation
   IWAVPR =     11    prediction:  0-non 1-charg 2-wave 3-comb
   ISYM   =      2    0-nonsym 1-usesym 2-fastsym
   LCORR  =      T    Harris-Foulkes like correction to forces

   POTIM  = 0.5000    time-step for ionic-motion
   TEIN   =    0.0    initial temperature
   TEBEG  =    0.0;   TEEND  =   0.0 temperature during run
   SMASS  =  -3.00    Nose mass-parameter (am)
   estimated Nose-frequenzy (Omega)   =  0.10E-29 period in steps = 0.13E+47 mass=  -0.366E-25a.u.
   SCALEE = 1.0000    scale energy and forces
   NPACO  =    256;   APACO  = 10.0  distance and # of slots for P.C.
   PSTRESS=    0.0 pullay stress

  Mass of Ions in am
   POMASS =  12.01 14.00  1.00
  Ionic Valenz
   ZVAL   =   4.00  5.00  1.00
  Atomic Wigner-Seitz radii
   RWIGS  =  -1.00 -1.00 -1.00
  virtual crystal weights 
   VCA    =   1.00  1.00  1.00
   NELECT =      43.0000    total number of electrons
   NUPDOWN=      -1.0000    fix difference up-down

 DOS related values:
   EMIN   =  10.00;   EMAX   =-10.00  energy-range for DOS
   EFERMI =   0.00
   ISMEAR =     0;   SIGMA  =   0.05  broadening in eV -4-tet -1-fermi 0-gaus

 Electronic relaxation 2 (details)
   IALGO  =     68    algorithm
   LDIAG  =      T    sub-space diagonalisation (order eigenvalues)
   LSUBROT=      F    optimize rotation matrix (better conditioning)
   TURBO    =      0    0=normal 1=particle mesh
   IRESTART =      0    0=no restart 2=restart with 2 vectors
   NREBOOT  =      0    no. of reboots
   NMIN     =      0    reboot dimension
   EREF     =   0.00    reference energy to select bands
   IMIX   =      4    mixing-type and parameters
     AMIX     =   0.40;   BMIX     =  1.00
     AMIX_MAG =   1.60;   BMIX_MAG =  1.00
     AMIN     =   0.10
     WC   =   100.;   INIMIX=   1;  MIXPRE=   1;  MAXMIX= -45

 Intra band minimization:
   WEIMIN = 0.0010     energy-eigenvalue tresh-hold
   EBREAK =  0.52E-07  absolut break condition
   DEPER  =   0.30     relativ break condition  

   TIME   =   0.40     timestep for ELM

  volume/ion in A,a.u.               =    2909.09     19631.51
  Fermi-wavevector in a.u.,A,eV,Ry     =   0.143385  0.270959  0.279726  0.020559
  Thomas-Fermi vector in A             =   0.807432
 
 Write flags
   LWAVE        =      T    write WAVECAR
   LDOWNSAMPLE  =      F    k-point downsampling of WAVECAR
   LCHARG       =      F    write CHGCAR
   LVTOT        =      F    write LOCPOT, total local potential
   LVHAR        =      F    write LOCPOT, Hartree potential only
   LELF         =      F    write electronic localiz. function (ELF)
   LORBIT       =      0    0 simple, 1 ext, 2 COOP (PROOUT), +10 PAW based schemes


 Dipole corrections
   LMONO  =      F    monopole corrections only (constant potential shift)
   LDIPOL =      F    correct potential (dipole corrections)
   IDIPOL =      0    1-x, 2-y, 3-z, 4-all directions 
   EPSILON=  1.0000000 bulk dielectric constant

 Exchange correlation treatment:
   GGA     =    --    GGA type
   LEXCH   =     8    internal setting for exchange type
   LIBXC   =     F    Libxc                    
   VOSKOWN =     0    Vosko Wilk Nusair interpolation
   LHFCALC =     F    Hartree Fock is set to
   LHFONE  =     F    Hartree Fock one center treatment
   AEXX    =    0.0000 exact exchange contribution

 Linear response parameters
   LEPSILON=     F    determine dielectric tensor
   LRPA    =     F    only Hartree local field effects (RPA)
   LNABLA  =     F    use nabla operator in PAW spheres
   LVEL    =     F    velocity operator in full k-point grid
   CSHIFT  =0.1000    complex shift for real part using Kramers Kronig
   OMEGAMAX=  -1.0    maximum frequency
   DEG_THRESHOLD= 0.2000000E-02 threshold for treating states as degnerate
   RTIME   =   -0.100 relaxation time in fs
  (WPLASMAI=    0.000 imaginary part of plasma frequency in eV, 0.658/RTIME)
   DFIELD  = 0.0000000 0.0000000 0.0000000 field for delta impulse in time
 
  Optional k-point grid parameters
   LKPOINTS_OPT  =     F    use optional k-point grid
   KPOINTS_OPT_MODE=     1    mode for optional k-point grid
 
 Orbital magnetization related:
   ORBITALMAG=     F  switch on orbital magnetization
   LCHIMAG   =     F  perturbation theory with respect to B field
   DQ        =  0.001000  dq finite difference perturbation B field
   LLRAUG    =     F  two centre corrections for induced B field

 Solvation model:
   LSOL             =     T         switch on solvation model
   LSOL_SCF         =     T         include solvation in SCF
   ISOL             =     2         solvation model type
   EFERMI_ref       =  0.000000         reference Fermi level
   capacitance_init =  1.000000         initial capacitance
 Nonlinear solvation model:
   LNLDIEL     =     T         switch on non-linear dielectric mode
   LNLION      =     T         switch on non-linear ionic mode
   LNLTEST     =     F         test non-linear model in linear regime
   I_NLOC_SOL  =     1         type of nonlocal dielectric response
   NC_K        =  0.015000     cutoff charge density for cavities (1/Angstrom**3)
   TAU         =  0.000879     cavity formation energy (eV/Angstrom**2)
   SIGMA_K     =  0.600000     cavity width
   A_K         =  0.125000     smoothing length (Angstrom)
   R_SOLV      =  2.190000     solvent radius (Angstrom)
   R_CAV       =  0.000000     cavity radius (Angstrom)
   R_DIEL      =  1.000000     dielectric radius (Angstrom)
   R_ION       =  0.000000     ionic radius (Angstrom)
   R_B         =  0.000000     bound charge radius (Angstrom)
   SOLTEMP     =298.000000     solvent temperature (K)
   EB_K        = 35.688000     relative permittivity of the bulk solvent
   EPSILON_INF =  1.806900     optical relative permittivity of bulk solvent
   N_MOL       =  0.011500     molar density of solvent (1/Angstrom**3)
   P_MOL       =  0.820000     solvent dipole moment (e*Angstrom)
   C_MOLAR     =  0.000000     electrolyte concentration (mol/L)
   LAMBDA_D_K  =  0.000000     Debye length (Angstrom)
   ZION        =  1.000000     charge of ions in electrolyte (e)
   D_ION       = -1.000000     minimum ion packing diameter (Angstrom)



--------------------------------------------------------------------------------------------------------


 conjugate gradient relaxation of ions
   using selective dynamics as specified on POSCAR
 charge density and potential will be updated during run
 spin polarized calculation
 RMM-DIIS sequential band-by-band and
  variant of blocked Davidson during initial phase
 perform sub-space diagonalisation
    before iterative eigenvector-optimisation
 modified Broyden-mixing scheme, WC =      100.0
 initial mixing is a Kerker type mixing with AMIX =  0.4000 and BMIX =      1.0000
 Hartree-type preconditioning will be used
 using additional bands           26
 real space projection scheme for non local part
 use partial core corrections
 calculate Harris-corrections to forces 
   (improved forces if not selfconsistent)
 use gradient corrections 
 use of overlap-Matrix (Vanderbilt PP)
 Gauss-broadening in eV      SIGMA  =   0.05


--------------------------------------------------------------------------------------------------------


  energy-cutoff  :      500.00
  volume of cell :    64000.00
      direct lattice vectors                 reciprocal lattice vectors
    40.000000000  0.000000000  0.000000000     0.025000000  0.000000000  0.000000000
     0.000000000 40.000000000  0.000000000     0.000000000  0.025000000  0.000000000
     0.000000000  0.000000000 40.000000000     0.000000000  0.000000000  0.025000000

  length of vectors
    40.000000000 40.000000000 40.000000000     0.025000000  0.025000000  0.025000000


 
 old parameters found on file WAVECAR:
  energy-cutoff  :      500.00
  volume of cell :    64000.00
      direct lattice vectors                 reciprocal lattice vectors
    40.000000000  0.000000000  0.000000000     0.025000000  0.000000000  0.000000000
     0.000000000 40.000000000  0.000000000     0.000000000  0.025000000  0.000000000
     0.000000000  0.000000000 40.000000000     0.000000000  0.000000000  0.025000000

  length of vectors

 
 k-points in units of 2pi/SCALE and weight: K-Point Grid                            
   0.00000000  0.00000000  0.00000000       1.000
 
 k-points in reciprocal lattice and weights: K-Point Grid                            
   0.00000000  0.00000000  0.00000000       1.000
 
 position of ions in fractional coordinates (direct lattice) 
   0.47490606  0.50118658  0.52145767
   0.44098513  0.49787767  0.50366631
   0.51505238  0.47545428  0.47949765
   0.51382426  0.44278550  0.49861565
   0.51280031  0.53708661  0.48721869
   0.54278463  0.54733564  0.50886398
   0.50135747  0.50413915  0.49698196
   0.42170493  0.49632933  0.52285615
   0.44008598  0.47532739  0.48839040
   0.43615067  0.51961588  0.48795007
   0.47965073  0.47938500  0.53705066
   0.47541037  0.52362202  0.53688786
   0.48830430  0.43452901  0.50341000
   0.52602567  0.42377439  0.48337796
   0.52725511  0.44472720  0.52227920
   0.50088661  0.47369157  0.45595669
   0.54055619  0.48216244  0.47237152
   0.56340527  0.52978524  0.50577402
   0.53585282  0.54852788  0.53518894
   0.55093362  0.57202129  0.50070751
   0.51990828  0.53607905  0.46092843
   0.49216023  0.55455787  0.49056867
 
 position of ions in cartesian coordinates  (Angst):
  18.99624243 20.04746332 20.85830663
  17.63940506 19.91510697 20.14665244
  20.60209519 19.01817109 19.17990603
  20.55297047 17.71141992 19.94462619
  20.51201229 21.48346446 19.48874760
  21.71138513 21.89342562 20.35455908
  20.05429871 20.16556616 19.87927855
  16.86819703 19.85317338 20.91424615
  17.60343933 19.01309544 19.53561609
  17.44602672 20.78463538 19.51800264
  19.18602915 19.17540008 21.48202647
  19.01641492 20.94488070 21.47551454
  19.53217205 17.38116048 20.13639995
  21.04102672 16.95097546 19.33511834
  21.09020434 17.78908794 20.89116807
  20.03546428 18.94766277 18.23826744
  21.62224743 19.28649747 18.89486072
  22.53621073 21.19140968 20.23096065
  21.43411293 21.94111530 21.40755776
  22.03734479 22.88085171 20.02830052
  20.79633128 21.44316188 18.43713721
  19.68640901 22.18231478 19.62274691
 


--------------------------------------------------------------------------------------------------------


 k-point   1 :   0.0000 0.0000 0.0000  plane waves: 1624525

 maximum and minimum number of plane-waves per node :    162473   162437

 maximum number of plane-waves:   1624525
 maximum index in each direction: 
   IXMAX=   72   IYMAX=   72   IZMAX=   72
   IXMIN=  -72   IYMIN=  -72   IZMIN=  -72


 real space projection operators:
  total allocation   :       2593.27 KBytes
  max/ min on nodes  :        263.34        253.03


 parallel 3D FFT for wavefunctions:
    minimum data exchange during FFTs selected (reduces bandwidth)
 parallel 3D FFT for charge:
    minimum data exchange during FFTs selected (reduces bandwidth)


 total amount of memory used by VASP MPI-rank0   893234. kBytes
=======================================================================

   base      :      30000. kBytes
   nonlr-proj:       2156. kBytes
   fftplans  :     167689. kBytes
   grid      :     662171. kBytes
   one-center:         18. kBytes
   wavefun   :      31200. kBytes
 
     INWAV:  cpu time      7.2519: real time      7.2687
 Broyden mixing: mesh for mixing (old mesh)
   NGX =145   NGY =145   NGZ =145
  (NGX  =588   NGY  =588   NGZ  =588)
  gives a total of ****** points

 initial charge density was supplied:
 charge density of overlapping atoms calculated
 number of electron      44.0000000 magnetization      22.0000000
 keeping initial charge density in first step


--------------------------------------------------------------------------------------------------------


 Maximum index for non-local projection operator          488
 Maximum index for augmentation-charges          330 (set IRDMAX)


--------------------------------------------------------------------------------------------------------


 First call to EWALD:  gamma=   0.044
 Maximum number of real-space cells 3x 3x 3
 Maximum number of reciprocal cells 3x 3x 3

    FEWALD:  cpu time      0.0014: real time      0.0014


--------------------------------------- Iteration      1(   1)  ---------------------------------------


    POTLOK:  cpu time      7.8556: real time      7.8718
    SETDIJ:  cpu time      0.3473: real time      0.3480
     EDDAV:  cpu time     43.6706: real time     43.7658
       DOS:  cpu time      0.0004: real time      0.0004
    CHARGE:  cpu time      4.8643: real time      4.8736
    MIXING:  cpu time      0.1721: real time      0.1722
    --------------------------------------------
      LOOP:  cpu time     56.9103: real time     57.0320

 eigenvalue-minimisations  :   288
 total energy-change (2. order) :-0.1011857E+03  (-0.9151781E+01)
 number of electron      43.0000003 magnetization      21.1909166
 augmentation part        1.1727086 magnetization      20.3224415

 Broyden mixing:
  rms(total) = 0.28489E+01    rms(broyden)= 0.28485E+01
  rms(prec ) = 0.28733E+01
  weight for this iteration     100.00

 Free energy of the ion-electron system (eV)
  ---------------------------------------------------
  alpha Z        PSCENC =         0.12465185
  Ewald energy   TEWEN  =      4316.03575867
  -Hartree energ DENC   =     -5153.27519193
  -exchange      EXHF   =         0.00000000
  -V(xc)+E(xc)   XCENC  =       165.99347470
  PAW double counting   =       859.45235718     -874.66994655
  entropy T*S    EENTRO =        -0.00000000
  eigenvalues    EBANDS =      -749.56867096
  atomic energy  EATOM  =      1334.72182766
  Solvation  Ecorr_sol  =         0.00000000
  ---------------------------------------------------
  free energy    TOTEN  =      -101.18573938 eV

  energy without entropy =     -101.18573938  energy(sigma->0) =     -101.18573938


--------------------------------------------------------------------------------------------------------




--------------------------------------- Iteration      1(   2)  ---------------------------------------


    --------------------------------------------
      INIT:  cpu time      0.2003: real time      0.2003
  FINALIZE:  cpu time     17.0212: real time     17.0473
    --------------------------------------------
    POTLOK:  cpu time     25.0701: real time     25.1223
    SETDIJ:  cpu time      0.3461: real time      0.3468
    EDDIAG:  cpu time      8.1960: real time      8.2138
  RMM-DIIS:  cpu time     48.2480: real time     48.3517
    ORTHCH:  cpu time      0.1209: real time      0.1212
       DOS:  cpu time      0.0003: real time      0.0003
    CHARGE:  cpu time      4.8822: real time      4.8921
    MIXING:  cpu time      0.1325: real time      0.1327
    --------------------------------------------
      LOOP:  cpu time     86.9961: real time     87.1807

 eigenvalue-minimisations  :   199
 total energy-change (2. order) : 0.4282746E+01  (-0.9895106E+01)
 number of electron      43.0000003 magnetization      20.3216261
 augmentation part        1.1632664 magnetization      19.3921386

 Broyden mixing:
  rms(total) = 0.14156E+01    rms(broyden)= 0.14155E+01
  rms(prec ) = 0.14349E+01
  weight for this iteration     100.00

 eigenvalues of (default mixing * dielectric matrix)
  average eigenvalue GAMMA=   0.9574
  0.9574

 Free energy of the ion-electron system (eV)
  ---------------------------------------------------
  alpha Z        PSCENC =         0.12465185
  Ewald energy   TEWEN  =      4316.03575867
  -Hartree energ DENC   =     -5215.63188382
  -exchange      EXHF   =         0.00000000
  -V(xc)+E(xc)   XCENC  =       178.07766711
  PAW double counting   =      1582.82056632    -1598.74670437
  entropy T*S    EENTRO =        -0.00000000
  eigenvalues    EBANDS =      -680.95665101
  atomic energy  EATOM  =      1334.72182766
  Solvation  Ecorr_sol  =       -13.34822602
  ---------------------------------------------------
  free energy    TOTEN  =       -96.90299362 eV

  energy without entropy =      -96.90299362  energy(sigma->0) =      -96.90299362


--------------------------------------------------------------------------------------------------------




--------------------------------------- Iteration      1(   3)  ---------------------------------------


    --------------------------------------------
      INIT:  cpu time      0.2010: real time      0.2012
  FINALIZE:  cpu time     20.0183: real time     20.0496
    --------------------------------------------
    POTLOK:  cpu time     28.0355: real time     28.0885
    SETDIJ:  cpu time      0.3452: real time      0.3459
    EDDIAG:  cpu time      8.2045: real time      8.2217
  RMM-DIIS:  cpu time     49.8469: real time     49.9547
    ORTHCH:  cpu time      0.1223: real time      0.1226
       DOS:  cpu time      0.0012: real time      0.0012
    CHARGE:  cpu time      4.8854: real time      4.8950
    MIXING:  cpu time      0.1407: real time      0.1408
    --------------------------------------------
      LOOP:  cpu time     91.5817: real time     91.7705

 eigenvalue-minimisations  :   208
 total energy-change (2. order) :-0.2146021E+02  (-0.4337063E+01)
 number of electron      43.0000003 magnetization      19.3386202
 augmentation part        1.1514619 magnetization      18.3892155

 Broyden mixing:
  rms(total) = 0.88310E+00    rms(broyden)= 0.88306E+00
  rms(prec ) = 0.89010E+00
  weight for this iteration     100.00

 eigenvalues of (default mixing * dielectric matrix)
  average eigenvalue GAMMA=   1.0605
  1.3393  0.7818

 Free energy of the ion-electron system (eV)
  ---------------------------------------------------
  alpha Z        PSCENC =         0.12465185
  Ewald energy   TEWEN  =      4316.03575867
  -Hartree energ DENC   =     -5253.13026836
  -exchange      EXHF   =         0.00000000
  -V(xc)+E(xc)   XCENC  =       165.40013484
  PAW double counting   =      2232.21172693    -2248.67689374
  entropy T*S    EENTRO =        -0.00000000
  eigenvalues    EBANDS =      -639.56328890
  atomic energy  EATOM  =      1334.72182766
  Solvation  Ecorr_sol  =       -25.48684799
  ---------------------------------------------------
  free energy    TOTEN  =      -118.36319905 eV

  energy without entropy =     -118.36319905  energy(sigma->0) =     -118.36319905


--------------------------------------------------------------------------------------------------------




--------------------------------------- Iteration      1(   4)  ---------------------------------------


    --------------------------------------------
      INIT:  cpu time      0.2018: real time      0.2019
  FINALIZE:  cpu time     20.1891: real time     20.2206
    --------------------------------------------
    POTLOK:  cpu time     28.2339: real time     28.2891
    SETDIJ:  cpu time      0.3477: real time      0.3484
    EDDIAG:  cpu time      8.2115: real time      8.2292
  RMM-DIIS:  cpu time     59.6755: real time     59.8041
    ORTHCH:  cpu time      0.1171: real time      0.1174
       DOS:  cpu time      0.0023: real time      0.0023
    CHARGE:  cpu time      4.8754: real time      4.8853
    MIXING:  cpu time      0.1513: real time      0.1515
    --------------------------------------------
      LOOP:  cpu time    101.6149: real time    101.8275

 eigenvalue-minimisations  :   253
 total energy-change (2. order) :-0.5618405E+01  (-0.1709913E+01)
 number of electron      43.0000003 magnetization      18.4190844
 augmentation part        1.1296224 magnetization      17.4741345

 Broyden mixing:
  rms(total) = 0.65435E+00    rms(broyden)= 0.65429E+00
  rms(prec ) = 0.66045E+00
  weight for this iteration     100.00

 eigenvalues of (default mixing * dielectric matrix)
  average eigenvalue GAMMA=   1.1375
  1.3451  1.3451  0.7222

 Free energy of the ion-electron system (eV)
  ---------------------------------------------------
  alpha Z        PSCENC =         0.12465185
  Ewald energy   TEWEN  =      4316.03575867
  -Hartree energ DENC   =     -5267.97203614
  -exchange      EXHF   =         0.00000000
  -V(xc)+E(xc)   XCENC  =       164.58254081
  PAW double counting   =      2779.50954742    -2796.01612547
  entropy T*S    EENTRO =        -0.00000000
  eigenvalues    EBANDS =      -616.51782912
  atomic energy  EATOM  =      1334.72182766
  Solvation  Ecorr_sol  =       -38.44993992
  ---------------------------------------------------
  free energy    TOTEN  =      -123.98160424 eV

  energy without entropy =     -123.98160424  energy(sigma->0) =     -123.98160424


--------------------------------------------------------------------------------------------------------




--------------------------------------- Iteration      1(   5)  ---------------------------------------


    --------------------------------------------
      INIT:  cpu time      0.2015: real time      0.2015
  FINALIZE:  cpu time     21.3346: real time     21.3694
    --------------------------------------------
    POTLOK:  cpu time     29.4033: real time     29.4619
    SETDIJ:  cpu time      0.3469: real time      0.3476
    EDDIAG:  cpu time      8.2104: real time      8.2277
  RMM-DIIS:  cpu time     61.9096: real time     62.0447
    ORTHCH:  cpu time      0.1186: real time      0.1189
       DOS:  cpu time      0.0006: real time      0.0006
    CHARGE:  cpu time      4.8828: real time      4.8928
    MIXING:  cpu time      0.1462: real time      0.1463
    --------------------------------------------
      LOOP:  cpu time    105.0183: real time    105.2404

 eigenvalue-minimisations  :   272
 total energy-change (2. order) :-0.2137438E+01  (-0.3092373E+00)
 number of electron      43.0000003 magnetization      16.9099350
 augmentation part        1.1237376 magnetization      15.9730543

 Broyden mixing:
  rms(total) = 0.42794E+00    rms(broyden)= 0.42792E+00
  rms(prec ) = 0.43165E+00
  weight for this iteration     100.00

 eigenvalues of (default mixing * dielectric matrix)
  average eigenvalue GAMMA=   1.2844
  2.0284  1.5493  0.8813  0.6787

 Free energy of the ion-electron system (eV)
  ---------------------------------------------------
  alpha Z        PSCENC =         0.12465185
  Ewald energy   TEWEN  =      4316.03575867
  -Hartree energ DENC   =     -5256.53426032
  -exchange      EXHF   =         0.00000000
  -V(xc)+E(xc)   XCENC  =       163.30429466
  PAW double counting   =      3017.92031667    -3034.29243044
  entropy T*S    EENTRO =        -0.00000000
  eigenvalues    EBANDS =      -618.90314134
  atomic energy  EATOM  =      1334.72182766
  Solvation  Ecorr_sol  =       -48.49605999
  ---------------------------------------------------
  free energy    TOTEN  =      -126.11904259 eV

  energy without entropy =     -126.11904259  energy(sigma->0) =     -126.11904259


--------------------------------------------------------------------------------------------------------




--------------------------------------- Iteration      1(   6)  ---------------------------------------


    --------------------------------------------
      INIT:  cpu time      0.2031: real time      0.2031
  FINALIZE:  cpu time     20.2114: real time     20.2432
    --------------------------------------------
    POTLOK:  cpu time     28.2585: real time     28.3140
    SETDIJ:  cpu time      0.3455: real time      0.3462
    EDDIAG:  cpu time      8.2101: real time      8.2276
  RMM-DIIS:  cpu time     61.7179: real time     61.8505
    ORTHCH:  cpu time      0.1173: real time      0.1176
       DOS:  cpu time      0.0013: real time      0.0013
    CHARGE:  cpu time      4.8911: real time      4.9011
    MIXING:  cpu time      0.1560: real time      0.1563
    --------------------------------------------
      LOOP:  cpu time    103.6978: real time    103.9146

 eigenvalue-minimisations  :   272
 total energy-change (2. order) :-0.4235376E+01  (-0.2148968E+00)
 number of electron      43.0000003 magnetization      16.2125043
 augmentation part        1.1221934 magnetization      15.2831794

 Broyden mixing:
  rms(total) = 0.24277E+00    rms(broyden)= 0.24276E+00
  rms(prec ) = 0.24552E+00
  weight for this iteration     100.00

 eigenvalues of (default mixing * dielectric matrix)
  average eigenvalue GAMMA=   1.3378
  2.7408  1.2329  1.2329  0.6507  0.8314

 Free energy of the ion-electron system (eV)
  ---------------------------------------------------
  alpha Z        PSCENC =         0.12465185
  Ewald energy   TEWEN  =      4316.03575867
  -Hartree energ DENC   =     -5243.08184468
  -exchange      EXHF   =         0.00000000
  -V(xc)+E(xc)   XCENC  =       160.34308346
  PAW double counting   =      3336.88271071    -3353.01715966
  entropy T*S    EENTRO =        -0.00000000
  eigenvalues    EBANDS =      -618.99639435
  atomic energy  EATOM  =      1334.72182766
  Solvation  Ecorr_sol  =       -63.36705192
  ---------------------------------------------------
  free energy    TOTEN  =      -130.35441828 eV

  energy without entropy =     -130.35441828  energy(sigma->0) =     -130.35441828


--------------------------------------------------------------------------------------------------------




--------------------------------------- Iteration      1(   7)  ---------------------------------------


    --------------------------------------------
      INIT:  cpu time      0.2011: real time      0.2012
  FINALIZE:  cpu time     21.3458: real time     21.3787
    --------------------------------------------
    POTLOK:  cpu time     29.4356: real time     29.4922
    SETDIJ:  cpu time      0.3465: real time      0.3473
    EDDIAG:  cpu time      8.2058: real time      8.2232
  RMM-DIIS:  cpu time     62.1343: real time     62.2687
    ORTHCH:  cpu time      0.1197: real time      0.1199
       DOS:  cpu time      0.0002: real time      0.0002
    CHARGE:  cpu time      4.8685: real time      4.8782
    MIXING:  cpu time      0.1398: real time      0.1399
    --------------------------------------------
      LOOP:  cpu time    105.2503: real time    105.4696

 eigenvalue-minimisations  :   278
 total energy-change (2. order) :-0.1518564E+00  (-0.8419648E-01)
 number of electron      43.0000003 magnetization      15.1863300
 augmentation part        1.1180884 magnetization      14.2625944

 Broyden mixing:
  rms(total) = 0.20594E+00    rms(broyden)= 0.20594E+00
  rms(prec ) = 0.20823E+00
  weight for this iteration     100.00

 eigenvalues of (default mixing * dielectric matrix)
  average eigenvalue GAMMA=   1.2797
  2.7757  1.4872  1.0183  1.0183  0.7430  0.6357

 Free energy of the ion-electron system (eV)
  ---------------------------------------------------
  alpha Z        PSCENC =         0.12465185
  Ewald energy   TEWEN  =      4316.03575867
  -Hartree energ DENC   =     -5240.66327928
  -exchange      EXHF   =         0.00000000
  -V(xc)+E(xc)   XCENC  =       160.59776511
  PAW double counting   =      3390.07400223    -3406.23707931
  entropy T*S    EENTRO =        -0.00000000
  eigenvalues    EBANDS =      -616.60591072
  atomic energy  EATOM  =      1334.72182766
  Solvation  Ecorr_sol  =       -68.55401087
  ---------------------------------------------------
  free energy    TOTEN  =      -130.50627467 eV

  energy without entropy =     -130.50627467  energy(sigma->0) =     -130.50627467


--------------------------------------------------------------------------------------------------------




--------------------------------------- Iteration      1(   8)  ---------------------------------------


    --------------------------------------------
      INIT:  cpu time      0.2010: real time      0.2011
  FINALIZE:  cpu time     20.3215: real time     20.3542
    --------------------------------------------
    POTLOK:  cpu time     28.4034: real time     28.4589
    SETDIJ:  cpu time      0.3466: real time      0.3473
    EDDIAG:  cpu time      8.1885: real time      8.2060
  RMM-DIIS:  cpu time     62.0028: real time     62.1361
    ORTHCH:  cpu time      0.1225: real time      0.1227
       DOS:  cpu time      0.0009: real time      0.0009
    CHARGE:  cpu time      4.8588: real time      4.8686
    MIXING:  cpu time      0.1378: real time      0.1378
    --------------------------------------------
      LOOP:  cpu time    104.0611: real time    104.2784

 eigenvalue-minimisations  :   278
 total energy-change (2. order) : 0.1865065E+01  (-0.6722706E-01)
 number of electron      43.0000003 magnetization      12.5610395
 augmentation part        1.1162930 magnetization      11.6427163

 Broyden mixing:
  rms(total) = 0.15795E+00    rms(broyden)= 0.15795E+00
  rms(prec ) = 0.15972E+00
  weight for this iteration     100.00

 eigenvalues of (default mixing * dielectric matrix)
  average eigenvalue GAMMA=   1.5364
  3.5212  2.4314  1.2640  1.2640  0.9078  0.7417  0.6244

 Free energy of the ion-electron system (eV)
  ---------------------------------------------------
  alpha Z        PSCENC =         0.12465185
  Ewald energy   TEWEN  =      4316.03575867
  -Hartree energ DENC   =     -5233.82044230
  -exchange      EXHF   =         0.00000000
  -V(xc)+E(xc)   XCENC  =       162.37453164
  PAW double counting   =      3344.45963615    -3360.64220132
  entropy T*S    EENTRO =        -0.00000000
  eigenvalues    EBANDS =      -617.40587395
  atomic energy  EATOM  =      1334.72182766
  Solvation  Ecorr_sol  =       -74.48909784
  ---------------------------------------------------
  free energy    TOTEN  =      -128.64120944 eV

  energy without entropy =     -128.64120944  energy(sigma->0) =     -128.64120944


--------------------------------------------------------------------------------------------------------




--------------------------------------- Iteration      1(   9)  ---------------------------------------


    --------------------------------------------
      INIT:  cpu time      0.2013: real time      0.2013
  FINALIZE:  cpu time     20.3371: real time     20.3704
    --------------------------------------------
    POTLOK:  cpu time     28.3973: real time     28.4543
    SETDIJ:  cpu time      0.3448: real time      0.3456
    EDDIAG:  cpu time      8.1867: real time      8.2035
  RMM-DIIS:  cpu time     62.0244: real time     62.1569
    ORTHCH:  cpu time      0.1165: real time      0.1167
       DOS:  cpu time      0.0010: real time      0.0010
    CHARGE:  cpu time      4.8560: real time      4.8658
    MIXING:  cpu time      0.1402: real time      0.1403
    --------------------------------------------
      LOOP:  cpu time    104.0669: real time    104.2842

 eigenvalue-minimisations  :   276
 total energy-change (2. order) : 0.2071932E+01  (-0.8386357E-01)
 number of electron      43.0000003 magnetization      11.6117061
 augmentation part        1.1153648 magnetization      10.7000655

 Broyden mixing:
  rms(total) = 0.95505E-01    rms(broyden)= 0.95500E-01
  rms(prec ) = 0.96833E-01
  weight for this iteration     100.00

 eigenvalues of (default mixing * dielectric matrix)
  average eigenvalue GAMMA=   1.6962
  5.3882  2.4758  1.4538  1.0525  1.0525  0.6284  0.7592  0.7592

 Free energy of the ion-electron system (eV)
  ---------------------------------------------------
  alpha Z        PSCENC =         0.12465185
  Ewald energy   TEWEN  =      4316.03575867
  -Hartree energ DENC   =     -5216.50497436
  -exchange      EXHF   =         0.00000000
  -V(xc)+E(xc)   XCENC  =       164.42101317
  PAW double counting   =      3296.33486688    -3312.52747893
  entropy T*S    EENTRO =        -0.00000000
  eigenvalues    EBANDS =      -620.03627824
  atomic energy  EATOM  =      1334.72182766
  Solvation  Ecorr_sol  =       -89.13866413
  ---------------------------------------------------
  free energy    TOTEN  =      -126.56927743 eV

  energy without entropy =     -126.56927743  energy(sigma->0) =     -126.56927743


--------------------------------------------------------------------------------------------------------




--------------------------------------- Iteration      1(  10)  ---------------------------------------


    --------------------------------------------
      INIT:  cpu time      0.2019: real time      0.2020
  FINALIZE:  cpu time     20.5688: real time     20.6003
    --------------------------------------------
    POTLOK:  cpu time     28.6168: real time     28.6731
    SETDIJ:  cpu time      0.3461: real time      0.3468
    EDDIAG:  cpu time      8.2057: real time      8.2227
  RMM-DIIS:  cpu time     62.0678: real time     62.2004
    ORTHCH:  cpu time      0.1170: real time      0.1173
       DOS:  cpu time      0.0015: real time      0.0015
    CHARGE:  cpu time      4.8578: real time      4.8680
    MIXING:  cpu time      0.1497: real time      0.1499
    --------------------------------------------
      LOOP:  cpu time    104.3625: real time    104.5797

 eigenvalue-minimisations  :   278
 total energy-change (2. order) : 0.7727109E+00  (-0.1160778E-01)
 number of electron      43.0000003 magnetization      10.5614321
 augmentation part        1.1143905 magnetization       9.6531685

 Broyden mixing:
  rms(total) = 0.71909E-01    rms(broyden)= 0.71907E-01
  rms(prec ) = 0.72701E-01
  weight for this iteration     100.00

 eigenvalues of (default mixing * dielectric matrix)
  average eigenvalue GAMMA=   1.7335
  6.3172  2.4386  1.3744  1.3744  1.1605  0.6257  0.7748  0.7748  0.7606

 Free energy of the ion-electron system (eV)
  ---------------------------------------------------
  alpha Z        PSCENC =         0.12465185
  Ewald energy   TEWEN  =      4316.03575867
  -Hartree energ DENC   =     -5210.76453993
  -exchange      EXHF   =         0.00000000
  -V(xc)+E(xc)   XCENC  =       165.16720019
  PAW double counting   =      3310.89755665    -3327.07312034
  entropy T*S    EENTRO =        -0.00000000
  eigenvalues    EBANDS =      -621.34222538
  atomic energy  EATOM  =      1334.72182766
  Solvation  Ecorr_sol  =       -93.56367587
  ---------------------------------------------------
  free energy    TOTEN  =      -125.79656651 eV

  energy without entropy =     -125.79656651  energy(sigma->0) =     -125.79656651


--------------------------------------------------------------------------------------------------------




--------------------------------------- Iteration      1(  11)  ---------------------------------------


    --------------------------------------------
      INIT:  cpu time      0.2015: real time      0.2016
  FINALIZE:  cpu time     21.5979: real time     21.6332
    --------------------------------------------
    POTLOK:  cpu time     29.8035: real time     29.8627
    SETDIJ:  cpu time      0.3454: real time      0.3461
    EDDIAG:  cpu time      8.2035: real time      8.2206
  RMM-DIIS:  cpu time     62.1126: real time     62.2467
    ORTHCH:  cpu time      0.1174: real time      0.1177
       DOS:  cpu time      0.0022: real time      0.0022
    CHARGE:  cpu time      4.8612: real time      4.8712
    MIXING:  cpu time      0.1555: real time      0.1556
    --------------------------------------------
      LOOP:  cpu time    105.6012: real time    105.8228

 eigenvalue-minimisations  :   278
 total energy-change (2. order) : 0.1179268E+01  (-0.1863196E-01)
 number of electron      43.0000003 magnetization       9.3098939
 augmentation part        1.1144753 magnetization       8.4049384

 Broyden mixing:
  rms(total) = 0.55921E-01    rms(broyden)= 0.55917E-01
  rms(prec ) = 0.56309E-01
  weight for this iteration     100.00

 eigenvalues of (default mixing * dielectric matrix)
  average eigenvalue GAMMA=   1.8598
  7.4076  2.4705  2.0762  1.6344  1.0354  1.0354  0.8169  0.8169  0.6261  0.6783

 Free energy of the ion-electron system (eV)
  ---------------------------------------------------
  alpha Z        PSCENC =         0.12465185
  Ewald energy   TEWEN  =      4316.03575867
  -Hartree energ DENC   =     -5204.58633366
  -exchange      EXHF   =         0.00000000
  -V(xc)+E(xc)   XCENC  =       166.22035762
  PAW double counting   =      3313.51475591    -3329.65952159
  entropy T*S    EENTRO =        -0.00000000
  eigenvalues    EBANDS =      -624.42505529
  atomic energy  EATOM  =      1334.72182766
  Solvation  Ecorr_sol  =       -96.56373965
  ---------------------------------------------------
  free energy    TOTEN  =      -124.61729850 eV

  energy without entropy =     -124.61729850  energy(sigma->0) =     -124.61729850


--------------------------------------------------------------------------------------------------------




--------------------------------------- Iteration      1(  12)  ---------------------------------------


    --------------------------------------------
      INIT:  cpu time      0.2115: real time      0.2115
  FINALIZE:  cpu time     20.4349: real time     20.4652
    --------------------------------------------
    POTLOK:  cpu time     28.4999: real time     28.5531
    SETDIJ:  cpu time      0.3446: real time      0.3453
    EDDIAG:  cpu time      8.1944: real time      8.2117
  RMM-DIIS:  cpu time     61.9993: real time     62.1331
    ORTHCH:  cpu time      0.1181: real time      0.1184
       DOS:  cpu time      0.0003: real time      0.0003
    CHARGE:  cpu time      4.8467: real time      4.8564
    MIXING:  cpu time      0.1605: real time      0.1607
    --------------------------------------------
      LOOP:  cpu time    104.1638: real time    104.3791

 eigenvalue-minimisations  :   278
 total energy-change (2. order) : 0.1373655E+01  (-0.1162839E-01)
 number of electron      43.0000003 magnetization       8.4695832
 augmentation part        1.1137755 magnetization       7.5672307

 Broyden mixing:
  rms(total) = 0.44415E-01    rms(broyden)= 0.44413E-01
  rms(prec ) = 0.44734E-01
  weight for this iteration     100.00

 eigenvalues of (default mixing * dielectric matrix)
  average eigenvalue GAMMA=   1.8833
  8.0072  3.0824  2.0505  1.3497  1.3497  1.1953  0.8105  0.8105  0.7718  0.6310
  0.6577

 Free energy of the ion-electron system (eV)
  ---------------------------------------------------
  alpha Z        PSCENC =         0.12465185
  Ewald energy   TEWEN  =      4316.03575867
  -Hartree energ DENC   =     -5200.10008502
  -exchange      EXHF   =         0.00000000
  -V(xc)+E(xc)   XCENC  =       167.53786578
  PAW double counting   =      3302.81617003    -3318.97338121
  entropy T*S    EENTRO =        -0.00000000
  eigenvalues    EBANDS =      -626.08024572
  atomic energy  EATOM  =      1334.72182766
  Solvation  Ecorr_sol  =       -99.32620600
  ---------------------------------------------------
  free energy    TOTEN  =      -123.24364397 eV

  energy without entropy =     -123.24364397  energy(sigma->0) =     -123.24364397


--------------------------------------------------------------------------------------------------------




--------------------------------------- Iteration      1(  13)  ---------------------------------------


    --------------------------------------------
      INIT:  cpu time      0.2064: real time      0.2065
  FINALIZE:  cpu time     20.5817: real time     20.6155
    --------------------------------------------
    POTLOK:  cpu time     28.6271: real time     28.6973
    SETDIJ:  cpu time      0.3466: real time      0.3473
    EDDIAG:  cpu time      8.2083: real time      8.2258
  RMM-DIIS:  cpu time     62.0918: real time     62.2249
    ORTHCH:  cpu time      0.1248: real time      0.1251
       DOS:  cpu time      0.0003: real time      0.0003
    CHARGE:  cpu time      4.8675: real time      4.8778
    MIXING:  cpu time      0.1639: real time      0.1641
    --------------------------------------------
      LOOP:  cpu time    104.4302: real time    104.6626

 eigenvalue-minimisations  :   278
 total energy-change (2. order) : 0.7936432E+00  ( 0.6698980E-02)
 number of electron      43.0000003 magnetization       7.1498959
 augmentation part        1.1135559 magnetization       6.2483367

 Broyden mixing:
  rms(total) = 0.33703E-01    rms(broyden)= 0.33702E-01
  rms(prec ) = 0.33743E-01
  weight for this iteration     100.00

 eigenvalues of (default mixing * dielectric matrix)
  average eigenvalue GAMMA=   1.9981
  8.7782  3.8768  2.3830  1.5682  1.5682  1.0657  1.0657  0.8335  0.8335  0.7384
  0.6332  0.6332

 Free energy of the ion-electron system (eV)
  ---------------------------------------------------
  alpha Z        PSCENC =         0.12465185
  Ewald energy   TEWEN  =      4316.03575867
  -Hartree energ DENC   =     -5199.10836410
  -exchange      EXHF   =         0.00000000
  -V(xc)+E(xc)   XCENC  =       168.35235982
  PAW double counting   =      3296.80158209    -3312.98243600
  entropy T*S    EENTRO =        -0.00000000
  eigenvalues    EBANDS =      -625.90007217
  atomic energy  EATOM  =      1334.72182766
  Solvation  Ecorr_sol  =      -100.49530862
  ---------------------------------------------------
  free energy    TOTEN  =      -122.45000080 eV

  energy without entropy =     -122.45000080  energy(sigma->0) =     -122.45000080


--------------------------------------------------------------------------------------------------------




--------------------------------------- Iteration      1(  14)  ---------------------------------------


    --------------------------------------------
      INIT:  cpu time      0.2025: real time      0.2026
  FINALIZE:  cpu time     33.1002: real time     33.1508
    --------------------------------------------
    POTLOK:  cpu time     41.1583: real time     41.2328
    SETDIJ:  cpu time      0.3456: real time      0.3463
    EDDIAG:  cpu time      8.2087: real time      8.2260
  RMM-DIIS:  cpu time     62.1954: real time     62.3278
    ORTHCH:  cpu time      0.1184: real time      0.1187
       DOS:  cpu time      0.0007: real time      0.0007
    CHARGE:  cpu time      4.8657: real time      4.8758
    MIXING:  cpu time      0.1736: real time      0.1738
    --------------------------------------------
      LOOP:  cpu time    117.0665: real time    117.3020

 eigenvalue-minimisations  :   278
 total energy-change (2. order) : 0.9904240E+00  ( 0.8007593E-02)
 number of electron      43.0000003 magnetization       6.3421761
 augmentation part        1.1136987 magnetization       5.4409810

 Broyden mixing:
  rms(total) = 0.28703E-01    rms(broyden)= 0.28702E-01
  rms(prec ) = 0.28834E-01
  weight for this iteration     100.00

 eigenvalues of (default mixing * dielectric matrix)
  average eigenvalue GAMMA=   2.0364
  9.3825  4.5118  2.6013  1.6624  1.3473  1.3473  1.1728  0.8455  0.8455  0.7485
  0.7485  0.6300  0.6300

 Free energy of the ion-electron system (eV)
  ---------------------------------------------------
  alpha Z        PSCENC =         0.12465185
  Ewald energy   TEWEN  =      4316.03575867
  -Hartree energ DENC   =     -5197.55638599
  -exchange      EXHF   =         0.00000000
  -V(xc)+E(xc)   XCENC  =       169.35538784
  PAW double counting   =      3308.70484298    -3324.88824303
  entropy T*S    EENTRO =        -0.00000000
  eigenvalues    EBANDS =      -626.08439437
  atomic energy  EATOM  =      1334.72182766
  Solvation  Ecorr_sol  =      -101.87302241
  ---------------------------------------------------
  free energy    TOTEN  =      -121.45957681 eV

  energy without entropy =     -121.45957681  energy(sigma->0) =     -121.45957681


--------------------------------------------------------------------------------------------------------




--------------------------------------- Iteration      1(  15)  ---------------------------------------


    --------------------------------------------
      INIT:  cpu time      0.2009: real time      0.2010
  FINALIZE:  cpu time     20.6212: real time     20.6544
    --------------------------------------------
    POTLOK:  cpu time     28.6754: real time     28.7312
    SETDIJ:  cpu time      0.3456: real time      0.3463
    EDDIAG:  cpu time      8.2057: real time      8.2242
  RMM-DIIS:  cpu time     62.2199: real time     62.3538
    ORTHCH:  cpu time      0.1200: real time      0.1202
       DOS:  cpu time      0.0003: real time      0.0003
    CHARGE:  cpu time      4.8839: real time      4.8940
    MIXING:  cpu time      0.1766: real time      0.1768
    --------------------------------------------
      LOOP:  cpu time    104.6274: real time    104.8467

 eigenvalue-minimisations  :   278
 total energy-change (2. order) : 0.4720907E+00  (-0.9231598E-03)
 number of electron      43.0000003 magnetization       5.5308620
 augmentation part        1.1127401 magnetization       4.6306696

 Broyden mixing:
  rms(total) = 0.23651E-01    rms(broyden)= 0.23650E-01
  rms(prec ) = 0.23710E-01
  weight for this iteration     100.00

 eigenvalues of (default mixing * dielectric matrix)
  average eigenvalue GAMMA=   2.0613
  9.8628  4.9605  2.6835  2.1353  1.4034  1.4034  1.0908  0.9320  0.9320  0.7630
  0.7630  0.6916  0.6184  0.6184

 Free energy of the ion-electron system (eV)
  ---------------------------------------------------
  alpha Z        PSCENC =         0.12465185
  Ewald energy   TEWEN  =      4316.03575867
  -Hartree energ DENC   =     -5196.54207937
  -exchange      EXHF   =         0.00000000
  -V(xc)+E(xc)   XCENC  =       169.80366943
  PAW double counting   =      3314.89375811    -3331.06559498
  entropy T*S    EENTRO =        -0.00000000
  eigenvalues    EBANDS =      -626.58809480
  atomic energy  EATOM  =      1334.72182766
  Solvation  Ecorr_sol  =      -102.37138267
  ---------------------------------------------------
  free energy    TOTEN  =      -120.98748610 eV

  energy without entropy =     -120.98748610  energy(sigma->0) =     -120.98748610


--------------------------------------------------------------------------------------------------------




--------------------------------------- Iteration      1(  16)  ---------------------------------------


    --------------------------------------------
      INIT:  cpu time      0.2028: real time      0.2029
  FINALIZE:  cpu time     21.6222: real time     21.6555
    --------------------------------------------
    POTLOK:  cpu time     29.6802: real time     29.7390
    SETDIJ:  cpu time      0.3458: real time      0.3465
    EDDIAG:  cpu time      8.2313: real time      8.2491
  RMM-DIIS:  cpu time     62.1804: real time     62.3144
    ORTHCH:  cpu time      0.1262: real time      0.1265
       DOS:  cpu time      0.0006: real time      0.0006
    CHARGE:  cpu time      4.8795: real time      4.8896
    MIXING:  cpu time      0.1862: real time      0.1864
    --------------------------------------------
      LOOP:  cpu time    105.6301: real time    105.8521

 eigenvalue-minimisations  :   278
 total energy-change (2. order) : 0.4844060E+00  (-0.2465637E-02)
 number of electron      43.0000003 magnetization       4.1841891
 augmentation part        1.1127345 magnetization       3.2852871

 Broyden mixing:
  rms(total) = 0.19756E-01    rms(broyden)= 0.19755E-01
  rms(prec ) = 0.19789E-01
  weight for this iteration     100.00

 eigenvalues of (default mixing * dielectric matrix)
  average eigenvalue GAMMA=   2.1672
 10.6109  5.8366  3.0741  2.4162  1.4694  1.4694  1.1868  1.0468  1.0468  0.8551
  0.7810  0.7810  0.6862  0.6242  0.6242

 Free energy of the ion-electron system (eV)
  ---------------------------------------------------
  alpha Z        PSCENC =         0.12465185
  Ewald energy   TEWEN  =      4316.03575867
  -Hartree energ DENC   =     -5195.71508217
  -exchange      EXHF   =         0.00000000
  -V(xc)+E(xc)   XCENC  =       170.24965987
  PAW double counting   =      3313.12833433    -3329.28849100
  entropy T*S    EENTRO =        -0.00000000
  eigenvalues    EBANDS =      -627.20166764
  atomic energy  EATOM  =      1334.72182766
  Solvation  Ecorr_sol  =      -102.55807168
  ---------------------------------------------------
  free energy    TOTEN  =      -120.50308011 eV

  energy without entropy =     -120.50308011  energy(sigma->0) =     -120.50308011


--------------------------------------------------------------------------------------------------------




--------------------------------------- Iteration      1(  17)  ---------------------------------------


    --------------------------------------------
      INIT:  cpu time      0.2013: real time      0.2014
  FINALIZE:  cpu time     22.7072: real time     22.7428
    --------------------------------------------
    POTLOK:  cpu time     30.7524: real time     30.8211
    SETDIJ:  cpu time      0.3468: real time      0.3475
    EDDIAG:  cpu time      8.2460: real time      8.2636
  RMM-DIIS:  cpu time     62.3406: real time     62.4742
    ORTHCH:  cpu time      0.1182: real time      0.1185
       DOS:  cpu time      0.0010: real time      0.0010
    CHARGE:  cpu time      4.8774: real time      4.8874
    MIXING:  cpu time      0.1913: real time      0.1915
    --------------------------------------------
      LOOP:  cpu time    106.8738: real time    107.1048

 eigenvalue-minimisations  :   278
 total energy-change (2. order) : 0.7833043E+00  ( 0.6664264E-03)
 number of electron      43.0000003 magnetization       3.2597909
 augmentation part        1.1124820 magnetization       2.3619844

 Broyden mixing:
  rms(total) = 0.18486E-01    rms(broyden)= 0.18485E-01
  rms(prec ) = 0.18610E-01
  weight for this iteration     100.00

 eigenvalues of (default mixing * dielectric matrix)
  average eigenvalue GAMMA=   2.1847
 11.0679  6.3189  3.2210  2.6371  1.6655  1.4229  1.4229  1.1139  0.9575  0.9575
  0.7621  0.7621  0.7013  0.6219  0.6616  0.6616

 Free energy of the ion-electron system (eV)
  ---------------------------------------------------
  alpha Z        PSCENC =         0.12465185
  Ewald energy   TEWEN  =      4316.03575867
  -Hartree energ DENC   =     -5195.24183615
  -exchange      EXHF   =         0.00000000
  -V(xc)+E(xc)   XCENC  =       171.00859608
  PAW double counting   =      3312.11394664    -3328.26721707
  entropy T*S    EENTRO =        -0.00000000
  eigenvalues    EBANDS =      -627.59046606
  atomic energy  EATOM  =      1334.72182766
  Solvation  Ecorr_sol  =      -102.62503748
  ---------------------------------------------------
  free energy    TOTEN  =      -119.71977585 eV

  energy without entropy =     -119.71977585  energy(sigma->0) =     -119.71977585


--------------------------------------------------------------------------------------------------------




--------------------------------------- Iteration      1(  18)  ---------------------------------------


    --------------------------------------------
      INIT:  cpu time      0.2092: real time      0.2093
  FINALIZE:  cpu time     20.5205: real time     20.5536
    --------------------------------------------
    POTLOK:  cpu time     28.6108: real time     28.6667
    SETDIJ:  cpu time      0.3545: real time      0.3552
    EDDIAG:  cpu time      8.2235: real time      8.2410
  RMM-DIIS:  cpu time     62.2813: real time     62.4127
    ORTHCH:  cpu time      0.1223: real time      0.1225
       DOS:  cpu time      0.0004: real time      0.0004
    CHARGE:  cpu time      4.8552: real time      4.8654
    MIXING:  cpu time      0.1936: real time      0.1937
    --------------------------------------------
      LOOP:  cpu time    104.6415: real time    104.8577

 eigenvalue-minimisations  :   278
[...]




--------------------------------------- Iteration     10(   5)  ---------------------------------------


    --------------------------------------------
      INIT:  cpu time      0.2069: real time      0.2070
  FINALIZE:  cpu time     21.6808: real time     21.7154
    --------------------------------------------
    POTLOK:  cpu time     29.8549: real time     29.9136
    SETDIJ:  cpu time      0.3473: real time      0.3481
    EDDIAG:  cpu time      8.2304: real time      8.2484
  RMM-DIIS:  cpu time     40.8068: real time     40.8944
    ORTHCH:  cpu time      0.1207: real time      0.1210
       DOS:  cpu time      0.0006: real time      0.0006
    --------------------------------------------
      LOOP:  cpu time     79.3606: real time     79.5260

 eigenvalue-minimisations  :   150
 total energy-change (2. order) :-0.6468595E-05  (-0.7763854E-06)
 number of electron      43.0000003 magnetization       0.9999875
 augmentation part        1.1124469 magnetization       0.1108341

 Free energy of the ion-electron system (eV)
  ---------------------------------------------------
  alpha Z        PSCENC =         0.12465185
  Ewald energy   TEWEN  =      4314.26271923
  -Hartree energ DENC   =     -5195.65380699
  -exchange      EXHF   =         0.00000000
  -V(xc)+E(xc)   XCENC  =       172.49734521
  PAW double counting   =      3311.85378854    -3328.01888448
  entropy T*S    EENTRO =        -0.00000000
  eigenvalues    EBANDS =      -626.61349391
  atomic energy  EATOM  =      1334.72182766
  Solvation  Ecorr_sol  =      -101.43482135
  ---------------------------------------------------
  free energy    TOTEN  =      -118.26067422 eV

  energy without entropy =     -118.26067422  energy(sigma->0) =     -118.26067422


--------------------------------------------------------------------------------------------------------




 average (electrostatic) potential at core
  the test charge radii are     0.6991  0.7089  0.5201
  (the norm of the test charge is              1.0000)
       1 -63.2742       2 -61.8322       3 -63.3497       4 -61.7016       5 -63.2675
       6 -61.7910       7 -80.2966       8 -45.2103       9 -45.2180      10 -45.1918
      11 -45.9930      12 -45.9913      13 -45.1863      14 -45.1415      15 -45.1446
      16 -46.1400      17 -46.0740      18 -45.1739      19 -45.1548      20 -45.1829
      21 -45.9669      22 -45.9876
 
 
 
 E-fermi :  -8.1000     XC(G=0):  -0.0297     alpha+bet : -0.0172

 Fermi energy:        -8.0999861241

 spin component 1

 k-point     1 :       0.0000    0.0000    0.0000
  band No.  band energies     occupation 
      1     -27.8849      1.00000
      2     -22.0013      1.00000
      3     -21.9387      1.00000
      4     -20.1457      1.00000
      5     -18.5789      1.00000
      6     -18.0027      1.00000
      7     -16.1745      1.00000
      8     -15.0292      1.00000
      9     -14.7301      1.00000
     10     -13.6248      1.00000
     11     -12.7786      1.00000
     12     -12.6096      1.00000
     13     -12.1028      1.00000
     14     -11.3440      1.00000
     15     -11.1372      1.00000
     16     -11.1144      1.00000
     17     -10.6916      1.00000
     18     -10.5541      1.00000
     19     -10.3658      1.00000
     20     -10.2150      1.00000
     21     -10.1295      1.00000
     22      -8.3526      1.00000
     23      -0.4138      0.00000
     24       0.0196      0.00000
     25       0.0394      0.00000
     26       0.0748      0.00000
     27       0.0923      0.00000
     28       0.1084      0.00000
     29       0.1086      0.00000
     30       0.1257      0.00000
     31       0.1285      0.00000
     32       0.1416      0.00000
     33       0.1618      0.00000
     34       0.1978      0.00000
     35       0.1981      0.00000
     36       0.1985      0.00000
     37       0.2024      0.00000
     38       0.2025      0.00000
     39       0.2026      0.00000
     40       0.2028      0.00000
     41       0.2029      0.00000
     42       0.2304      0.00000
     43       0.2405      0.00000
     44       0.2497      0.00000
     45       0.2615      0.00000
     46       0.2915      0.00000
     47       0.2925      0.00000
     48       0.2937      0.00000
 Fermi energy:        -8.0999861241

 spin component 2

 k-point     1 :       0.0000    0.0000    0.0000
  band No.  band energies     occupation 
      1     -26.9591      1.00000
      2     -21.9409      1.00000
      3     -21.8733      1.00000
      4     -19.8951      1.00000
      5     -18.4583      1.00000
      6     -17.9169      1.00000
      7     -15.9481      1.00000
      8     -14.6514      1.00000
      9     -14.4693      1.00000
     10     -13.1515      1.00000
     11     -12.6668      1.00000
     12     -12.4964      1.00000
     13     -11.8404      1.00000
     14     -11.2090      1.00000
     15     -11.0413      1.00000
     16     -11.0072      1.00000
     17     -10.6273      1.00000
     18     -10.4448      1.00000
     19     -10.2724      1.00000
     20     -10.1633      1.00000
     21     -10.0747      1.00000
     22      -5.7429      0.00000
     23      -0.3693      0.00000
     24       0.0191      0.00000
     25       0.0607      0.00000
     26       0.0841      0.00000
     27       0.0928      0.00000
     28       0.1075      0.00000
     29       0.1079      0.00000
     30       0.1281      0.00000
     31       0.1337      0.00000
     32       0.1494      0.00000
     33       0.1660      0.00000
     34       0.1964      0.00000
     35       0.1970      0.00000
     36       0.1974      0.00000
     37       0.2013      0.00000
     38       0.2017      0.00000
     39       0.2018      0.00000
     40       0.2021      0.00000
     41       0.2022      0.00000
     42       0.2376      0.00000
     43       0.2446      0.00000
     44       0.2539      0.00000
     45       0.2659      0.00000
     46       0.2909      0.00000
     47       0.2913      0.00000
     48       0.2920      0.00000


--------------------------------------------------------------------------------------------------------


 soft charge-density along one line, spin component           1
         0         1         2         3         4         5         6         7         8         9
 total charge-density along one line
 
 soft charge-density along one line, spin component           2
         0         1         2         3         4         5         6         7         8         9
 total charge-density along one line
 
 pseudopotential strength for first ion, spin component:           1
 10.578  14.069   0.001  -0.012   0.010  -0.003   0.025  -0.023
 14.069  18.710   0.001  -0.016   0.012  -0.003   0.032  -0.030
  0.001   0.001  -4.494  -0.001   0.002   8.725   0.001  -0.004
 -0.012  -0.016  -0.001  -4.471  -0.013   0.001   8.689   0.017
  0.010   0.012   0.002  -0.013  -4.462  -0.004   0.017   8.675
 -0.003  -0.003   8.725   0.001  -0.004 -19.214  -0.000   0.005
  0.025   0.032   0.001   8.689   0.017  -0.000 -19.166  -0.018
 -0.023  -0.030  -0.004   0.017   8.675   0.005  -0.018 -19.145
 pseudopotential strength for first ion, spin component:           2
 10.588  14.083   0.001  -0.014   0.010  -0.003   0.031  -0.025
 14.083  18.729   0.001  -0.018   0.014  -0.003   0.040  -0.032
  0.001   0.001  -4.498  -0.000   0.002   8.730   0.001  -0.004
 -0.014  -0.018  -0.000  -4.474  -0.010   0.001   8.693   0.018
  0.010   0.014   0.002  -0.010  -4.466  -0.004   0.018   8.680
 -0.003  -0.003   8.730   0.001  -0.004 -19.221  -0.001   0.005
  0.031   0.040   0.001   8.693   0.018  -0.001 -19.170  -0.026
 -0.025  -0.032  -0.004   0.018   8.680   0.005  -0.026 -19.151
 total augmentation occupancy for first ion, spin component:           1
  8.610  -3.915   0.026  -0.070   0.188   0.006  -0.039   0.045
 -3.915   1.832  -0.024   0.125  -0.184  -0.004   0.032  -0.031
  0.026  -0.024   1.746   0.003  -0.016   0.143  -0.001   0.001
 -0.070   0.125   0.003   1.569   0.096  -0.001   0.148  -0.008
  0.188  -0.184  -0.016   0.096   1.511   0.001  -0.008   0.147
  0.006  -0.004   0.143  -0.001   0.001   0.012  -0.000   0.000
 -0.039   0.032  -0.001   0.148  -0.008  -0.000   0.015  -0.003
  0.045  -0.031   0.001  -0.008   0.147   0.000  -0.003   0.016
 total augmentation occupancy for first ion, spin component:           2
 -0.031   0.010  -0.003   0.011  -0.024  -0.000   0.000  -0.003
  0.010  -0.003   0.002  -0.000   0.015   0.000   0.001   0.001
 -0.003   0.002  -0.005   0.002  -0.001   0.000   0.000   0.000
  0.011  -0.000   0.002  -0.012   0.026   0.000  -0.000   0.001
 -0.024   0.015  -0.001   0.026  -0.008   0.000   0.001  -0.000
 -0.000   0.000   0.000   0.000   0.000   0.000  -0.000   0.000
  0.000   0.001   0.000  -0.000   0.001  -0.000   0.000  -0.000
 -0.003   0.001   0.000   0.001  -0.000   0.000  -0.000   0.000


------------------------ aborting loop because EDIFF is reached ----------------------------------------


    CHARGE:  cpu time      1.1033: real time      1.1056
    FORLOC:  cpu time      0.3105: real time      0.3109
    FORNL :  cpu time      3.2750: real time      3.2820
    STRESS:  cpu time     85.2671: real time     85.4406
    FORCOR:  cpu time      6.1682: real time      6.1806
    FORHAR:  cpu time      0.7167: real time      0.7167
    MIXING:  cpu time      0.0835: real time      0.0837
    OFIELD:  cpu time      0.0001: real time      0.0001

 ---------------------------------------------------------------------------------------------

         DFTD3 V3.0 Rev 1        
 Edisp (eV)   -0.15667

 E6    (eV) :    -0.1262
 E8    (eV) :    -0.0304
 % E8        : 19.43
    FORVDW:  cpu time      0.0060: real time      0.0060

  FORCE on cell =-STRESS in cart. coord.  units (eV):
  Direction    XX          YY          ZZ          XY          YZ          ZX
  --------------------------------------------------------------------------------------
  Alpha Z     0.12465     0.12465     0.12465
  Ewald    1632.45091  1839.62190   842.19091   188.19149    72.62474  -229.52227
  Hartree  1946.09559  2079.09455  1271.95005   155.61664    61.61065  -152.74294
  E(xc)    -158.22134  -158.05536  -158.30215     0.03773    -0.02121    -0.05880
  Local   -3968.00754 -4299.69219 -2500.94629  -344.95641  -132.39209   371.81566
  n-local   -75.17850   -75.61405   -76.26453     0.57287    -0.13681     0.42601
  augment     0.23780     0.19199     0.19648     0.02329    -0.02591     0.07271
  Kinetic   621.98260   613.98758   620.46564     0.57350    -1.65436     9.99010
  Fock        0.00000     0.00000     0.00000     0.00000     0.00000     0.00000
  vdW        -0.05884    -0.06635    -0.01795    -0.00845    -0.00417     0.00805
  -------------------------------------------------------------------------------------
  Total      -0.57467    -0.40729    -0.60320     0.05066     0.00084    -0.01148
  in kB      -0.01439    -0.01020    -0.01510     0.00127     0.00002    -0.00029
  external pressure =       -0.01 kB  Pullay stress =        0.00 kB


 VOLUME and BASIS-vectors are now :
 -----------------------------------------------------------------------------
  energy-cutoff  :      500.00
  volume of cell :    64000.00
      direct lattice vectors                 reciprocal lattice vectors
    40.000000000  0.000000000  0.000000000     0.025000000  0.000000000  0.000000000
     0.000000000 40.000000000  0.000000000     0.000000000  0.025000000  0.000000000
     0.000000000  0.000000000 40.000000000     0.000000000  0.000000000  0.025000000

  length of vectors
    40.000000000 40.000000000 40.000000000     0.025000000  0.025000000  0.025000000


 FORCES acting on ions
    electron-ion (+dipol)            ewald-force                    non-local-force                 convergence-correction
 -----------------------------------------------------------------------------------------------
   0.952E+02 -.313E+01 -.168E+03   -.100E+03 0.255E+01 0.173E+03   0.501E+01 0.571E+00 -.499E+01   0.128E-02 0.231E-04 0.545E-03
   0.192E+03 0.734E+01 0.155E+02   -.195E+03 -.752E+01 -.165E+02   0.257E+01 0.175E+00 0.994E+00   0.201E-03 0.279E-03 -.638E-03
   -.829E+02 0.101E+03 0.134E+03   0.856E+02 -.107E+03 -.137E+03   -.271E+01 0.568E+01 0.274E+01   0.186E-03 0.130E-02 -.129E-02
   -.403E+02 0.186E+03 -.282E+02   0.404E+02 -.188E+03 0.294E+02   -.812E-01 0.216E+01 -.119E+01   0.244E-03 -.125E-02 0.667E-03
   -.180E+02 -.171E+03 0.967E+02   0.202E+02 0.177E+03 -.988E+02   -.206E+01 -.626E+01 0.200E+01   -.123E-02 0.141E-03 -.101E-02
   -.139E+03 -.114E+03 -.596E+02   0.141E+03 0.115E+03 0.610E+02   -.214E+01 -.985E+00 -.144E+01   0.122E-02 0.344E-03 0.275E-03
   -.134E+02 -.125E+02 0.771E+01   0.142E+02 0.123E+02 -.681E+01   -.700E+00 0.268E+00 -.919E+00   -.543E-03 -.874E-03 0.189E-02
   0.715E+02 0.449E+01 -.433E+02   -.758E+02 -.484E+01 0.474E+02   0.430E+01 0.343E+00 -.409E+01   -.312E-03 0.109E-04 0.157E-03
   0.415E+02 0.545E+02 0.387E+02   -.419E+02 -.594E+02 -.420E+02   0.377E+00 0.487E+01 0.332E+01   -.116E-03 -.210E-03 -.337E-03
   0.483E+02 -.507E+02 0.399E+02   -.496E+02 0.553E+02 -.434E+02   0.123E+01 -.466E+01 0.343E+01   -.748E-04 0.326E-03 -.329E-03
   0.561E+01 0.514E+02 -.709E+02   -.464E+01 -.562E+02 0.745E+02   -.972E+00 0.482E+01 -.360E+01   0.675E-04 0.225E-03 0.101E-04
   0.173E+02 -.561E+02 -.677E+02   -.173E+02 0.610E+02 0.713E+02   0.258E-03 -.492E+01 -.359E+01   0.987E-04 -.229E-03 -.857E-04
   0.515E+02 0.578E+02 -.131E+02   -.569E+02 -.598E+02 0.142E+02   0.545E+01 0.196E+01 -.104E+01   -.334E-03 -.265E-03 0.153E-03
   -.338E+02 0.697E+02 0.323E+02   0.364E+02 -.740E+02 -.355E+02   -.263E+01 0.423E+01 0.320E+01   0.227E-03 -.422E-03 -.171E-03
   -.423E+02 0.297E+02 -.618E+02   0.453E+02 -.295E+02 0.669E+02   -.293E+01 -.249E+00 -.510E+01   0.274E-03 -.871E-04 0.502E-03
   0.239E+02 0.217E+02 0.841E+02   -.268E+02 -.222E+02 -.891E+02   0.287E+01 0.472E+00 0.501E+01   -.117E-03 0.130E-03 -.458E-03
   -.794E+02 0.492E+01 0.390E+02   0.850E+02 -.361E+01 -.407E+02   -.563E+01 -.131E+01 0.166E+01   0.390E-03 0.118E-03 -.313E-03
   -.764E+02 0.181E+02 -.279E+01   0.810E+02 -.218E+02 0.220E+01   -.458E+01 0.367E+01 0.585E+00   0.482E-03 -.230E-03 -.151E-04
   -.967E+01 -.261E+02 -.741E+02   0.831E+01 0.264E+02 0.798E+02   0.135E+01 -.344E+00 -.575E+01   0.102E-03 0.296E-04 0.371E-03
   -.376E+02 -.732E+02 0.114E+02   0.395E+02 0.786E+02 -.131E+02   -.187E+01 -.538E+01 0.169E+01   0.243E-03 0.297E-03 -.130E-03
   -.213E+02 -.261E+02 0.839E+02   0.228E+02 0.261E+02 -.897E+02   -.157E+01 0.249E-01 0.588E+01   -.836E-04 0.538E-05 -.503E-03
   0.473E+02 -.748E+02 0.751E+01   -.518E+02 0.788E+02 -.688E+01   0.451E+01 -.402E+01 -.629E+00   -.375E-03 0.190E-03 -.147E-03
 -----------------------------------------------------------------------------------------------
   0.219E+00 -.111E+01 0.184E+01   -.171E-12 -.142E-13 0.266E-13   -.221E+00 0.112E+01 -.184E+01   0.183E-02 -.156E-03 -.859E-03
 
 
 POSITION                                       TOTAL-FORCE (eV/Angst)
 -----------------------------------------------------------------------------------
     18.99807     20.04840     20.85879        -0.013088     -0.008314      0.007497
     17.64081     19.91496     20.14671        -0.004016     -0.001998      0.003974
     20.60083     19.01653     19.18033        -0.008268     -0.012168     -0.001069
     20.55160     17.71063     19.94503         0.002756     -0.013510     -0.010608
     20.51175     21.48527     19.48770         0.008160      0.008626      0.007660
     21.71069     21.89408     20.35541        -0.005014      0.010454      0.002589
     20.05378     20.16726     19.87825         0.010840     -0.004798     -0.013192
     16.86688     19.85298     20.91077         0.001718     -0.001881      0.003112
     17.60253     19.01285     19.53648         0.006330      0.001242      0.003134
     17.44313     20.78286     19.51806         0.002917     -0.002839     -0.001901
     19.18956     19.17558     21.48263         0.004080      0.011096     -0.009458
     19.01828     20.94583     21.47765         0.003392      0.000480     -0.003751
     19.53164     17.37719     20.13493         0.004229     -0.000234      0.001430
     21.03965     16.94798     19.33891        -0.007142      0.006469      0.003293
     21.09058     17.78475     20.89017        -0.008903     -0.003505      0.002561
     20.03647     18.94483     18.23630         0.002296     -0.003275      0.007057
     21.62134     19.28526     18.89391         0.000978     -0.003117      0.001036
     22.53801     21.19536     20.23261        -0.000546      0.002680      0.001534
     21.43553     21.94360     21.40867        -0.002860     -0.000261     -0.005634
     22.03846     22.88123     20.03218        -0.002134      0.008002      0.003024
     20.79550     21.44790     18.43499         0.004050      0.003926     -0.002665
     19.68495     22.18471     19.61951         0.000225      0.002924      0.000377
 -----------------------------------------------------------------------------------
    total drift:                                0.000010      0.009588     -0.007792


--------------------------------------------------------------------------------------------------------



  FREE ENERGIE OF THE ION-ELECTRON SYSTEM (eV)
  ---------------------------------------------------
  free  energy   TOTEN  =      -118.41733930 eV

  energy  without entropy=     -118.41733930  energy(sigma->0) =     -118.41733930
 
 d Force = 0.8257211E-04[ 0.298E-04, 0.135E-03]  d Energy = 0.8512966E-04-0.256E-05
 d Force = 0.8915190E+00[ 0.891E+00, 0.892E+00]  d Ewald  = 0.8915189E+00 0.691E-08


--------------------------------------------------------------------------------------------------------


    --------------------------------------------
      INIT:  cpu time      0.1976: real time      0.1977
  FINALIZE:  cpu time     22.8462: real time     22.8801
    --------------------------------------------
    POTLOK:  cpu time     31.3855: real time     31.4371


--------------------------------------------------------------------------------------------------------


 Conjugate gradient step on ions:
 trial-energy change:   -0.000085  1 .order   -0.000083   -0.000135   -0.000030
  (g-gl).g = 0.173E-03      g.g   = 0.182E-03  gl.gl    = 0.227E-03
 g(Force)  = 0.182E-03   g(Stress)= 0.000E+00 ortho     = 0.576E-05
 gamma     =   0.76253
 trial     =   0.72460
 opt step  =   0.92931  (harmonic =   0.92931) maximal distance =0.00142707
 next E    =  -118.417341   (d E  =  -0.00009)


--------------------------------------------------------------------------------------------------------


  
 reached required accuracy - stopping structural energy minimisation
 writing wavefunctions
     LOOP+:  cpu time    596.8643: real time    598.8156
    4ORBIT:  cpu time      0.0000: real time      0.0000

 total amount of memory used by VASP MPI-rank0   893234. kBytes
=======================================================================

   base      :      30000. kBytes
   nonlr-proj:       2156. kBytes
   fftplans  :     167689. kBytes
   grid      :     662171. kBytes
   one-center:         18. kBytes
   wavefun   :      31200. kBytes
 
  
  
 General timing and accounting informations for this job:
 ========================================================
  
                  Total CPU time used (sec):     9212.229
                            User time (sec):     8707.960
                          System time (sec):      504.269
                         Elapsed time (sec):     9232.868
  
                   Maximum memory used (kb):     2510604.
                   Average memory used (kb):          N/A
  
                          Minor page faults:    111594232
                          Major page faults:            0
                 Voluntary context switches:       174631
