 vasp.6.3.2 27Jun22 (build Oct 25 2024 11:36:28) complex                        
  
 executed on             LinuxIFC date 2025.01.03  15:20:20
 running on   80 total cores
 distrk:  each k-point on   80 cores,    1 groups
 distr:  one band on NCORE=  10 cores,    8 groups


--------------------------------------------------------------------------------------------------------


 INCAR:
   SYSTEM = 103_red
   ISTART = 1
   ICHARG = 2
   INIWAV = 1
   METAGGA = R2SCAN
   LASPH = .TRUE.
   NELM = 100
   ALGO = fast   	
   ISPIN = 2
   EDIFF = 1E-05
   ISMEAR = 0
   SIGMA = 0.05
   PREC = accurate
   ENCUT = 500
   LREAL = auto  	
   LWAVE = .TRUE.
   LCHARG = .FALSE.
   LAECHG = .FALSE.
   LVHAR = .FALSE.
   LVTOT = .FALSE.
   EDIFFG = -0.02
   IBRION = 2
   NSW = 500
   ISIF = 2
   POTIM = 0.5
   IVDW = 12
   VDW_A1 = 0.49484001
   VDW_S8 = 0.78981345
   VDW_A2 = 5.73083694
   LPLANE = .TRUE.
   NCORE = 10
   LSCALU = .FALSE.
   NSIM = 4
   LSOL = .TRUE.
   ISOL = 2
   EPSILON_INF = 1.8069
   N_MOL = 0.0115
   P_MOL = 0.82
   R_SOLV = 2.1900
   EB_K = 35.6880
   NELECT = 25

 POTCAR:    PAW_PBE C 08Apr2002                   
 POTCAR:    PAW_PBE N 08Apr2002                   
 POTCAR:    PAW_PBE H 15Jun2001                   
 -----------------------------------------------------------------------------
|                                                                             |
|           W    W    AA    RRRRR   N    N  II  N    N   GGGG   !!!           |
|           W    W   A  A   R    R  NN   N  II  NN   N  G    G  !!!           |
|           W    W  A    A  R    R  N N  N  II  N N  N  G       !!!           |
|           W WW W  AAAAAA  RRRRR   N  N N  II  N  N N  G  GGG   !            |
|           WW  WW  A    A  R   R   N   NN  II  N   NN  G    G                |
|           W    W  A    A  R    R  N    N  II  N    N   GGGG   !!!           |
|                                                                             |
|     You use a magnetic or noncollinear calculation, but did not specify     |
|     the initial magnetic moment with the MAGMOM tag. Note that a            |
|     default of 1 will be used for all atoms. This ferromagnetic setup       |
|     may break the symmetry of the crystal, in particular it may rule        |
|     out finding an antiferromagnetic solution. Thence, we recommend         |
|     setting the initial magnetic moment manually or verifying carefully     |
|     that this magnetic setup is desired.                                    |
|                                                                             |
 -----------------------------------------------------------------------------

 POTCAR:    PAW_PBE C 08Apr2002                   
   SHA256 =  253f7b50bb8d59471dbedb8285d89021f4a42ed1a2c5d38a03a736e69125dd95 C/POTCAR              
   COPYR  = (c) Copyright 08Apr2002 Georg Kresse                                                    
   COPYR  = This file is part of the software VASP. Any use, copying, and all other rights are regul
   COPYR  = If you do not have a valid VASP license, you may not use, copy or distribute this file. 
   VRHFIN =C: s2p2                                                                                  
   LEXCH  = PE                                                                                      
   EATOM  =   147.1560 eV,   10.8157 Ry                                                             
                                                                                                    
   TITEL  = PAW_PBE C 08Apr2002                                                                     
   LULTRA =        F    use ultrasoft PP ?                                                          
   IUNSCR =        1    unscreen: 0-lin 1-nonlin 2-no                                               
   RPACOR =    1.200    partial core radius                                                         
   POMASS =   12.011; ZVAL   =    4.000    mass and valenz                                          
   RCORE  =    1.500    outmost cutoff radius                                                       
   RWIGS  =    1.630; RWIGS  =    0.863    wigner-seitz radius (au A)                               
   ENMAX  =  400.000; ENMIN  =  300.000 eV                                                          
   ICORE  =        2    local potential                                                             
   LCOR   =        T    correct aug charges                                                         
   LPAW   =        T    paw PP                                                                      
   EAUG   =  644.873                                                                                
   DEXC   =    0.000                                                                                
   RMAX   =    1.529    core radius for proj-oper                                                   
   RAUG   =    1.300    factor for augmentation sphere                                              
   RDEP   =    1.501    radius for radial grids                                                     
   RDEPT  =    1.300    core radius for aug-charge                                                  
                                                                                                    
   Atomic configuration                                                                             
    4 entries                                                                                       
     n  l   j            E        occ.                                                              
     1  0  0.50      -273.3789   2.0000                                                             
     2  0  0.50       -13.7508   2.0000                                                             
     2  1  0.50        -5.2854   2.0000                                                             
     3  2  1.50        -5.4423   0.0000                                                             
   Description                                                                                      
     l       E           TYP  RCUT    TYP  RCUT                                                     
     0    -13.7508458     23  1.200                                                                 
     0     -8.2022199     23  1.200                                                                 
     1     -5.2854383     23  1.500                                                                 
     1     34.0145650     23  1.500                                                                 
     2     -5.4423304      7  1.500                                                                 
  local pseudopotential read in
  partial core-charges read in
  partial kinetic energy density read in
  atomic valenz-charges read in
  non local Contribution for L=           0  read in
    real space projection operators read in
  non local Contribution for L=           0  read in
    real space projection operators read in
  non local Contribution for L=           1  read in
    real space projection operators read in
  non local Contribution for L=           1  read in
    real space projection operators read in
    PAW grid and wavefunctions read in
 
   number of l-projection  operators is LMAX  =           4
   number of lm-projection operators is LMMAX =           8
 
 POTCAR:    PAW_PBE N 08Apr2002                   
   SHA256 =  e053789ff3a61a86a1b75d8a110fcc91f86041011e7b0817c7c99e4e8a6349d7 N/POTCAR              
   COPYR  = (c) Copyright 08Apr2002 Georg Kresse                                                    
   COPYR  = This file is part of the software VASP. Any use, copying, and all other rights are regul
   COPYR  = If you do not have a valid VASP license, you may not use, copy or distribute this file. 
   VRHFIN =N: s2p3                                                                                  
   LEXCH  = PE                                                                                      
   EATOM  =   264.5486 eV,   19.4438 Ry                                                             
                                                                                                    
   TITEL  = PAW_PBE N 08Apr2002                                                                     
   LULTRA =        F    use ultrasoft PP ?                                                          
   IUNSCR =        1    unscreen: 0-lin 1-nonlin 2-no                                               
   RPACOR =    1.200    partial core radius                                                         
   POMASS =   14.001; ZVAL   =    5.000    mass and valenz                                          
   RCORE  =    1.500    outmost cutoff radius                                                       
   RWIGS  =    1.400; RWIGS  =    0.741    wigner-seitz radius (au A)                               
   ENMAX  =  400.000; ENMIN  =  300.000 eV                                                          
   ICORE  =        2    local potential                                                             
   LCOR   =        T    correct aug charges                                                         
   LPAW   =        T    paw PP                                                                      
   EAUG   =  627.112                                                                                
   DEXC   =    0.000                                                                                
   RMAX   =    1.529    core radius for proj-oper                                                   
   RAUG   =    1.300    factor for augmentation sphere                                              
   RDEP   =    1.514    radius for radial grids                                                     
   RDEPT  =    1.338    core radius for aug-charge                                                  
                                                                                                    
   Atomic configuration                                                                             
    4 entries                                                                                       
     n  l   j            E        occ.                                                              
     1  0  0.50      -384.7179   2.0000                                                             
     2  0  0.50       -18.5828   2.0000                                                             
     2  1  0.50        -7.0898   3.0000                                                             
     3  2  1.50        -6.8029   0.0000                                                             
   Description                                                                                      
     l       E           TYP  RCUT    TYP  RCUT                                                     
     0    -18.5828119     23  1.200                                                                 
     0    -13.5018863     23  1.200                                                                 
     1     -7.0897853     23  1.500                                                                 
     1      9.5240782     23  1.500                                                                 
     2     -6.8029130      7  1.500                                                                 
  local pseudopotential read in
  partial core-charges read in
  partial kinetic energy density read in
  atomic valenz-charges read in
  non local Contribution for L=           0  read in
    real space projection operators read in
  non local Contribution for L=           0  read in
    real space projection operators read in
  non local Contribution for L=           1  read in
    real space projection operators read in
  non local Contribution for L=           1  read in
    real space projection operators read in
    PAW grid and wavefunctions read in
 
   number of l-projection  operators is LMAX  =           4
   number of lm-projection operators is LMMAX =           8
 
 POTCAR:    PAW_PBE H 15Jun2001                   
   SHA256 =  030f79b5d3ab3cf0e668861823c8fb652ff669f3e15e46930bd03bfd63a607b6 H/POTCAR              
   COPYR  = (c) Copyright 15Jun2001 Georg Kresse                                                    
   COPYR  = This file is part of the software VASP. Any use, copying, and all other rights are regul
   COPYR  = If you do not have a valid VASP license, you may not use, copy or distribute this file. 
   VRHFIN =H: ultrasoft test                                                                        
   LEXCH  = PE                                                                                      
   EATOM  =    12.4884 eV,    0.9179 Ry                                                             
                                                                                                    
   TITEL  = PAW_PBE H 15Jun2001                                                                     
   LULTRA =        F    use ultrasoft PP ?                                                          
   IUNSCR =        0    unscreen: 0-lin 1-nonlin 2-no                                               
   RPACOR =    0.000    partial core radius                                                         
   POMASS =    1.000; ZVAL   =    1.000    mass and valenz                                          
   RCORE  =    1.100    outmost cutoff radius                                                       
   RWIGS  =    0.700; RWIGS  =    0.370    wigner-seitz radius (au A)                               
   ENMAX  =  250.000; ENMIN  =  200.000 eV                                                          
   RCLOC  =    0.701    cutoff for local pot                                                        
   LCOR   =        T    correct aug charges                                                         
   LPAW   =        T    paw PP                                                                      
   EAUG   =  400.000                                                                                
   RMAX   =    1.123    core radius for proj-oper                                                   
   RAUG   =    1.200    factor for augmentation sphere                                              
   RDEP   =    1.112    radius for radial grids                                                     
   RDEPT  =    0.926    core radius for aug-charge                                                  
                                                                                                    
   Atomic configuration                                                                             
    2 entries                                                                                       
     n  l   j            E        occ.                                                              
     1  0  0.50        -6.4927   1.0000                                                             
     2  1  0.50        -3.4015   0.0000                                                             
   Description                                                                                      
     l       E           TYP  RCUT    TYP  RCUT                                                     
     0     -6.4927494     23  1.100                                                                 
     0      6.8029130     23  1.100                                                                 
     1     -4.0817478     23  1.100                                                                 
  local pseudopotential read in
  atomic valenz-charges read in
  non local Contribution for L=           0  read in
    real space projection operators read in
  non local Contribution for L=           0  read in
    real space projection operators read in
  non local Contribution for L=           1  read in
    real space projection operators read in
    PAW grid and wavefunctions read in
 
   number of l-projection  operators is LMAX  =           3
   number of lm-projection operators is LMMAX =           5
 
 Optimization of the real space projectors (new method)

 maximal supplied QI-value         = 25.13
 optimisation between [QCUT,QGAM] = [ 11.31, 22.87] = [ 35.82,146.48] Ry 
 Optimized for a Real-space Cutoff    1.03 Angstroem

   l    n(q)    QCUT    max X(q) W(low)/X(q) W(high)/X(q)  e(spline) 
   0      7    11.310   115.676    0.20E-03    0.90E-03    0.20E-06
   0      7    11.310    87.132    0.20E-03    0.89E-03    0.19E-06
   1      6    11.310     4.429    0.16E-03    0.28E-03    0.12E-06
   1      6    11.310     2.733    0.12E-03    0.21E-03    0.99E-07
 Optimization of the real space projectors (new method)

 maximal supplied QI-value         = 25.13
 optimisation between [QCUT,QGAM] = [ 11.31, 22.87] = [ 35.82,146.48] Ry 
 Optimized for a Real-space Cutoff    1.43 Angstroem

   l    n(q)    QCUT    max X(q) W(low)/X(q) W(high)/X(q)  e(spline) 
   0     10    11.310    79.467    0.42E-04    0.81E-04    0.60E-06
   0     10    11.310    66.151    0.40E-04    0.81E-04    0.60E-06
   1      9    11.310    17.416    0.14E-03    0.88E-04    0.14E-05
   1      9    11.310    12.382    0.15E-03    0.93E-04    0.14E-05
 Optimization of the real space projectors (new method)

 maximal supplied QI-value         = 34.20
 optimisation between [QCUT,QGAM] = [ 11.29, 22.57] = [ 35.68,142.71] Ry 
 Optimized for a Real-space Cutoff    1.20 Angstroem

   l    n(q)    QCUT    max X(q) W(low)/X(q) W(high)/X(q)  e(spline) 
   0      8    11.287    19.460    0.22E-03    0.50E-03    0.19E-06
   0      8    11.287    12.209    0.21E-03    0.48E-03    0.18E-06
   1      8    11.287     4.655    0.21E-03    0.11E-04    0.26E-06
  PAW_PBE C 08Apr2002                   :
 energy of atom  1       EATOM= -147.1560
 kinetic energy error for atom=    0.0076 (will be added to EATOM!!)
  PAW_PBE N 08Apr2002                   :
 energy of atom  2       EATOM= -264.5486
 kinetic energy error for atom=    0.0138 (will be added to EATOM!!)
  PAW_PBE H 15Jun2001                   :
 energy of atom  3       EATOM=  -12.4884
 kinetic energy error for atom=    0.0020 (will be added to EATOM!!)
 
 
 POSCAR: C N H
  positions in direct lattice
  velocities in cartesian coordinates

 METAGGA = R2SCA    LMAXTAU =  6    LMIXTAU =  F

 exchange correlation table for  LEXCH =        8
   RHO(1)=    0.500       N(1)  =     2000
   RHO(2)=  100.500       N(2)  =     4000
 
 POSCAR: C N H
  positions in direct lattice
  velocities in cartesian coordinates
 
 POSCAR: C N H
  positions in direct lattice
  velocities in cartesian coordinates
 


--------------------------------------------------------------------------------------------------------


 ion  position               nearest neighbor table
   1  0.504  0.526  0.500-   9 1.07   5 1.34   2 1.46
   2  0.525  0.495  0.500-   8 1.10   3 1.35   1 1.46
   3  0.503  0.469  0.500-   7 1.10   2 1.35   4 1.36
   4  0.471  0.479  0.500-   3 1.36   5 1.40
   5  0.473  0.514  0.500-   6 0.99   1 1.34   4 1.40
   6  0.452  0.527  0.500-   5 0.99
   7  0.508  0.442  0.500-   3 1.10
   8  0.553  0.496  0.500-   2 1.10
   9  0.510  0.552  0.500-   1 1.07
 
  LATTYP: Found a simple cubic cell.
 ALAT       =    40.0000000000
  
  Lattice vectors:
  
 A1 = (  40.0000000000,   0.0000000000,   0.0000000000)
 A2 = (   0.0000000000,  40.0000000000,   0.0000000000)
 A3 = (   0.0000000000,   0.0000000000,  40.0000000000)


Analysis of symmetry for initial positions (statically):
=====================================================================
 Subroutine PRICEL returns:
 Original cell was already a primitive cell.
 

 Routine SETGRP: Setting up the symmetry group for a 
 simple cubic supercell.


 Subroutine GETGRP returns: Found  2 space group operations
 (whereof  2 operations were pure point group operations)
 out of a pool of 48 trial point group operations.


The static configuration has the point symmetry C_1h.


Analysis of symmetry for dynamics (positions and initial velocities):
=====================================================================
 Subroutine PRICEL returns:
 Original cell was already a primitive cell.
 

 Routine SETGRP: Setting up the symmetry group for a 
 simple cubic supercell.


 Subroutine GETGRP returns: Found  2 space group operations
 (whereof  2 operations were pure point group operations)
 out of a pool of 48 trial point group operations.


The dynamic configuration has the point symmetry C_1h.


Analysis of constrained symmetry for selective dynamics:
=====================================================================
 Subroutine PRICEL returns:
 Original cell was already a primitive cell.
 

 Routine SETGRP: Setting up the symmetry group for a 
 simple cubic supercell.


 Subroutine GETGRP returns: Found  2 space group operations
 (whereof  2 operations were pure point group operations)
 out of a pool of 48 trial point group operations.


The constrained configuration has the point symmetry C_1h.


Analysis of structural, dynamic, and magnetic symmetry:
=====================================================================
 Subroutine PRICEL returns:
 Original cell was already a primitive cell.
 

 Routine SETGRP: Setting up the symmetry group for a 
 simple cubic supercell.


 Subroutine GETGRP returns: Found  2 space group operations
 (whereof  2 operations were pure point group operations)
 out of a pool of 48 trial point group operations.


The overall configuration has the point symmetry C_1h.


 Subroutine INISYM returns: Found  2 space group operations
 (whereof  2 operations are pure point group operations),
 and found     1 'primitive' translations


----------------------------------------------------------------------------------------

                                     Primitive cell                                     

  volume of cell :   64000.0000

  direct lattice vectors                    reciprocal lattice vectors
    40.000000000  0.000000000  0.000000000     0.025000000  0.000000000  0.000000000
     0.000000000 40.000000000  0.000000000     0.000000000  0.025000000  0.000000000
     0.000000000  0.000000000 40.000000000     0.000000000  0.000000000  0.025000000

  length of vectors
    40.000000000 40.000000000 40.000000000     0.025000000  0.025000000  0.025000000

  position of ions in fractional coordinates (direct lattice)
     0.504422944  0.525592359  0.500001000
     0.525031594  0.495377421  0.500000000
     0.503461408  0.469303224  0.500001000
     0.470933576  0.479003427  0.499999000
     0.472960068  0.513869789  0.499999000
     0.452002591  0.527134374  0.499999000
     0.508365561  0.442231276  0.500001000
     0.552510543  0.495865586  0.500000000
     0.510310715  0.551621545  0.500001000

  ion indices of the primitive-cell ions
   primitive index   ion index
                 1           1
                 2           2
                 3           3
                 4           4
                 5           5
                 6           6
                 7           7
                 8           8
                 9           9

----------------------------------------------------------------------------------------

 
 
 KPOINTS: K-Point Grid                            

Automatic generation of k-mesh.
 Grid dimensions read from file:
 generate k-points for:    1    1    1

 Generating k-lattice:

  Cartesian coordinates                     Fractional coordinates (reciprocal lattice)
     0.025000000  0.000000000  0.000000000     1.000000000  0.000000000  0.000000000
     0.000000000  0.025000000  0.000000000     0.000000000  1.000000000  0.000000000
     0.000000000  0.000000000  0.025000000     0.000000000  0.000000000  1.000000000

  Length of vectors
     0.025000000  0.025000000  0.025000000

  Shift w.r.t. Gamma in fractional coordinates (k-lattice)
     0.000000000  0.000000000  0.000000000

 
 Subroutine IBZKPT returns following result:
 ===========================================
 
 Found      1 irreducible k-points:
 
 Following reciprocal coordinates:
            Coordinates               Weight
  0.000000  0.000000  0.000000      1.000000
 
 Following cartesian coordinates:
            Coordinates               Weight
  0.000000  0.000000  0.000000      1.000000
 


--------------------------------------------------------------------------------------------------------




 Dimension of arrays:
   k-points           NKPTS =      1   k-points in BZ     NKDIM =      1   number of bands    NBANDS=     24
   number of dos      NEDOS =    301   number of ions     NIONS =      9
   non local maximal  LDIM  =      4   non local SUM 2l+1 LMDIM =      8
   total plane-waves  NPLWV = ******
   max r-space proj   IRMAX =   4928   max aug-charges    IRDMAX=   5085
   dimension x,y,z NGX =   294 NGY =  294 NGZ =  294
   dimension x,y,z NGXF=   588 NGYF=  588 NGZF=  588
   support grid    NGXF=   588 NGYF=  588 NGZF=  588
   ions per type =               3   2   4
   NGX,Y,Z   is equivalent  to a cutoff of  12.22, 12.22, 12.22 a.u.
   NGXF,Y,Z  is equivalent  to a cutoff of  24.44, 24.44, 24.44 a.u.

 SYSTEM =  103_red                                 
 POSCAR =  C N H                                   

 Startparameter for this run:
   NWRITE =      2    write-flag & timer
   PREC   = accura    normal or accurate (medium, high low for compatibility)
   ISTART =      1    job   : 0-new  1-cont  2-samecut
   ICHARG =      2    charge: 1-file 2-atom 10-const
   ISPIN  =      2    spin polarized calculation?
   LNONCOLLINEAR =      F non collinear calculations
   LSORBIT =      F    spin-orbit coupling
   INIWAV =      1    electr: 0-lowe 1-rand  2-diag
   LASPH  =      T    aspherical Exc in radial PAW
 Electronic Relaxation 1
   ENCUT  =  500.0 eV  36.75 Ry    6.06 a.u.  72.93 72.93 72.93*2*pi/ulx,y,z
   ENINI  =  500.0     initial cutoff
   ENAUG  =  644.9 eV  augmentation charge cutoff
   NELM   =    100;   NELMIN=  2; NELMDL=  0     # of ELM steps 
   EDIFF  = 0.1E-04   stopping-criterion for ELM
   LREAL  =      T    real-space projection
   NLSPLINE    = F    spline interpolate recip. space projectors
   LCOMPAT=      F    compatible to vasp.4.4
   GGA_COMPAT  = T    GGA compatible to vasp.4.4-vasp.4.6
   LMAXPAW     = -100 max onsite density
   LMAXMIX     =    2 max onsite mixed and CHGCAR
   VOSKOWN=      0    Vosko Wilk Nusair interpolation
   ROPT   =   -0.00025  -0.00025  -0.00025
 Ionic relaxation
   EDIFFG = -.2E-01   stopping-criterion for IOM
   NSW    =    500    number of steps for IOM
   NBLOCK =      1;   KBLOCK =    500    inner block; outer block 
   IBRION =      2    ionic relax: 0-MD 1-quasi-New 2-CG
   NFREE  =      1    steps in history (QN), initial steepest desc. (CG)
   ISIF   =      2    stress and relaxation
   IWAVPR =     11    prediction:  0-non 1-charg 2-wave 3-comb
   ISYM   =      2    0-nonsym 1-usesym 2-fastsym
   LCORR  =      T    Harris-Foulkes like correction to forces

   POTIM  = 0.5000    time-step for ionic-motion
   TEIN   =    0.0    initial temperature
   TEBEG  =    0.0;   TEEND  =   0.0 temperature during run
   SMASS  =  -3.00    Nose mass-parameter (am)
   estimated Nose-frequenzy (Omega)   =  0.10E-29 period in steps = 0.13E+47 mass=  -0.366E-25a.u.
   SCALEE = 1.0000    scale energy and forces
   NPACO  =    256;   APACO  = 10.0  distance and # of slots for P.C.
   PSTRESS=    0.0 pullay stress

  Mass of Ions in am
   POMASS =  12.01 14.00  1.00
  Ionic Valenz
   ZVAL   =   4.00  5.00  1.00
  Atomic Wigner-Seitz radii
   RWIGS  =  -1.00 -1.00 -1.00
  virtual crystal weights 
   VCA    =   1.00  1.00  1.00
   NELECT =      25.0000    total number of electrons
   NUPDOWN=      -1.0000    fix difference up-down

 DOS related values:
   EMIN   =  10.00;   EMAX   =-10.00  energy-range for DOS
   EFERMI =   0.00
   ISMEAR =     0;   SIGMA  =   0.05  broadening in eV -4-tet -1-fermi 0-gaus

 Electronic relaxation 2 (details)
   IALGO  =     68    algorithm
   LDIAG  =      T    sub-space diagonalisation (order eigenvalues)
   LSUBROT=      F    optimize rotation matrix (better conditioning)
   TURBO    =      0    0=normal 1=particle mesh
   IRESTART =      0    0=no restart 2=restart with 2 vectors
   NREBOOT  =      0    no. of reboots
   NMIN     =      0    reboot dimension
   EREF     =   0.00    reference energy to select bands
   IMIX   =      4    mixing-type and parameters
     AMIX     =   0.40;   BMIX     =  1.00
     AMIX_MAG =   1.60;   BMIX_MAG =  1.00
     AMIN     =   0.10
     WC   =   100.;   INIMIX=   1;  MIXPRE=   1;  MAXMIX= -45

 Intra band minimization:
   WEIMIN = 0.0010     energy-eigenvalue tresh-hold
   EBREAK =  0.10E-06  absolut break condition
   DEPER  =   0.30     relativ break condition  

   TIME   =   0.40     timestep for ELM

  volume/ion in A,a.u.               =    7111.11     47988.15
  Fermi-wavevector in a.u.,A,eV,Ry     =   0.119673  0.226148  0.194856  0.014322
  Thomas-Fermi vector in A             =   0.737652
 
 Write flags
   LWAVE        =      T    write WAVECAR
   LDOWNSAMPLE  =      F    k-point downsampling of WAVECAR
   LCHARG       =      F    write CHGCAR
   LVTOT        =      F    write LOCPOT, total local potential
   LVHAR        =      F    write LOCPOT, Hartree potential only
   LELF         =      F    write electronic localiz. function (ELF)
   LORBIT       =      0    0 simple, 1 ext, 2 COOP (PROOUT), +10 PAW based schemes


 Dipole corrections
   LMONO  =      F    monopole corrections only (constant potential shift)
   LDIPOL =      F    correct potential (dipole corrections)
   IDIPOL =      0    1-x, 2-y, 3-z, 4-all directions 
   EPSILON=  1.0000000 bulk dielectric constant

 Exchange correlation treatment:
   GGA     =    --    GGA type
   LEXCH   =     8    internal setting for exchange type
   LIBXC   =     F    Libxc                    
   VOSKOWN =     0    Vosko Wilk Nusair interpolation
   LHFCALC =     F    Hartree Fock is set to
   LHFONE  =     F    Hartree Fock one center treatment
   AEXX    =    0.0000 exact exchange contribution

 Linear response parameters
   LEPSILON=     F    determine dielectric tensor
   LRPA    =     F    only Hartree local field effects (RPA)
   LNABLA  =     F    use nabla operator in PAW spheres
   LVEL    =     F    velocity operator in full k-point grid
   CSHIFT  =0.1000    complex shift for real part using Kramers Kronig
   OMEGAMAX=  -1.0    maximum frequency
   DEG_THRESHOLD= 0.2000000E-02 threshold for treating states as degnerate
   RTIME   =   -0.100 relaxation time in fs
  (WPLASMAI=    0.000 imaginary part of plasma frequency in eV, 0.658/RTIME)
   DFIELD  = 0.0000000 0.0000000 0.0000000 field for delta impulse in time
 
  Optional k-point grid parameters
   LKPOINTS_OPT  =     F    use optional k-point grid
   KPOINTS_OPT_MODE=     1    mode for optional k-point grid
 
 Orbital magnetization related:
   ORBITALMAG=     F  switch on orbital magnetization
   LCHIMAG   =     F  perturbation theory with respect to B field
   DQ        =  0.001000  dq finite difference perturbation B field
   LLRAUG    =     F  two centre corrections for induced B field

 Solvation model:
   LSOL             =     T         switch on solvation model
   LSOL_SCF         =     T         include solvation in SCF
   ISOL             =     2         solvation model type
   EFERMI_ref       =  0.000000         reference Fermi level
   capacitance_init =  1.000000         initial capacitance
 Nonlinear solvation model:
   LNLDIEL     =     T         switch on non-linear dielectric mode
   LNLION      =     T         switch on non-linear ionic mode
   LNLTEST     =     F         test non-linear model in linear regime
   I_NLOC_SOL  =     1         type of nonlocal dielectric response
   NC_K        =  0.015000     cutoff charge density for cavities (1/Angstrom**3)
   TAU         =  0.000879     cavity formation energy (eV/Angstrom**2)
   SIGMA_K     =  0.600000     cavity width
   A_K         =  0.125000     smoothing length (Angstrom)
   R_SOLV      =  2.190000     solvent radius (Angstrom)
   R_CAV       =  0.000000     cavity radius (Angstrom)
   R_DIEL      =  1.000000     dielectric radius (Angstrom)
   R_ION       =  0.000000     ionic radius (Angstrom)
   R_B         =  0.000000     bound charge radius (Angstrom)
   SOLTEMP     =298.000000     solvent temperature (K)
   EB_K        = 35.688000     relative permittivity of the bulk solvent
   EPSILON_INF =  1.806900     optical relative permittivity of bulk solvent
   N_MOL       =  0.011500     molar density of solvent (1/Angstrom**3)
   P_MOL       =  0.820000     solvent dipole moment (e*Angstrom)
   C_MOLAR     =  0.000000     electrolyte concentration (mol/L)
   LAMBDA_D_K  =  0.000000     Debye length (Angstrom)
   ZION        =  1.000000     charge of ions in electrolyte (e)
   D_ION       = -1.000000     minimum ion packing diameter (Angstrom)



--------------------------------------------------------------------------------------------------------


 conjugate gradient relaxation of ions
   using selective dynamics as specified on POSCAR
 charge density and potential will be updated during run
 spin polarized calculation
 RMM-DIIS sequential band-by-band and
  variant of blocked Davidson during initial phase
 perform sub-space diagonalisation
    before iterative eigenvector-optimisation
 modified Broyden-mixing scheme, WC =      100.0
 initial mixing is a Kerker type mixing with AMIX =  0.4000 and BMIX =      1.0000
 Hartree-type preconditioning will be used
 using additional bands           11
 real space projection scheme for non local part
 use partial core corrections
 calculate Harris-corrections to forces 
   (improved forces if not selfconsistent)
 use gradient corrections 
 use of overlap-Matrix (Vanderbilt PP)
 Gauss-broadening in eV      SIGMA  =   0.05


--------------------------------------------------------------------------------------------------------


  energy-cutoff  :      500.00
  volume of cell :    64000.00
      direct lattice vectors                 reciprocal lattice vectors
    40.000000000  0.000000000  0.000000000     0.025000000  0.000000000  0.000000000
     0.000000000 40.000000000  0.000000000     0.000000000  0.025000000  0.000000000
     0.000000000  0.000000000 40.000000000     0.000000000  0.000000000  0.025000000

  length of vectors
    40.000000000 40.000000000 40.000000000     0.025000000  0.025000000  0.025000000


 
 old parameters found on file WAVECAR:
  energy-cutoff  :      500.00
  volume of cell :    64000.00
      direct lattice vectors                 reciprocal lattice vectors
    40.000000000  0.000000000  0.000000000     0.025000000  0.000000000  0.000000000
     0.000000000 40.000000000  0.000000000     0.000000000  0.025000000  0.000000000
     0.000000000  0.000000000 40.000000000     0.000000000  0.000000000  0.025000000

  length of vectors

 
 k-points in units of 2pi/SCALE and weight: K-Point Grid                            
   0.00000000  0.00000000  0.00000000       1.000
 
 k-points in reciprocal lattice and weights: K-Point Grid                            
   0.00000000  0.00000000  0.00000000       1.000
 
 position of ions in fractional coordinates (direct lattice) 
   0.50442294  0.52559236  0.50000100
   0.52503159  0.49537742  0.50000000
   0.50346141  0.46930322  0.50000100
   0.47093358  0.47900343  0.49999900
   0.47296007  0.51386979  0.49999900
   0.45200259  0.52713437  0.49999900
   0.50836556  0.44223128  0.50000100
   0.55251054  0.49586559  0.50000000
   0.51031071  0.55162154  0.50000100
 
 position of ions in cartesian coordinates  (Angst):
  20.17691776 21.02369435 20.00004000
  21.00126376 19.81509684 20.00000000
  20.13845632 18.77212897 20.00004000
  18.83734305 19.16013708 19.99996000
  18.91840273 20.55479156 19.99996000
  18.08010364 21.08537494 19.99996000
  20.33462243 17.68925103 20.00004000
  22.10042171 19.83462343 20.00000000
  20.41242860 22.06486180 20.00004000
 


--------------------------------------------------------------------------------------------------------


 k-point   1 :   0.0000 0.0000 0.0000  plane waves: 1624525

 maximum and minimum number of plane-waves per node :    162473   162437

 maximum number of plane-waves:   1624525
 maximum index in each direction: 
   IXMAX=   72   IYMAX=   72   IZMAX=   72
   IXMIN=  -72   IYMIN=  -72   IZMIN=  -72


 real space projection operators:
  total allocation   :       1365.38 KBytes
  max/ min on nodes  :        145.42        126.93


 parallel 3D FFT for wavefunctions:
    minimum data exchange during FFTs selected (reduces bandwidth)
 parallel 3D FFT for charge:
    minimum data exchange during FFTs selected (reduces bandwidth)


 total amount of memory used by VASP MPI-rank0   876375. kBytes
=======================================================================

   base      :      30000. kBytes
   nonlr-proj:        911. kBytes
   fftplans  :     167689. kBytes
   grid      :     662171. kBytes
   one-center:          6. kBytes
   wavefun   :      15598. kBytes
 
     INWAV:  cpu time      4.5452: real time      4.5555
 Broyden mixing: mesh for mixing (old mesh)
   NGX =145   NGY =145   NGZ =145
  (NGX  =588   NGY  =588   NGZ  =588)
  gives a total of ****** points

 initial charge density was supplied:
 charge density of overlapping atoms calculated
 number of electron      26.0000000 magnetization       9.0000000
 keeping initial charge density in first step


--------------------------------------------------------------------------------------------------------


 Maximum index for non-local projection operator          453
 Maximum index for augmentation-charges          106 (set IRDMAX)


--------------------------------------------------------------------------------------------------------


 First call to EWALD:  gamma=   0.044
 Maximum number of real-space cells 3x 3x 3
 Maximum number of reciprocal cells 3x 3x 3

    FEWALD:  cpu time      0.0019: real time      0.0019


--------------------------------------- Iteration      1(   1)  ---------------------------------------


    POTLOK:  cpu time      9.8167: real time      9.8326
    SETDIJ:  cpu time      0.4191: real time      0.4199
     EDDAV:  cpu time     28.2498: real time     28.3401
       DOS:  cpu time      0.0010: real time      0.0010
    CHARGE:  cpu time     47.8571: real time     47.9782
    MIXING:  cpu time      0.2347: real time      0.2351
    --------------------------------------------
      LOOP:  cpu time     86.5784: real time     86.8068

 eigenvalue-minimisations  :   128
 total energy-change (2. order) :-0.5269741E+02  (-0.2419506E+01)
 number of electron      25.0000000 magnetization       8.6917777
 augmentation part        0.7470703 magnetization       7.7897053

 Broyden mixing:
  rms(total) = 0.18191E+01    rms(broyden)= 0.18185E+01
  rms(prec ) = 0.18313E+01
  weight for this iteration     100.00

 Free energy of the ion-electron system (eV)
  ---------------------------------------------------
  alpha Z        PSCENC =         0.04649657
  Ewald energy   TEWEN  =      1935.37381572
  -Hartree energ DENC   =     -2647.93429518
  -exchange      EXHF   =         0.00000000
  -V(xc)+E(xc)   XCENC  =       105.26276045
  PAW double counting   =       725.53671854     -737.29404156
  entropy T*S    EENTRO =        -0.00000000
  eigenvalues    EBANDS =      -454.14954313
  atomic energy  EATOM  =      1020.46068345
  Solvation  Ecorr_sol  =         0.00000000
  ---------------------------------------------------
  free energy    TOTEN  =       -52.69740513 eV

  energy without entropy =      -52.69740513  energy(sigma->0) =      -52.69740513


--------------------------------------------------------------------------------------------------------




--------------------------------------- Iteration      1(   2)  ---------------------------------------


    --------------------------------------------
      INIT:  cpu time      0.2583: real time      0.2585
  FINALIZE:  cpu time     23.9461: real time     23.9915
    --------------------------------------------
    POTLOK:  cpu time     34.0480: real time     34.1365
    SETDIJ:  cpu time      0.4180: real time      0.4188
    EDDIAG:  cpu time      5.7510: real time      5.7632
  RMM-DIIS:  cpu time     33.1015: real time     33.1742
    ORTHCH:  cpu time      0.0696: real time      0.0698
       DOS:  cpu time      0.0013: real time      0.0013
    CHARGE:  cpu time     49.0502: real time     49.1893
    MIXING:  cpu time      0.1915: real time      0.1916
    --------------------------------------------
      LOOP:  cpu time    122.6311: real time    122.9446

 eigenvalue-minimisations  :    97
 total energy-change (2. order) : 0.2173802E+01  (-0.2313228E+01)
 number of electron      25.0000000 magnetization       8.3792355
 augmentation part        0.7655834 magnetization       7.4413126

 Broyden mixing:
  rms(total) = 0.87135E+00    rms(broyden)= 0.87121E+00
  rms(prec ) = 0.88245E+00
  weight for this iteration     100.00

 eigenvalues of (default mixing * dielectric matrix)
  average eigenvalue GAMMA=   0.9122
  0.9122

 Free energy of the ion-electron system (eV)
  ---------------------------------------------------
  alpha Z        PSCENC =         0.04649657
  Ewald energy   TEWEN  =      1935.37381572
  -Hartree energ DENC   =     -2664.27619229
  -exchange      EXHF   =         0.00000000
  -V(xc)+E(xc)   XCENC  =       109.64226878
  PAW double counting   =      1194.41366275    -1206.50290664
  entropy T*S    EENTRO =        -0.00000000
  eigenvalues    EBANDS =      -431.26117139
  atomic energy  EATOM  =      1020.46068345
  Solvation  Ecorr_sol  =        -8.42025994
  ---------------------------------------------------
  free energy    TOTEN  =       -50.52360300 eV

  energy without entropy =      -50.52360300  energy(sigma->0) =      -50.52360300


--------------------------------------------------------------------------------------------------------




--------------------------------------- Iteration      1(   3)  ---------------------------------------


    --------------------------------------------
      INIT:  cpu time      0.2605: real time      0.2597
  FINALIZE:  cpu time     28.0865: real time     28.0962
    --------------------------------------------
    POTLOK:  cpu time     38.2314: real time     38.2712
    SETDIJ:  cpu time      0.4183: real time      0.4191
    EDDIAG:  cpu time      5.7512: real time      5.7635
  RMM-DIIS:  cpu time     33.8076: real time     33.8791
    ORTHCH:  cpu time      0.0633: real time      0.0635
       DOS:  cpu time      0.0017: real time      0.0017
    CHARGE:  cpu time     49.0943: real time     49.2206
    MIXING:  cpu time      0.2012: real time      0.2007
    --------------------------------------------
      LOOP:  cpu time    127.5688: real time    127.8194

 eigenvalue-minimisations  :   102
 total energy-change (2. order) :-0.6570411E+01  (-0.7306634E+00)
 number of electron      25.0000000 magnetization       7.9166285
 augmentation part        0.7551362 magnetization       6.9757514

 Broyden mixing:
  rms(total) = 0.51709E+00    rms(broyden)= 0.51706E+00
  rms(prec ) = 0.52550E+00
  weight for this iteration     100.00

 eigenvalues of (default mixing * dielectric matrix)
  average eigenvalue GAMMA=   1.1438
  0.7852  1.5024

 Free energy of the ion-electron system (eV)
  ---------------------------------------------------
  alpha Z        PSCENC =         0.04649657
  Ewald energy   TEWEN  =      1935.37381572
  -Hartree energ DENC   =     -2672.37629039
  -exchange      EXHF   =         0.00000000
  -V(xc)+E(xc)   XCENC  =       105.24913589
  PAW double counting   =      1589.66119225    -1602.04638266
  entropy T*S    EENTRO =        -0.00000000
  eigenvalues    EBANDS =      -417.69370462
  atomic energy  EATOM  =      1020.46068345
  Solvation  Ecorr_sol  =       -15.76895974
  ---------------------------------------------------
  free energy    TOTEN  =       -57.09401353 eV

  energy without entropy =      -57.09401353  energy(sigma->0) =      -57.09401353


--------------------------------------------------------------------------------------------------------




--------------------------------------- Iteration      1(   4)  ---------------------------------------


    --------------------------------------------
      INIT:  cpu time      0.2560: real time      0.2554
  FINALIZE:  cpu time     28.0733: real time     28.0706
    --------------------------------------------
    POTLOK:  cpu time     38.2262: real time     38.2480
    SETDIJ:  cpu time      0.4225: real time      0.4234
    EDDIAG:  cpu time      5.7551: real time      5.7667
  RMM-DIIS:  cpu time     44.6281: real time     44.7229
    ORTHCH:  cpu time      0.0604: real time      0.0605
       DOS:  cpu time      0.0033: real time      0.0033
    CHARGE:  cpu time     48.6657: real time     48.8307
    MIXING:  cpu time      0.1962: real time      0.1963
    --------------------------------------------
      LOOP:  cpu time    137.9575: real time    138.2517

 eigenvalue-minimisations  :   137
 total energy-change (2. order) :-0.2244941E+01  (-0.2790583E+00)
 number of electron      24.9999999 magnetization       7.5201425
 augmentation part        0.7451670 magnetization       6.5821842

 Broyden mixing:
  rms(total) = 0.26380E+00    rms(broyden)= 0.26377E+00
  rms(prec ) = 0.27149E+00
  weight for this iteration     100.00

 eigenvalues of (default mixing * dielectric matrix)
  average eigenvalue GAMMA=   1.2919
  2.1788  1.0051  0.6919

 Free energy of the ion-electron system (eV)
  ---------------------------------------------------
  alpha Z        PSCENC =         0.04649657
  Ewald energy   TEWEN  =      1935.37381572
  -Hartree energ DENC   =     -2672.92380249
  -exchange      EXHF   =         0.00000000
  -V(xc)+E(xc)   XCENC  =       103.95623660
  PAW double counting   =      2044.98932195    -2057.46314706
  entropy T*S    EENTRO =        -0.00000000
  eigenvalues    EBANDS =      -407.53088717
  atomic energy  EATOM  =      1020.46068345
  Solvation  Ecorr_sol  =       -26.24767216
  ---------------------------------------------------
  free energy    TOTEN  =       -59.33895460 eV

  energy without entropy =      -59.33895460  energy(sigma->0) =      -59.33895460


--------------------------------------------------------------------------------------------------------




--------------------------------------- Iteration      1(   5)  ---------------------------------------


    --------------------------------------------
      INIT:  cpu time      0.2557: real time      0.2560
  FINALIZE:  cpu time     28.0157: real time     28.0548
    --------------------------------------------
    POTLOK:  cpu time     38.1361: real time     38.2035
    SETDIJ:  cpu time      0.4186: real time      0.4194
    EDDIAG:  cpu time      5.7246: real time      5.7354
  RMM-DIIS:  cpu time     46.6781: real time     46.7762
    ORTHCH:  cpu time      0.0664: real time      0.0666
       DOS:  cpu time      0.0004: real time      0.0004
    CHARGE:  cpu time     48.6059: real time     48.7713
    MIXING:  cpu time      0.2031: real time      0.2033
    --------------------------------------------
      LOOP:  cpu time    139.8333: real time    140.1761

 eigenvalue-minimisations  :   146
 total energy-change (2. order) :-0.1378833E+00  (-0.5210768E-01)
 number of electron      24.9999999 magnetization       7.0837940
 augmentation part        0.7416246 magnetization       6.1475287

 Broyden mixing:
  rms(total) = 0.15113E+00    rms(broyden)= 0.15112E+00
  rms(prec ) = 0.15994E+00
  weight for this iteration     100.00

 eigenvalues of (default mixing * dielectric matrix)
  average eigenvalue GAMMA=   1.3412
  2.5089  1.3239  0.8697  0.6622

 Free energy of the ion-electron system (eV)
  ---------------------------------------------------
  alpha Z        PSCENC =         0.04649657
  Ewald energy   TEWEN  =      1935.37381572
  -Hartree energ DENC   =     -2664.88350275
  -exchange      EXHF   =         0.00000000
  -V(xc)+E(xc)   XCENC  =       103.98680661
  PAW double counting   =      2253.44795093    -2265.95648640
  entropy T*S    EENTRO =        -0.00000000
  eigenvalues    EBANDS =      -407.43528463
  atomic energy  EATOM  =      1020.46068345
  Solvation  Ecorr_sol  =       -34.51731739
  ---------------------------------------------------
  free energy    TOTEN  =       -59.47683791 eV

  energy without entropy =      -59.47683791  energy(sigma->0) =      -59.47683791


--------------------------------------------------------------------------------------------------------




--------------------------------------- Iteration      1(   6)  ---------------------------------------


    --------------------------------------------
      INIT:  cpu time      0.2514: real time      0.2517
  FINALIZE:  cpu time     28.0676: real time     28.1050
    --------------------------------------------
    POTLOK:  cpu time     38.1882: real time     38.2507
    SETDIJ:  cpu time      0.4194: real time      0.4202
    EDDIAG:  cpu time      5.7616: real time      5.7727
  RMM-DIIS:  cpu time     46.6543: real time     46.7616
    ORTHCH:  cpu time      0.0650: real time      0.0651
       DOS:  cpu time      0.0022: real time      0.0022
    CHARGE:  cpu time     48.9046: real time     49.0258
    MIXING:  cpu time      0.2054: real time      0.2050
    --------------------------------------------
      LOOP:  cpu time    140.2006: real time    140.5033

 eigenvalue-minimisations  :   146
 total energy-change (2. order) : 0.4908702E+00  (-0.2201107E-01)
 number of electron      24.9999999 magnetization       6.6633146
 augmentation part        0.7411362 magnetization       5.7291714

 Broyden mixing:
  rms(total) = 0.10046E+00    rms(broyden)= 0.10046E+00
  rms(prec ) = 0.10892E+00
  weight for this iteration     100.00

 eigenvalues of (default mixing * dielectric matrix)
  average eigenvalue GAMMA=   1.3812
  2.7846  1.7083  1.0274  0.7537  0.6322

 Free energy of the ion-electron system (eV)
  ---------------------------------------------------
  alpha Z        PSCENC =         0.04649657
  Ewald energy   TEWEN  =      1935.37381572
  -Hartree energ DENC   =     -2653.75281879
  -exchange      EXHF   =         0.00000000
  -V(xc)+E(xc)   XCENC  =       104.42480948
  PAW double counting   =      2333.64985326    -2346.10268092
  entropy T*S    EENTRO =        -0.00000000
  eigenvalues    EBANDS =      -410.88871178
  atomic energy  EATOM  =      1020.46068345
  Solvation  Ecorr_sol  =       -42.19741465
  ---------------------------------------------------
  free energy    TOTEN  =       -58.98596767 eV

  energy without entropy =      -58.98596767  energy(sigma->0) =      -58.98596767


--------------------------------------------------------------------------------------------------------




--------------------------------------- Iteration      1(   7)  ---------------------------------------


    --------------------------------------------
      INIT:  cpu time      0.2493: real time      0.2496
  FINALIZE:  cpu time     28.1955: real time     28.1873
    --------------------------------------------
    POTLOK:  cpu time     38.3332: real time     38.3441
    SETDIJ:  cpu time      0.4198: real time      0.4206
    EDDIAG:  cpu time      5.7250: real time      5.7361
  RMM-DIIS:  cpu time     46.8522: real time     46.9539
    ORTHCH:  cpu time      0.0653: real time      0.0655
       DOS:  cpu time      0.0010: real time      0.0010
    CHARGE:  cpu time     49.2405: real time     49.3917
    MIXING:  cpu time      0.1920: real time      0.1922
    --------------------------------------------
      LOOP:  cpu time    140.8290: real time    141.1052

 eigenvalue-minimisations  :   146
 total energy-change (2. order) : 0.5885687E+00  (-0.1209345E-01)
 number of electron      24.9999999 magnetization       6.0847764
 augmentation part        0.7406329 magnetization       5.1517819

 Broyden mixing:
  rms(total) = 0.73680E-01    rms(broyden)= 0.73676E-01
  rms(prec ) = 0.81053E-01
  weight for this iteration     100.00

 eigenvalues of (default mixing * dielectric matrix)
  average eigenvalue GAMMA=   1.4279
  3.0198  2.1252  1.0773  0.9890  0.7234  0.6326

 Free energy of the ion-electron system (eV)
  ---------------------------------------------------
  alpha Z        PSCENC =         0.04649657
  Ewald energy   TEWEN  =      1935.37381572
  -Hartree energ DENC   =     -2644.06578918
  -exchange      EXHF   =         0.00000000
  -V(xc)+E(xc)   XCENC  =       104.90271284
  PAW double counting   =      2354.55236919    -2366.97814256
  entropy T*S    EENTRO =        -0.00000000
  eigenvalues    EBANDS =      -414.05907009
  atomic energy  EATOM  =      1020.46068345
  Solvation  Ecorr_sol  =       -48.63047492
  ---------------------------------------------------
  free energy    TOTEN  =       -58.39739898 eV

  energy without entropy =      -58.39739898  energy(sigma->0) =      -58.39739898


--------------------------------------------------------------------------------------------------------




--------------------------------------- Iteration      1(   8)  ---------------------------------------


    --------------------------------------------
      INIT:  cpu time      0.2586: real time      0.2590
  FINALIZE:  cpu time     28.0808: real time     28.1329
    --------------------------------------------
    POTLOK:  cpu time     38.2345: real time     38.3191
    SETDIJ:  cpu time      0.4183: real time      0.4192
    EDDIAG:  cpu time      5.7207: real time      5.7326
  RMM-DIIS:  cpu time     47.0560: real time     47.1607
    ORTHCH:  cpu time      0.0658: real time      0.0660
       DOS:  cpu time      0.0007: real time      0.0007
    CHARGE:  cpu time     49.0778: real time     49.1915
    MIXING:  cpu time      0.1954: real time      0.1951
    --------------------------------------------
      LOOP:  cpu time    140.7692: real time    141.0848

 eigenvalue-minimisations  :   146
 total energy-change (2. order) : 0.8705153E+00  (-0.9032114E-02)
 number of electron      24.9999999 magnetization       5.3519486
 augmentation part        0.7405122 magnetization       4.4201791

 Broyden mixing:
  rms(total) = 0.52650E-01    rms(broyden)= 0.52647E-01
  rms(prec ) = 0.57859E-01
  weight for this iteration     100.00

 eigenvalues of (default mixing * dielectric matrix)
  average eigenvalue GAMMA=   1.5716
  3.7608  2.4914  1.5240  1.0729  0.8082  0.7167  0.6269

 Free energy of the ion-electron system (eV)
  ---------------------------------------------------
  alpha Z        PSCENC =         0.04649657
  Ewald energy   TEWEN  =      1935.37381572
  -Hartree energ DENC   =     -2632.92509193
  -exchange      EXHF   =         0.00000000
  -V(xc)+E(xc)   XCENC  =       105.63732544
  PAW double counting   =      2349.72218674    -2362.13009996
  entropy T*S    EENTRO =        -0.00000000
  eigenvalues    EBANDS =      -417.45739522
  atomic energy  EATOM  =      1020.46068345
  Solvation  Ecorr_sol  =       -56.25480453
  ---------------------------------------------------
  free energy    TOTEN  =       -57.52688373 eV

  energy without entropy =      -57.52688373  energy(sigma->0) =      -57.52688373


--------------------------------------------------------------------------------------------------------




--------------------------------------- Iteration      1(   9)  ---------------------------------------


    --------------------------------------------
      INIT:  cpu time      0.2587: real time      0.2581
  FINALIZE:  cpu time     28.1093: real time     28.1070
    --------------------------------------------
    POTLOK:  cpu time     38.2284: real time     38.2586
    SETDIJ:  cpu time      0.4182: real time      0.4193
    EDDIAG:  cpu time      5.7138: real time      5.7235
  RMM-DIIS:  cpu time     47.2596: real time     47.3578
    ORTHCH:  cpu time      0.0672: real time      0.0674
       DOS:  cpu time      0.0008: real time      0.0008
    CHARGE:  cpu time     49.0073: real time     49.1137
    MIXING:  cpu time      0.2048: real time      0.2045
    --------------------------------------------
      LOOP:  cpu time    140.9002: real time    141.1457

 eigenvalue-minimisations  :   146
 total energy-change (2. order) : 0.7883374E+00  (-0.9993180E-02)
 number of electron      24.9999999 magnetization       4.8304969
 augmentation part        0.7405878 magnetization       3.9001645

 Broyden mixing:
  rms(total) = 0.34261E-01    rms(broyden)= 0.34257E-01
  rms(prec ) = 0.36810E-01
  weight for this iteration     100.00

 eigenvalues of (default mixing * dielectric matrix)
  average eigenvalue GAMMA=   1.7053
  4.9289  2.5532  1.9437  1.0554  1.0554  0.7741  0.7099  0.6218

 Free energy of the ion-electron system (eV)
  ---------------------------------------------------
  alpha Z        PSCENC =         0.04649657
  Ewald energy   TEWEN  =      1935.37381572
  -Hartree energ DENC   =     -2621.79059444
  -exchange      EXHF   =         0.00000000
  -V(xc)+E(xc)   XCENC  =       106.34579935
  PAW double counting   =      2343.54563648    -2355.95121702
  entropy T*S    EENTRO =        -0.00000000
  eigenvalues    EBANDS =      -420.31523794
  atomic energy  EATOM  =      1020.46068345
  Solvation  Ecorr_sol  =       -64.45392853
  ---------------------------------------------------
  free energy    TOTEN  =       -56.73854636 eV

  energy without entropy =      -56.73854636  energy(sigma->0) =      -56.73854636


--------------------------------------------------------------------------------------------------------




--------------------------------------- Iteration      1(  10)  ---------------------------------------


    --------------------------------------------
      INIT:  cpu time      0.2527: real time      0.2518
  FINALIZE:  cpu time     29.6109: real time     29.6075
    --------------------------------------------
    POTLOK:  cpu time     39.7370: real time     39.7537
    SETDIJ:  cpu time      0.4233: real time      0.4241
    EDDIAG:  cpu time      5.6916: real time      5.7025
  RMM-DIIS:  cpu time     47.0736: real time     47.1727
    ORTHCH:  cpu time      0.0642: real time      0.0644
       DOS:  cpu time      0.0003: real time      0.0003
    CHARGE:  cpu time     48.9510: real time     49.1199
    MIXING:  cpu time      0.2103: real time      0.2105
    --------------------------------------------
      LOOP:  cpu time    142.1514: real time    142.4481

 eigenvalue-minimisations  :   146
 total energy-change (2. order) : 0.5442802E+00  (-0.5097377E-02)
 number of electron      24.9999999 magnetization       4.4072609
 augmentation part        0.7405430 magnetization       3.4779103

 Broyden mixing:
  rms(total) = 0.23177E-01    rms(broyden)= 0.23175E-01
  rms(prec ) = 0.24359E-01
  weight for this iteration     100.00

 eigenvalues of (default mixing * dielectric matrix)
  average eigenvalue GAMMA=   1.8622
  6.7039  2.5851  2.2726  1.2181  1.0552  0.8731  0.7164  0.7164  0.6189

 Free energy of the ion-electron system (eV)
  ---------------------------------------------------
  alpha Z        PSCENC =         0.04649657
  Ewald energy   TEWEN  =      1935.37381572
  -Hartree energ DENC   =     -2616.44527443
  -exchange      EXHF   =         0.00000000
  -V(xc)+E(xc)   XCENC  =       106.87652851
  PAW double counting   =      2342.20780896    -2354.62464415
  entropy T*S    EENTRO =        -0.00000000
  eigenvalues    EBANDS =      -421.23897128
  atomic energy  EATOM  =      1020.46068345
  Solvation  Ecorr_sol  =       -68.85070948
  ---------------------------------------------------
  free energy    TOTEN  =       -56.19426612 eV

  energy without entropy =      -56.19426612  energy(sigma->0) =      -56.19426612


--------------------------------------------------------------------------------------------------------




--------------------------------------- Iteration      1(  11)  ---------------------------------------


    --------------------------------------------
      INIT:  cpu time      0.2529: real time      0.2523
  FINALIZE:  cpu time     28.1169: real time     28.1101
    --------------------------------------------
    POTLOK:  cpu time     38.2480: real time     38.2686
    SETDIJ:  cpu time      0.4192: real time      0.4200
    EDDIAG:  cpu time      5.7096: real time      5.7205
  RMM-DIIS:  cpu time     46.8885: real time     46.9863
    ORTHCH:  cpu time      0.0662: real time      0.0664
       DOS:  cpu time      0.0006: real time      0.0006
    CHARGE:  cpu time     49.0385: real time     49.1696
    MIXING:  cpu time      0.2180: real time      0.2180
    --------------------------------------------
      LOOP:  cpu time    140.5886: real time    140.8499

 eigenvalue-minimisations  :   146
 total energy-change (2. order) : 0.4424833E+00  (-0.2214158E-02)
 number of electron      24.9999999 magnetization       4.1236123
 augmentation part        0.7407201 magnetization       3.1948040

 Broyden mixing:
  rms(total) = 0.17779E-01    rms(broyden)= 0.17778E-01
  rms(prec ) = 0.18188E-01
  weight for this iteration     100.00

 eigenvalues of (default mixing * dielectric matrix)
  average eigenvalue GAMMA=   1.9090
  7.6636  2.6831  2.3251  1.4320  1.0964  1.0964  0.7789  0.7265  0.6226  0.6655

 Free energy of the ion-electron system (eV)
  ---------------------------------------------------
  alpha Z        PSCENC =         0.04649657
  Ewald energy   TEWEN  =      1935.37381572
  -Hartree energ DENC   =     -2613.01615476
  -exchange      EXHF   =         0.00000000
  -V(xc)+E(xc)   XCENC  =       107.30592436
  PAW double counting   =      2340.70118091    -2353.12127038
  entropy T*S    EENTRO =        -0.00000000
  eigenvalues    EBANDS =      -421.75350035
  atomic energy  EATOM  =      1020.46068345
  Solvation  Ecorr_sol  =       -71.74895833
  ---------------------------------------------------
  free energy    TOTEN  =       -55.75178281 eV

  energy without entropy =      -55.75178281  energy(sigma->0) =      -55.75178281


--------------------------------------------------------------------------------------------------------




--------------------------------------- Iteration      1(  12)  ---------------------------------------


    --------------------------------------------
      INIT:  cpu time      0.2601: real time      0.2594
  FINALIZE:  cpu time     31.3045: real time     31.2975
    --------------------------------------------
    POTLOK:  cpu time     41.3742: real time     41.3931
    SETDIJ:  cpu time      0.4214: real time      0.4222
    EDDIAG:  cpu time      5.7551: real time      5.7656
  RMM-DIIS:  cpu time     47.2591: real time     47.3612
    ORTHCH:  cpu time      0.0639: real time      0.0641
       DOS:  cpu time      0.0012: real time      0.0012
    CHARGE:  cpu time     49.2171: real time     49.3690
    MIXING:  cpu time      0.2284: real time      0.2288
    --------------------------------------------
      LOOP:  cpu time    144.3204: real time    144.6051

 eigenvalue-minimisations  :   146
 total energy-change (2. order) : 0.2773178E+00  ( 0.5194895E-05)
 number of electron      24.9999999 magnetization       3.6759554
 augmentation part        0.7408836 magnetization       2.7474659

 Broyden mixing:
  rms(total) = 0.15126E-01    rms(broyden)= 0.15125E-01
  rms(prec ) = 0.15316E-01
  weight for this iteration     100.00

 eigenvalues of (default mixing * dielectric matrix)
  average eigenvalue GAMMA=   1.9342
  8.1567  2.7458  2.4080  1.8901  1.1911  1.1911  0.9374  0.7432  0.7432  0.6257
  0.6440

 Free energy of the ion-electron system (eV)
  ---------------------------------------------------
  alpha Z        PSCENC =         0.04649657
  Ewald energy   TEWEN  =      1935.37381572
  -Hartree energ DENC   =     -2611.65227839
  -exchange      EXHF   =         0.00000000
  -V(xc)+E(xc)   XCENC  =       107.58158520
  PAW double counting   =      2340.64244341    -2353.06211433
  entropy T*S    EENTRO =        -0.00000000
  eigenvalues    EBANDS =      -421.92536246
  atomic energy  EATOM  =      1020.46068345
  Solvation  Ecorr_sol  =       -72.93973417
  ---------------------------------------------------
  free energy    TOTEN  =       -55.47446501 eV

  energy without entropy =      -55.47446501  energy(sigma->0) =      -55.47446501


--------------------------------------------------------------------------------------------------------




--------------------------------------- Iteration      1(  13)  ---------------------------------------


    --------------------------------------------
      INIT:  cpu time      0.2623: real time      0.2625
  FINALIZE:  cpu time     28.1040: real time     28.1489
    --------------------------------------------
    POTLOK:  cpu time     38.1702: real time     38.2449
    SETDIJ:  cpu time      0.4224: real time      0.4233
    EDDIAG:  cpu time      5.7482: real time      5.7606
  RMM-DIIS:  cpu time     46.9667: real time     47.0704
    ORTHCH:  cpu time      0.0587: real time      0.0589
       DOS:  cpu time      0.0033: real time      0.0033
    CHARGE:  cpu time     48.7769: real time     48.9306
    MIXING:  cpu time      0.2341: real time      0.2337
    --------------------------------------------
      LOOP:  cpu time    140.3805: real time    140.7255

 eigenvalue-minimisations  :   146
 total energy-change (2. order) : 0.3645661E+00  ( 0.1125316E-02)
 number of electron      24.9999999 magnetization       3.2948813
 augmentation part        0.7407700 magnetization       2.3665319

 Broyden mixing:
  rms(total) = 0.11651E-01    rms(broyden)= 0.11650E-01
  rms(prec ) = 0.11691E-01
  weight for this iteration     100.00

 eigenvalues of (default mixing * dielectric matrix)
  average eigenvalue GAMMA=   2.0240
  8.8458  3.5128  2.6447  2.2455  1.2039  1.2039  1.1195  0.7764  0.7359  0.7359
  0.6316  0.6316

 Free energy of the ion-electron system (eV)
  ---------------------------------------------------
  alpha Z        PSCENC =         0.04649657
  Ewald energy   TEWEN  =      1935.37381572
  -Hartree energ DENC   =     -2610.52161851
  -exchange      EXHF   =         0.00000000
  -V(xc)+E(xc)   XCENC  =       107.95047383
  PAW double counting   =      2342.58558415    -2355.00511366
  entropy T*S    EENTRO =        -0.00000000
  eigenvalues    EBANDS =      -421.94064141
  atomic energy  EATOM  =      1020.46068345
  Solvation  Ecorr_sol  =       -74.05957904
  ---------------------------------------------------
  free energy    TOTEN  =       -55.10989890 eV

  energy without entropy =      -55.10989890  energy(sigma->0) =      -55.10989890


--------------------------------------------------------------------------------------------------------




--------------------------------------- Iteration      1(  14)  ---------------------------------------


    --------------------------------------------
      INIT:  cpu time      0.2591: real time      0.2590
  FINALIZE:  cpu time     28.1827: real time     28.1787
    --------------------------------------------
    POTLOK:  cpu time     38.2519: real time     38.2703
    SETDIJ:  cpu time      0.4177: real time      0.4185
    EDDIAG:  cpu time      5.7513: real time      5.7630
  RMM-DIIS:  cpu time     46.9904: real time     47.0899
    ORTHCH:  cpu time      0.0637: real time      0.0639
       DOS:  cpu time      0.0025: real time      0.0025
    CHARGE:  cpu time     49.0289: real time     49.2091
    MIXING:  cpu time      0.2440: real time      0.2441
    --------------------------------------------
      LOOP:  cpu time    140.7504: real time    141.0613

 eigenvalue-minimisations  :   146
 total energy-change (2. order) : 0.2497005E+00  ( 0.2128557E-02)
 number of electron      24.9999999 magnetization       3.0588632
 augmentation part        0.7405521 magnetization       2.1306357

 Broyden mixing:
  rms(total) = 0.99031E-02    rms(broyden)= 0.99025E-02
  rms(prec ) = 0.99415E-02
  weight for this iteration     100.00

 eigenvalues of (default mixing * dielectric matrix)
  average eigenvalue GAMMA=   2.0377
  9.2733  4.1529  2.5910  2.4938  1.2239  1.2239  1.1515  0.8783  0.8188  0.7663
  0.6731  0.6214  0.6214

 Free energy of the ion-electron system (eV)
  ---------------------------------------------------
  alpha Z        PSCENC =         0.04649657
  Ewald energy   TEWEN  =      1935.37381572
  -Hartree energ DENC   =     -2609.78965397
  -exchange      EXHF   =         0.00000000
  -V(xc)+E(xc)   XCENC  =       108.19825523
  PAW double counting   =      2343.84181361    -2356.26016332
  entropy T*S    EENTRO =        -0.00000000
  eigenvalues    EBANDS =      -421.96732683
  atomic energy  EATOM  =      1020.46068345
  Solvation  Ecorr_sol  =       -74.76411881
  ---------------------------------------------------
  free energy    TOTEN  =       -54.86019835 eV

  energy without entropy =      -54.86019835  energy(sigma->0) =      -54.86019835


--------------------------------------------------------------------------------------------------------




--------------------------------------- Iteration      1(  15)  ---------------------------------------


    --------------------------------------------
      INIT:  cpu time      0.2594: real time      0.2594
  FINALIZE:  cpu time     29.7687: real time     29.7613
    --------------------------------------------
    POTLOK:  cpu time     39.8425: real time     39.8587
    SETDIJ:  cpu time      0.4190: real time      0.4198
    EDDIAG:  cpu time      5.7535: real time      5.7661
  RMM-DIIS:  cpu time     46.9908: real time     47.0906
    ORTHCH:  cpu time      0.0637: real time      0.0638
       DOS:  cpu time      0.0009: real time      0.0009
    CHARGE:  cpu time     48.9238: real time     49.0475
    MIXING:  cpu time      0.2561: real time      0.2560
    --------------------------------------------
      LOOP:  cpu time    142.2504: real time    142.5034

 eigenvalue-minimisations  :   146
 total energy-change (2. order) : 0.1150918E+00  (-0.7401461E-03)
 number of electron      24.9999999 magnetization       2.6851939
 augmentation part        0.7406257 magnetization       1.7571131

 Broyden mixing:
  rms(total) = 0.86656E-02    rms(broyden)= 0.86651E-02
  rms(prec ) = 0.86952E-02
  weight for this iteration     100.00

 eigenvalues of (default mixing * dielectric matrix)
  average eigenvalue GAMMA=   2.0884
  9.8483  4.8309  2.8384  2.5479  1.3130  1.3130  1.2796  1.1122  0.8186  0.7297
  0.7106  0.6267  0.6340  0.6340

 Free energy of the ion-electron system (eV)
  ---------------------------------------------------
  alpha Z        PSCENC =         0.04649657
  Ewald energy   TEWEN  =      1935.37381572
  -Hartree energ DENC   =     -2609.45757845
  -exchange      EXHF   =         0.00000000
  -V(xc)+E(xc)   XCENC  =       108.30679587
  PAW double counting   =      2343.76307886    -2356.17936773
  entropy T*S    EENTRO =        -0.00000000
  eigenvalues    EBANDS =      -422.13043339
  atomic energy  EATOM  =      1020.46068345
  Solvation  Ecorr_sol  =       -74.92859746
  ---------------------------------------------------
  free energy    TOTEN  =       -54.74510656 eV

  energy without entropy =      -54.74510656  energy(sigma->0) =      -54.74510656


--------------------------------------------------------------------------------------------------------




--------------------------------------- Iteration      1(  16)  ---------------------------------------


    --------------------------------------------
      INIT:  cpu time      0.2540: real time      0.2534
  FINALIZE:  cpu time     29.7327: real time     29.7329
    --------------------------------------------
    POTLOK:  cpu time     39.8200: real time     39.8480
    SETDIJ:  cpu time      0.4208: real time      0.4215
    EDDIAG:  cpu time      5.7619: real time      5.7733
  RMM-DIIS:  cpu time     47.0986: real time     47.2007
    ORTHCH:  cpu time      0.0638: real time      0.0639
       DOS:  cpu time      0.0012: real time      0.0012
    CHARGE:  cpu time     49.0649: real time     49.2187
    MIXING:  cpu time      0.2615: real time      0.2618
    --------------------------------------------
      LOOP:  cpu time    142.4927: real time    142.7890

 eigenvalue-minimisations  :   146
 total energy-change (2. order) : 0.1838601E+00  ( 0.2735130E-03)
 number of electron      24.9999999 magnetization       2.4249559
 augmentation part        0.7405772 magnetization       1.4970386

 Broyden mixing:
  rms(total) = 0.73512E-02    rms(broyden)= 0.73504E-02
  rms(prec ) = 0.74049E-02
  weight for this iteration     100.00

 eigenvalues of (default mixing * dielectric matrix)
  average eigenvalue GAMMA=   2.1248
 10.3889  5.6844  2.9474  2.5520  1.6664  1.2359  1.2359  1.1497  0.9375  0.7742
  0.7742  0.6868  0.6253  0.6070  0.6070

 Free energy of the ion-electron system (eV)
  ---------------------------------------------------
  alpha Z        PSCENC =         0.04649657
  Ewald energy   TEWEN  =      1935.37381572
  -Hartree energ DENC   =     -2609.14350505
  -exchange      EXHF   =         0.00000000
  -V(xc)+E(xc)   XCENC  =       108.48166751
  PAW double counting   =      2344.92283028    -2357.33731057
  entropy T*S    EENTRO =        -0.00000000
  eigenvalues    EBANDS =      -422.30362880
  atomic energy  EATOM  =      1020.46068345
  Solvation  Ecorr_sol  =       -75.06229555
  ---------------------------------------------------
  free energy    TOTEN  =       -54.56124646 eV

  energy without entropy =      -54.56124646  energy(sigma->0) =      -54.56124646


--------------------------------------------------------------------------------------------------------




--------------------------------------- Iteration      1(  17)  ---------------------------------------


    --------------------------------------------
      INIT:  cpu time      0.2599: real time      0.2602
  FINALIZE:  cpu time     30.3233: real time     30.3680
    --------------------------------------------
    POTLOK:  cpu time     40.4100: real time     40.4951
    SETDIJ:  cpu time      0.4245: real time      0.4253
    EDDIAG:  cpu time      5.7583: real time      5.7693
  RMM-DIIS:  cpu time     47.0099: real time     47.1090
    ORTHCH:  cpu time      0.0687: real time      0.0689
       DOS:  cpu time      0.0005: real time      0.0005
    CHARGE:  cpu time     48.9287: real time     49.0777
    MIXING:  cpu time      0.2748: real time      0.2748
    --------------------------------------------
      LOOP:  cpu time    142.8753: real time    143.2206

 eigenvalue-minimisations  :   146
 total energy-change (2. order) : 0.1111275E+00  (-0.9843509E-03)
 number of electron      24.9999999 magnetization       2.0099140
 augmentation part        0.7406801 magnetization       1.0822704

 Broyden mixing:
  rms(total) = 0.63853E-02    rms(broyden)= 0.63847E-02
  rms(prec ) = 0.64530E-02
  weight for this iteration     100.00

 eigenvalues of (default mixing * dielectric matrix)
  average eigenvalue GAMMA=   2.1577
 10.9382  6.1567  3.0716  2.4840  2.1810  1.3496  1.3496  1.2342  0.9662  0.8042
  0.8042  0.7499  0.6501  0.6257  0.5786  0.5786

 Free energy of the ion-electron system (eV)
  ---------------------------------------------------
  alpha Z        PSCENC =         0.04649657
  Ewald energy   TEWEN  =      1935.37381572
  -Hartree energ DENC   =     -2609.09524861
  -exchange      EXHF   =         0.00000000
  -V(xc)+E(xc)   XCENC  =       108.59206825
  PAW double counting   =      2345.08291192    -2357.49781404
  entropy T*S    EENTRO =        -0.00000000
  eigenvalues    EBANDS =      -422.35195532
  atomic energy  EATOM  =      1020.46068345
  Solvation  Ecorr_sol  =       -75.06107694
  ---------------------------------------------------
  free energy    TOTEN  =       -54.45011899 eV

  energy without entropy =      -54.45011899  energy(sigma->0) =      -54.45011899


--------------------------------------------------------------------------------------------------------




--------------------------------------- Iteration      1(  18)  ---------------------------------------


    --------------------------------------------
      INIT:  cpu time      0.2627: real time      0.2624
  FINALIZE:  cpu time     30.0048: real time     29.9965
    --------------------------------------------
    POTLOK:  cpu time     40.1220: real time     40.1414
    SETDIJ:  cpu time      0.4176: real time      0.4184
    EDDIAG:  cpu time      5.7503: real time      5.7632
  RMM-DIIS:  cpu time     46.9895: real time     47.0864
    ORTHCH:  cpu time      0.0645: real time      0.0646
       DOS:  cpu time      0.0007: real time      0.0007
    CHARGE:  cpu time     49.0754: real time     49.2089
    MIXING:  cpu time      0.2849: real time      0.2850
    --------------------------------------------
      LOOP:  cpu time    142.7050: real time    142.9687

 eigenvalue-minimisations  :   146
 total energy-change (2. order) : 0.1754127E+00  (-0.3924850E-03)
 number of electron      24.9999999 magnetization       1.5069926
 augmentation part        0.7406413 magnetization       0.5795076

 Broyden mixing:
  rms(total) = 0.47582E-02    rms(broyden)= 0.47575E-02
  rms(prec ) = 0.48282E-02
  weight for this iteration     100.00

 eigenvalues of (default mixing * dielectric matrix)
  average eigenvalue GAMMA=   2.3182
 12.0898  7.2842  3.9104  2.6358  2.6358  1.4827  1.2856  1.2856  1.1422  0.9472
  0.7709  0.7463  0.7463  0.6493  0.6233  0.5866  0.5866

 Free energy of the ion-electron system (eV)
  ---------------------------------------------------
  alpha Z        PSCENC =         0.04649657
  Ewald energy   TEWEN  =      1935.37381572
  -Hartree energ DENC   =     -2609.18312327
  -exchange      EXHF   =         0.00000000
  -V(xc)+E(xc)   XCENC  =       108.76764498
  PAW double counting   =      2344.84577971    -2357.26190858
  entropy T*S    EENTRO =        -0.00000000
  eigenvalues    EBANDS =      -422.37455393
  atomic energy  EATOM  =      1020.46068345
  Solvation  Ecorr_sol  =       -74.94954091
  ---------------------------------------------------
  free energy    TOTEN  =       -54.27470626 eV

  energy without entropy =      -54.27470626  energy(sigma->0) =      -54.27470626


--------------------------------------------------------------------------------------------------------




--------------------------------------- Iteration      1(  19)  ---------------------------------------


    --------------------------------------------
      INIT:  cpu time      0.2528: real time      0.2522
  FINALIZE:  cpu time     28.4359: real time     28.4365
    --------------------------------------------
    POTLOK:  cpu time     38.5733: real time     38.6012
    SETDIJ:  cpu time      0.4172: real time      0.4180
    EDDIAG:  cpu time      5.7622: real time      5.7732
  RMM-DIIS:  cpu time     47.0434: real time     47.1401
    ORTHCH:  cpu time      0.0644: real time      0.0646
       DOS:  cpu time      0.0006: real time      0.0006
    CHARGE:  cpu time     48.9043: real time     49.0491
    MIXING:  cpu time      0.3011: real time      0.3013
    --------------------------------------------
      LOOP:  cpu time    141.0665: real time    141.3480

 eigenvalue-minimisations  :   146
 total energy-change (2. order) : 0.1873183E+00  (-0.1045496E-02)
 number of electron      24.9999999 magnetization       1.3396976
[...]




--------------------------------------------------------------------------------------------------------


    WAVPRE:  cpu time      0.9257: real time      0.9402
    FEWALD:  cpu time      0.0017: real time      0.0017

 real space projection operators:
  total allocation   :       1364.17 KBytes
  max/ min on nodes  :        144.91        126.60

    ORTHCH:  cpu time      0.8331: real time      0.8328
     LOOP+:  cpu time    521.6459: real time    522.6377


--------------------------------------- Iteration     17(   1)  ---------------------------------------


    --------------------------------------------
      INIT:  cpu time      0.2477: real time      0.2475
  FINALIZE:  cpu time     44.4735: real time     44.4538
    --------------------------------------------
    POTLOK:  cpu time     54.6735: real time     54.6762
    SETDIJ:  cpu time      0.4175: real time      0.4205
     EDDAV:  cpu time     31.5287: real time     31.5969
       DOS:  cpu time      0.0007: real time      0.0007
    CHARGE:  cpu time     48.6795: real time     48.8049
    MIXING:  cpu time      0.2420: real time      0.2408
    --------------------------------------------
      LOOP:  cpu time    135.5419: real time    135.7400

 eigenvalue-minimisations  :   152
 total energy-change (2. order) :-0.1964928E-04  (-0.3428633E-03)
 number of electron      24.9999998 magnetization      -1.0000010
 augmentation part        0.7511306 magnetization      -0.0733711

 Broyden mixing:
  rms(total) = 0.18282E-02    rms(broyden)= 0.18229E-02
  rms(prec ) = 0.18410E-02
  weight for this iteration     100.00

 Free energy of the ion-electron system (eV)
  ---------------------------------------------------
  alpha Z        PSCENC =         0.04649657
  Ewald energy   TEWEN  =      1943.72005339
  -Hartree energ DENC   =     -2618.23509626
  -exchange      EXHF   =         0.00000000
  -V(xc)+E(xc)   XCENC  =       109.38784747
  PAW double counting   =      2389.35411758    -2401.82074612
  entropy T*S    EENTRO =        -0.00000000
  eigenvalues    EBANDS =      -422.53680624
  atomic energy  EATOM  =      1020.46068345
  Solvation  Ecorr_sol  =       -74.42038536
  ---------------------------------------------------
  free energy    TOTEN  =       -54.04383551 eV

  energy without entropy =      -54.04383551  energy(sigma->0) =      -54.04383551


--------------------------------------------------------------------------------------------------------




--------------------------------------- Iteration     17(   2)  ---------------------------------------


    --------------------------------------------
      INIT:  cpu time      0.2603: real time      0.2598
  FINALIZE:  cpu time     30.6970: real time     30.6815
    --------------------------------------------
    POTLOK:  cpu time     40.9022: real time     40.9129
    SETDIJ:  cpu time      0.4181: real time      0.4190
    EDDIAG:  cpu time      5.7320: real time      5.7429
  RMM-DIIS:  cpu time     32.0305: real time     32.0986
    ORTHCH:  cpu time      0.0630: real time      0.0632
       DOS:  cpu time      0.0009: real time      0.0009
    CHARGE:  cpu time     48.7873: real time     48.9021
    MIXING:  cpu time      0.1930: real time      0.1933
    --------------------------------------------
      LOOP:  cpu time    128.1272: real time    128.3329

 eigenvalue-minimisations  :    96
 total energy-change (2. order) :-0.4365725E-05  (-0.1028988E-04)
 number of electron      24.9999998 magnetization      -1.0000009
 augmentation part        0.7510842 magnetization      -0.0733591

 Broyden mixing:
  rms(total) = 0.99768E-03    rms(broyden)= 0.99652E-03
  rms(prec ) = 0.10108E-02
  weight for this iteration     100.00

 eigenvalues of (default mixing * dielectric matrix)
  average eigenvalue GAMMA=   0.9810
  0.9810

 Free energy of the ion-electron system (eV)
  ---------------------------------------------------
  alpha Z        PSCENC =         0.04649657
  Ewald energy   TEWEN  =      1943.72005339
  -Hartree energ DENC   =     -2618.22508749
  -exchange      EXHF   =         0.00000000
  -V(xc)+E(xc)   XCENC  =       109.38813220
  PAW double counting   =      2389.05385614    -2401.52046945
  entropy T*S    EENTRO =        -0.00000000
  eigenvalues    EBANDS =      -422.54735638
  atomic energy  EATOM  =      1020.46068345
  Solvation  Ecorr_sol  =       -74.42014831
  ---------------------------------------------------
  free energy    TOTEN  =       -54.04383988 eV

  energy without entropy =      -54.04383988  energy(sigma->0) =      -54.04383988


--------------------------------------------------------------------------------------------------------




--------------------------------------- Iteration     17(   3)  ---------------------------------------


    --------------------------------------------
      INIT:  cpu time      0.2563: real time      0.2557
  FINALIZE:  cpu time     30.5052: real time     30.5098
    --------------------------------------------
    POTLOK:  cpu time     40.7142: real time     40.7570
    SETDIJ:  cpu time      0.4206: real time      0.4217
    EDDIAG:  cpu time      5.7344: real time      5.7456
  RMM-DIIS:  cpu time     30.2063: real time     30.2696
    ORTHCH:  cpu time      0.0646: real time      0.0647
       DOS:  cpu time      0.0011: real time      0.0011
    --------------------------------------------
      LOOP:  cpu time     77.1411: real time     77.2597

 eigenvalue-minimisations  :    87
 total energy-change (2. order) :-0.6540914E-05  (-0.3239449E-05)
 number of electron      24.9999998 magnetization      -1.0000009
 augmentation part        0.7510842 magnetization      -0.0733591

 Free energy of the ion-electron system (eV)
  ---------------------------------------------------
  alpha Z        PSCENC =         0.04649657
  Ewald energy   TEWEN  =      1943.72005339
  -Hartree energ DENC   =     -2618.21457547
  -exchange      EXHF   =         0.00000000
  -V(xc)+E(xc)   XCENC  =       109.38746953
  PAW double counting   =      2388.76870576    -2401.23516742
  entropy T*S    EENTRO =        -0.00000000
  eigenvalues    EBANDS =      -422.55762841
  atomic energy  EATOM  =      1020.46068345
  Solvation  Ecorr_sol  =       -74.41988383
  ---------------------------------------------------
  free energy    TOTEN  =       -54.04384642 eV

  energy without entropy =      -54.04384642  energy(sigma->0) =      -54.04384642


--------------------------------------------------------------------------------------------------------




 average (electrostatic) potential at core
  the test charge radii are     0.6991  0.7089  0.5201
  (the norm of the test charge is              1.0000)
       1 -65.5328       2 -64.3981       3 -64.0644       4 -79.7356       5 -81.4667
       6 -49.5691       7 -46.7287       8 -47.2039       9 -47.7952
 
 
 
 E-fermi :  -9.3223     XC(G=0):  -0.0203     alpha+bet : -0.0091

 Fermi energy:        -9.3223438196

 spin component 1

 k-point     1 :       0.0000    0.0000    0.0000
  band No.  band energies     occupation 
      1     -30.3175      1.00000
      2     -24.6455      1.00000
      3     -22.7430      1.00000
      4     -18.5163      1.00000
      5     -18.1195      1.00000
      6     -16.7817      1.00000
      7     -13.9073      1.00000
      8     -13.7551      1.00000
      9     -13.6825      1.00000
     10     -12.7662      1.00000
     11      -9.7793      1.00000
     12      -9.5948      1.00000
     13      -7.7843      0.00000
     14      -2.6751      0.00000
     15      -1.2022      0.00000
     16      -0.1834      0.00000
     17       0.0132      0.00000
     18       0.0903      0.00000
     19       0.0952      0.00000
     20       0.0957      0.00000
     21       0.0996      0.00000
     22       0.1002      0.00000
     23       0.1248      0.00000
     24       0.1785      0.00000
 Fermi energy:        -9.3223438196

 spin component 2

 k-point     1 :       0.0000    0.0000    0.0000
  band No.  band energies     occupation 
      1     -30.5810      1.00000
      2     -24.8480      1.00000
      3     -23.4221      1.00000
      4     -18.8325      1.00000
      5     -18.1608      1.00000
      6     -16.9558      1.00000
      7     -14.4721      1.00000
      8     -13.9920      1.00000
      9     -13.8555      1.00000
     10     -12.8563      1.00000
     11     -10.0952      1.00000
     12     -10.0413      1.00000
     13      -9.8362      1.00000
     14      -3.8882      0.00000
     15      -2.2013      0.00000
     16      -0.2360      0.00000
     17       0.0124      0.00000
     18       0.0929      0.00000
     19       0.0942      0.00000
     20       0.0951      0.00000
     21       0.0997      0.00000
     22       0.1013      0.00000
     23       0.1207      0.00000
     24       0.1753      0.00000


--------------------------------------------------------------------------------------------------------


 soft charge-density along one line, spin component           1
         0         1         2         3         4         5         6         7         8         9
 total charge-density along one line
 
 soft charge-density along one line, spin component           2
         0         1         2         3         4         5         6         7         8         9
 total charge-density along one line
 
 pseudopotential strength for first ion, spin component:           1
 10.662  14.183  -0.006   0.000  -0.006   0.018  -0.000   0.021
 14.183  18.866  -0.008   0.000  -0.008   0.024  -0.000   0.027
 -0.006  -0.008  -4.621  -0.000  -0.006   8.958   0.000   0.011
  0.000   0.000  -0.000  -4.554  -0.000   0.000   8.906   0.000
 -0.006  -0.008  -0.006  -0.000  -4.611   0.011   0.000   8.944
  0.018   0.024   8.958   0.000   0.011 -19.633  -0.000  -0.019
 -0.000  -0.000   0.000   8.906   0.000  -0.000 -19.662  -0.000
  0.021   0.027   0.011   0.000   8.944  -0.019  -0.000 -19.624
 pseudopotential strength for first ion, spin component:           2
 10.777  14.337  -0.007   0.000  -0.009   0.019  -0.000   0.028
 14.337  19.073  -0.009   0.000  -0.012   0.025  -0.000   0.037
 -0.007  -0.009  -4.641  -0.000  -0.007   9.004   0.000   0.011
  0.000   0.000  -0.000  -4.575  -0.000   0.000   8.876   0.000
 -0.009  -0.012  -0.007  -0.000  -4.627   0.011   0.000   8.980
  0.019   0.025   9.004   0.000   0.011 -19.750  -0.000  -0.016
 -0.000  -0.000   0.000   8.876   0.000  -0.000 -19.532  -0.000
  0.028   0.037   0.011   0.000   8.980  -0.016  -0.000 -19.713
 total augmentation occupancy for first ion, spin component:           1
  8.579  -3.876  -0.374   0.000  -0.587  -0.086   0.000  -0.122
 -3.876   1.838   0.295   0.000   0.443   0.056   0.000   0.077
 -0.374   0.295   1.898   0.000   0.060   0.166   0.000   0.014
  0.000   0.000   0.000   0.963   0.000   0.000   0.061   0.000
 -0.587   0.443   0.060   0.000   1.819   0.015   0.000   0.188
 -0.086   0.056   0.166   0.000   0.015   0.016   0.000   0.003
  0.000   0.000   0.000   0.061   0.000   0.000   0.004   0.000
 -0.122   0.077   0.014   0.000   0.188   0.003   0.000   0.021
 total augmentation occupancy for first ion, spin component:           2
 -0.235   0.126   0.023   0.000  -0.007   0.005   0.000  -0.002
  0.126  -0.067  -0.024   0.000   0.009  -0.003   0.000   0.001
  0.023  -0.024   0.003   0.000  -0.008  -0.001   0.000   0.000
  0.000   0.000   0.000  -0.349   0.000   0.000  -0.010   0.000
 -0.007   0.009  -0.008   0.000   0.003   0.000   0.000  -0.001
  0.005  -0.003  -0.001   0.000   0.000  -0.000   0.000   0.000
  0.000   0.000   0.000  -0.010   0.000   0.000  -0.000   0.000
 -0.002   0.001   0.000   0.000  -0.001   0.000   0.000  -0.000


------------------------ aborting loop because EDIFF is reached ----------------------------------------


    CHARGE:  cpu time      5.7234: real time      5.7359
    FORLOC:  cpu time      0.2439: real time      0.2437
    FORNL :  cpu time      2.5142: real time      2.5196
    STRESS:  cpu time    107.6433: real time    107.9287
    FORCOR:  cpu time      7.7031: real time      7.7132
    FORHAR:  cpu time      0.7691: real time      0.7692
    MIXING:  cpu time      0.1104: real time      0.1107
    OFIELD:  cpu time      0.0000: real time      0.0000

 ---------------------------------------------------------------------------------------------

         DFTD3 V3.0 Rev 1        
 Edisp (eV)   -0.04797

 E6    (eV) :    -0.0379
 E8    (eV) :    -0.0101
 % E8        : 21.04
    FORVDW:  cpu time      0.0051: real time      0.0052

  FORCE on cell =-STRESS in cart. coord.  units (eV):
  Direction    XX          YY          ZZ          XY          YZ          ZX
  --------------------------------------------------------------------------------------
  Alpha Z     0.04650     0.04650     0.04650
  Ewald    1020.54163  1038.56805  -115.39062   -37.25553    -0.00064     0.03290
  Hartree  1086.38586  1114.87965   491.19071   -17.28243    -0.00019     0.00431
  E(xc)     -98.37580   -98.65901  -100.18219     0.16834     0.00005    -0.00002
  Local   -2366.11470 -2411.27942  -687.14556    48.19607     0.00117    -0.02807
  n-local   -46.25247   -42.33334   -38.53691    -1.00662    -0.00020    -0.00054
  augment     1.24121     0.65150     1.31742     0.18194    -0.00000    -0.00008
  Kinetic   401.99955   397.63617   448.13519     7.02772     0.00092    -0.00106
  Fock        0.00000     0.00000     0.00000     0.00000     0.00000     0.00000
  vdW         0.00346     0.00815    -0.00000     0.00067    -0.00000     0.00000
  -------------------------------------------------------------------------------------
  Total      -0.52477    -0.48175    -0.56546     0.03016     0.00000     0.00000
  in kB      -0.01314    -0.01206    -0.01416     0.00076     0.00000     0.00000
  external pressure =       -0.01 kB  Pullay stress =        0.00 kB


 VOLUME and BASIS-vectors are now :
 -----------------------------------------------------------------------------
  energy-cutoff  :      500.00
  volume of cell :    64000.00
      direct lattice vectors                 reciprocal lattice vectors
    40.000000000  0.000000000  0.000000000     0.025000000  0.000000000  0.000000000
     0.000000000 40.000000000  0.000000000     0.000000000  0.025000000  0.000000000
     0.000000000  0.000000000 40.000000000     0.000000000  0.000000000  0.025000000

  length of vectors
    40.000000000 40.000000000 40.000000000     0.025000000  0.025000000  0.025000000


 FORCES acting on ions
    electron-ion (+dipol)            ewald-force                    non-local-force                 convergence-correction
 -----------------------------------------------------------------------------------------------
   -.114E+03 -.194E+03 -.274E-01   0.121E+03 0.199E+03 0.161E-01   -.647E+01 -.497E+01 0.000E+00   -.184E-02 -.170E-02 0.225E-06
   -.206E+03 -.150E+00 0.157E-03   0.210E+03 -.198E+01 -.454E-02   -.433E+01 0.211E+01 0.000E+00   -.180E-03 -.333E-02 -.422E-06
   -.930E+02 0.199E+03 -.275E-01   0.972E+02 -.204E+03 0.159E-01   -.414E+01 0.521E+01 0.000E+00   0.604E-02 0.150E-02 -.642E-06
   0.233E+03 0.182E+03 0.442E-01   -.267E+03 -.206E+03 -.138E-01   0.334E+02 0.244E+02 0.000E+00   -.323E-02 0.859E-02 -.305E-06
   0.194E+03 -.153E+03 0.460E-01   -.200E+03 0.156E+03 -.146E-01   0.601E+01 -.313E+01 0.000E+00   0.462E-02 -.253E-02 0.129E-05
   0.849E+02 -.549E+02 0.488E-02   -.918E+02 0.591E+02 -.821E-03   0.691E+01 -.415E+01 0.000E+00   0.521E-03 -.298E-03 0.187E-07
   -.195E+02 0.793E+02 -.441E-02   0.208E+02 -.857E+02 0.106E-02   -.129E+01 0.634E+01 0.000E+00   0.696E-03 0.280E-03 -.779E-07
   -.788E+02 0.749E+00 0.445E-04   0.853E+02 -.789E+00 -.281E-03   -.652E+01 0.342E-01 0.000E+00   -.199E-03 -.301E-03 -.391E-07
   -.232E+02 -.778E+02 -.440E-02   0.248E+02 0.842E+02 0.107E-02   -.160E+01 -.638E+01 0.000E+00   -.484E-04 -.380E-03 0.117E-06
 -----------------------------------------------------------------------------------------------
   -.220E+02 -.195E+02 0.315E-01   0.355E-13 -.142E-13 -.651E-18   0.220E+02 0.195E+02 0.000E+00   0.637E-02 0.184E-02 0.163E-06
 
 
 POSITION                                       TOTAL-FORCE (eV/Angst)
 -----------------------------------------------------------------------------------
     20.15734     21.01103     20.00004        -0.018196      0.000921      0.000000
     21.01662     19.82968     20.00000        -0.005828      0.005179      0.000000
     20.12011     18.75079     20.00004         0.000472     -0.017150      0.000000
     18.86215     19.16749     19.99996        -0.005392      0.003238      0.000000
     18.93366     20.56441     19.99996         0.017097     -0.001588      0.000000
     18.06830     21.09097     19.99996         0.001069      0.001238      0.000000
     20.33551     17.69468     20.00004        -0.001678      0.003174      0.000000
     22.09447     19.83089     20.00000         0.005655     -0.004794      0.000000
     20.41181     22.06003     20.00004         0.006801      0.009783      0.000000
 -----------------------------------------------------------------------------------
    total drift:                                0.004256     -0.005206      0.031461


--------------------------------------------------------------------------------------------------------



  FREE ENERGIE OF THE ION-ELECTRON SYSTEM (eV)
  ---------------------------------------------------
  free  energy   TOTEN  =       -54.09181612 eV

  energy  without entropy=      -54.09181612  energy(sigma->0) =      -54.09181612
 
 d Force = 0.2497857E-04[ 0.440E-05, 0.456E-04]  d Energy = 0.3637047E-04-0.114E-04
 d Force = 0.3243851E+00[ 0.324E+00, 0.324E+00]  d Ewald  = 0.3243851E+00 0.279E-08


--------------------------------------------------------------------------------------------------------


    --------------------------------------------
      INIT:  cpu time      0.2525: real time      0.2521
  FINALIZE:  cpu time     30.5206: real time     30.5165
    --------------------------------------------
    POTLOK:  cpu time     41.2494: real time     41.2625


--------------------------------------------------------------------------------------------------------


 Conjugate gradient step on ions:
 trial-energy change:   -0.000036  1 .order   -0.000025   -0.000046   -0.000004
  (g-gl).g = 0.859E-04      g.g   = 0.871E-04  gl.gl    = 0.445E-03
 g(Force)  = 0.871E-04   g(Stress)= 0.000E+00 ortho     = 0.428E-05
 gamma     =   0.19317
 trial     =   0.51796
 opt step  =   0.57335  (harmonic =   0.57335) maximal distance =0.00050348
 next E    =   -54.091805   (d E  =  -0.00003)


--------------------------------------------------------------------------------------------------------


  
 reached required accuracy - stopping structural energy minimisation
 writing wavefunctions
     LOOP+:  cpu time    512.0337: real time    513.3230
    4ORBIT:  cpu time      0.0000: real time      0.0000

 total amount of memory used by VASP MPI-rank0   876375. kBytes
=======================================================================

   base      :      30000. kBytes
   nonlr-proj:        911. kBytes
   fftplans  :     167689. kBytes
   grid      :     662171. kBytes
   one-center:          6. kBytes
   wavefun   :      15598. kBytes
 
  
  
 General timing and accounting informations for this job:
 ========================================================
  
                  Total CPU time used (sec):    72706.750
                            User time (sec):    63301.239
                          System time (sec):     9405.514
                         Elapsed time (sec):    72821.921
  
                   Maximum memory used (kb):     6600024.
                   Average memory used (kb):          N/A
  
                          Minor page faults:   1833141658
                          Major page faults:            7
                 Voluntary context switches:      2559844
