
                                 *****************
                                 * O   R   C   A *
                                 *****************

                                            #,                                       
                                            ###                                      
                                            ####                                     
                                            #####                                    
                                            ######                                   
                                           ########,                                 
                                     ,,################,,,,,                         
                               ,,#################################,,                 
                          ,,##########################################,,             
                       ,#########################################, ''#####,          
                    ,#############################################,,   '####,        
                  ,##################################################,,,,####,       
                ,###########''''           ''''###############################       
              ,#####''   ,,,,##########,,,,          '''####'''          '####       
            ,##' ,,,,###########################,,,                        '##       
           ' ,,###''''                  '''############,,,                           
         ,,##''                                '''############,,,,        ,,,,,,###''
      ,#''                                            '''#######################'''  
     '                                                          ''''####''''         
             ,#######,   #######,   ,#######,      ##                                
            ,#'     '#,  ##    ##  ,#'     '#,    #''#        ,####,   ,####,        
            ##       ##  ##   ,#'  ##            #'  '#       #'       #'  '#        
            ##       ##  #######   ##           ,######,      #####,   #    #        
            '#,     ,#'  ##    ##  '#,     ,#' ,#      #,     #,   #   #,  ,#        
             '#######'   ##     ##  '#######'  #'      '#     '####' # '####'        



                #########################################################
                #                        -***-                          #
                #          Department of theory and spectroscopy        #
                #                                                       #
                #                      Frank Neese                      #
                #                                                       #
                #     Directorship, Architecture, Infrastructure        #
                #                    SHARK, DRIVERS                     #
                #        Core code/Algorithms in most modules           #
                #                                                       #
                #        Max Planck Institute fuer Kohlenforschung      #
                #                Kaiser Wilhelm Platz 1                 #
                #                 D-45470 Muelheim/Ruhr                 #
                #                      Germany                          #
                #                                                       #
                #                  All rights reserved                  #
                #                        -***-                          #
                #########################################################


                         Program Version 6.0.0  -   RELEASE  -


 With contributions from (in alphabetic order):
   Daniel Aravena         : Magnetic Suceptibility
   Michael Atanasov       : Ab Initio Ligand Field Theory (pilot matlab implementation)
   Alexander A. Auer      : GIAO ZORA, VPT2 properties, NMR spectrum
   Ute Becker             : All parallelization in ORCA, NUMFREQ, NUMCALC
   Giovanni Bistoni       : ED, misc. LED, open-shell LED, HFLD
   Martin Brehm           : Molecular dynamics
   Dmytro Bykov           : pre 5.0 version of the SCF Hessian
   Marcos Casanova-Páez   : Triplet and SCS-CIS(D). UHF-(DLPNO)-IP/EA/STEOM-CCSD. UHF-CVS-IP/STEOM-CCSD
   Vijay G. Chilkuri      : MRCI spin determinant printing, contributions to CSF-ICE
   Pauline Colinet        : FMM embedding
   Dipayan Datta          : RHF DLPNO-CCSD density
   Achintya Kumar Dutta   : EOM-CC, STEOM-CC
   Nicolas Foglia         : Exact transition moments, OPA infrastructure, MCD improvements
   Dmitry Ganyushin       : Spin-Orbit,Spin-Spin,Magnetic field MRCI
   Miquel Garcia          : C-PCM and meta-GGA Hessian, CCSD/C-PCM, Gaussian charge scheme
   Tiago L. C. Gouveia    : GS-ROHF, GS-ROCIS
   Yang Guo               : DLPNO-NEVPT2, F12-NEVPT2, CIM, IAO-localization
   Andreas Hansen         : Spin unrestricted coupled pair/coupled cluster methods
   Ingolf Harden          : AUTO-CI MPn and infrastructure 
   Benjamin Helmich-Paris : MC-RPA, TRAH-(SCF,CASSCF), AVAS, COSX integrals, SCF dyn. polar.
   Lee Huntington         : MR-EOM, pCC
   Robert Izsak           : Overlap fitted RIJCOSX, COSX-SCS-MP3, EOM
   Riya Kayal             : Wick's Theorem for AUTO-CI, AUTO-CI UHF-CCSDT
   Emily Kempfer          : AUTO-CI, RHF CISDT and CCSDT
   Christian Kollmar      : KDIIS, OOCD, Brueckner-CCSD(T), CCSD density, CASPT2, CASPT2-K, improved NEVPT2
   Axel Koslowski         : Symmetry handling
   Simone Kossmann        : Meta GGA functionals, TD-DFT gradient, OOMP2, (MP2 Hessian; deprecated post 5.0)
   Lucas Lang             : DCDCAS
   Marvin Lechner         : AUTO-CI (C++ implementation), FIC-MRCC
   Spencer Leger          : CASSCF response
   Dagmar Lenk            : GEPOL surface, SMD, ORCA-2-JSON
   Dimitrios Liakos       : Extrapolation schemes; Compound Job, initial MDCI parallelization
   Dimitrios Manganas     : Further ROCIS development; embedding schemes. LFT, Crystal Embedding
   Dimitrios Pantazis     : SARC Basis sets
   Anastasios Papadopoulos: AUTO-CI, single reference methods and gradients
   Taras Petrenko         : pre 6.0 DFT Hessian and TD-DFT gradient, (ASA, deprecated), ECA, 1-Electron XAS/XES, NRVS
   Peter Pinski           : DLPNO-MP2, DLPNO-MP2 Gradient
   Christoph Reimann      : Effective Core Potentials
   Marius Retegan         : Local ZFS, SOC
   Christoph Riplinger    : Optimizer, TS searches, QM/MM, DLPNO-CCSD(T), (RO)-DLPNO pert. Triples
   Michael Roemelt        : Original ROCIS implementation
   Masaaki Saitow         : Open-shell DLPNO-CCSD energy and density
   Barbara Sandhoefer     : DKH picture change effects
   Kantharuban Sivalingam : CASSCF convergence/infrastructure, NEVPT2 and variants, FIC-MRCI
   Bernardo de Souza      : ESD, SOC TD-DFT
   Georgi Stoychev        : AutoAux, RI-MP2 NMR, DLPNO-MP2 response, X2C
   Van Anh Tran           : RI-MP2 g-tensors
   Willem Van den Heuvel  : Paramagnetic NMR
   Zikuan Wang            : NOTCH, Electric field optimization 
   Frank Wennmohs         : Technical directorship and infrastructure
   Hang Xu                : AUTO-CI-Response properties 


 We gratefully acknowledge several colleagues who have allowed us to
 interface, adapt or use parts of their codes:
   Stefan Grimme, W. Hujo, H. Kruse, P. Pracht,  : VdW corrections, initial TS optimization,
                  C. Bannwarth, S. Ehlert,         DFT functionals, gCP, sTDA/sTD-DF
                  L. Wittmann, M. Mueller
   Ed Valeev, F. Pavosevic, A. Kumar             : LibInt (2-el integral package), F12 methods
   Garnet Chan, S. Sharma, J. Yang, R. Olivares  : DMRG
   Ulf Ekstrom                                   : XCFun DFT Library
   Mihaly Kallay                                 : mrcc  (arbitrary order and MRCC methods)
   Frank Weinhold                                : gennbo (NPA and NBO analysis)
   Simon Mueller                                 : openCOSMO-RS
   Christopher J. Cramer and Donald G. Truhlar   : smd solvation model
   Lars Goerigk                                  : TD-DFT with DH, B97 family of functionals
   V. Asgeirsson, H. Jonsson                     : NEB implementation
   FAccTs GmbH                                   : IRC, NEB, NEB-TS, DLPNO-Multilevel, CI-OPT
                                                   MM, QMMM, 2- and 3-layer-ONIOM, Crystal-QMMM,
                                                   LR-CPCM, SF, NACMEs, symmetry and pop. for TD-DFT,
                                                   nearIR, NL-DFT gradient (VV10), updates on ESD,
                                                   ML-optimized integration grids, MBIS, APM,
                                                   GOAT, DOCKER, SOLVATOR, interface openCOSMO-RS
   S Lehtola, MJT Oliveira, MAL Marques          : LibXC Library
   Liviu Ungur et al                             : ANISO software


 Your calculation uses the libint2 library for the computation of 2-el integrals
 For citations please refer to: http://libint.valeyev.net

 Your ORCA version has been built with support for libXC version: 6.2.2
 For citations please refer to: https://libxc.gitlab.io

 This ORCA versions uses:
   CBLAS   interface :  Fast vector & matrix operations
   LAPACKE interface :  Fast linear algebra routines
   SCALAPACK package :  Parallel linear algebra routines
   Shared memory     :  Shared parallel matrices
   BLAS/LAPACK       :  OpenBLAS 0.3.27  USE64BITINT DYNAMIC_ARCH NO_AFFINITY SkylakeX SINGLE_THREADED
        Core in use  :  SkylakeX
   Copyright (c) 2011-2014, The OpenBLAS Project


NOTE: MaxCore=3000 MB was set to SCF,MP2,MDCI,CIPSI,MRCI and CIS
      => If you want to overwrite this, your respective input block should be placed after the MaxCore statement
Your calculation utilizes the atom-pairwise dispersion correction
with the Becke-Johnson damping scheme (D3BJ)


Your calculation utilizes the SMD solvation module
Please cite in your paper:
A.V. Marenich, C.J. Cramer, D.G. Truhlar J. Phys. Chem. B, 113, (2009), 6378 

Warning: RI is on but no J-basis has been assigned. Assigning Def2/J (nothing to worry about!)
================================================================================

----- Orbital basis set information -----
Your calculation utilizes the basis: aug-cc-pVTZ 
    H, B-Ne : Obtained from the ccRepo (grant-hill.group.shef.ac.uk/ccrepo) Feb. 2017
              R. A. Kendall, T. H. Dunning, Jr., R. J. Harrison, J. Chem. Phys. 96, 6796 (1992)
         He : Obtained from the ccRepo (grant-hill.group.shef.ac.uk/ccrepo) Feb. 2017
              D. E. Woon, T. H. Dunning, Jr., J. Chem. Phys. 100, 2975 (1994)
  Li-Be, Na : Obtained from the ccRepo (grant-hill.group.shef.ac.uk/ccrepo) Feb. 2017
              B. P. Prascher, D. E. Woon, K. A. Peterson, T. H. Dunning, Jr., A. K. Wilson, Theor. Chem. Acc. 128, 69 (2011)
         Mg : Obtained from the Peterson Research Group Website (tyr0.chem.wsu.edu/~kipeters) Feb. 2017
              B. P. Prascher, D. E. Woon, K. A. Peterson, T. H. Dunning, Jr., A. K. Wilson, Theor. Chem. Acc. 128, 69 (2011)
      Al-Ar : Obtained from the ccRepo (grant-hill.group.shef.ac.uk/ccrepo) Feb. 2017
              D. E. Woon, T. H. Dunning, Jr., J. Chem. Phys. 98, 1358 (1993)
      Sc-Zn : Obtained from the ccRepo (grant-hill.group.shef.ac.uk/ccrepo) Feb. 2017
              N. B. Balabanov, K. A. Peterson, J. Chem. Phys. 123, 064107 (2005)
              N. B. Balabanov, K. A. Peterson, J. Chem. Phys. 125, 074110 (2006)
      Ga-Kr : Obtained from the ccRepo (grant-hill.group.shef.ac.uk/ccrepo) Feb. 2017
              A. K. Wilson, D. E. Woon, K. A. Peterson, T. H. Dunning, Jr., J. Chem. Phys. 110, 7667 (1999)
     Ag, Au : Obtained from the Peterson Research Group Website (tyr0.chem.wsu.edu/~kipeters) Feb. 2017
              K. A. Peterson, C. Puzzarini, Theor. Chem. Acc. 114, 283 (2005)

----- AuxJ basis set information -----
Your calculation utilizes the auxiliary basis: def2/J
   F. Weigend, Phys. Chem. Chem. Phys. 8, 1057 (2006).

================================================================================
                                        WARNINGS
                       Please study these warnings very carefully!
================================================================================


WARNING: your system is open-shell and RHF/RKS was chosen
  ===> : WILL SWITCH to UHF/UKS


================================================================================
                                       INPUT FILE
================================================================================
NAME = cs_rporg_080_ox_solv_04.inp
|  1> !PBE0 aug-cc-pVTZ d3 TightSCF SlowConv RIJCOSX defgrid2
|  2>  
|  3> %pal
|  4> nprocs 4
|  5> end
|  6>  
|  7> %scf
|  8> MaxIter 1500
|  9> end
| 10>  
| 11> %maxcore 3000
| 12>  
| 13> !CPCM
| 14> %cpcm smd true
| 15> SMDsolvent "MeCN"
| 16> surfacetype gepol_ses
| 17> rsolv 2.19
| 18> end 
| 19>  
| 20> * xyz 1 2
| 21> C           2.10074069713964     -0.03623551022709      0.33749659871253
| 22> C           2.28528308407684     -1.00752299995307     -0.66845525084634
| 23> C           3.55854065372565     -1.40796132368585     -1.00587360020280
| 24> C           4.68249131779385     -0.86605497847815     -0.34228468182816
| 25> C           4.49410486888580      0.09282810810827      0.67448234828818
| 26> C           3.21443563230482      0.50407669582157      1.00485264191955
| 27> H           3.07723883642763      1.26509156223799      1.77871020660964
| 28> H           5.34504061581579      0.52911655526770      1.19977321493419
| 29> O           5.85957111079757     -1.32009234548199     -0.73263129283529
| 30> C           7.04850127917866     -0.86024283407437     -0.12168488196846
| 31> H           7.05512576176798     -1.09734211644688      0.95677335906268
| 32> H           7.17453578603241      0.22645663792845     -0.27205541020094
| 33> H           7.86948886250749     -1.39474999506796     -0.61807937295301
| 34> H           3.72936926674930     -2.16465573433241     -1.77503931686740
| 35> H           1.42319555532723     -1.45115446559524     -1.17357438144306
| 36> S           0.53310799676805      0.50835431053803      0.87944925726859
| 37> S          -0.53256657645917      0.51157250736075     -0.87298747821769
| 38> C          -2.10050433131834     -0.03456082645027     -0.33376593608310
| 39> C          -2.28614846748860     -1.00654106417423      0.67133142906854
| 40> C          -3.55972901842260     -1.40767887923690      1.00664018727382
| 41> C          -4.68294557147944     -0.86577074838656      0.34176687797768
| 42> C          -4.49345078730343      0.09376398773271     -0.67420576981618
| 43> C          -3.21349104560759      0.50568127921148     -1.00247721129044
| 44> H          -3.07548115689053      1.26718515114297     -1.77571342523042
| 45> H          -5.34379775111145      0.53000288222862     -1.20048622064007
| 46> O          -5.86039219693820     -1.32045276361291      0.73014290561810
| 47> C          -7.04863669150853     -0.86088719818355      0.11760799023957
| 48> H          -7.05349716792618     -1.09749864586999     -0.96096207362486
| 49> H          -7.87010373607049     -1.39602142441654      0.61252372140508
| 50> H          -7.17540081825230      0.22567978049243      0.26830217206131
| 51> H          -3.73137732634319     -2.16495328714636      1.77505264858787
| 52> H          -1.42462428217865     -1.45015721725065      1.17741544502090
| 53> *
| 54> 
| 55>                          ****END OF INPUT****
================================================================================

                       ****************************
                       * Single Point Calculation *
                       ****************************

---------------------------------
CARTESIAN COORDINATES (ANGSTROEM)
---------------------------------
  C      2.100741   -0.036236    0.337497
  C      2.285283   -1.007523   -0.668455
  C      3.558541   -1.407961   -1.005874
  C      4.682491   -0.866055   -0.342285
  C      4.494105    0.092828    0.674482
  C      3.214436    0.504077    1.004853
  H      3.077239    1.265092    1.778710
  H      5.345041    0.529117    1.199773
  O      5.859571   -1.320092   -0.732631
  C      7.048501   -0.860243   -0.121685
  H      7.055126   -1.097342    0.956773
  H      7.174536    0.226457   -0.272055
  H      7.869489   -1.394750   -0.618079
  H      3.729369   -2.164656   -1.775039
  H      1.423196   -1.451154   -1.173574
  S      0.533108    0.508354    0.879449
  S     -0.532567    0.511573   -0.872987
  C     -2.100504   -0.034561   -0.333766
  C     -2.286148   -1.006541    0.671331
  C     -3.559729   -1.407679    1.006640
  C     -4.682946   -0.865771    0.341767
  C     -4.493451    0.093764   -0.674206
  C     -3.213491    0.505681   -1.002477
  H     -3.075481    1.267185   -1.775713
  H     -5.343798    0.530003   -1.200486
  O     -5.860392   -1.320453    0.730143
  C     -7.048637   -0.860887    0.117608
  H     -7.053497   -1.097499   -0.960962
  H     -7.870104   -1.396021    0.612524
  H     -7.175401    0.225680    0.268302
  H     -3.731377   -2.164953    1.775053
  H     -1.424624   -1.450157    1.177415

----------------------------
CARTESIAN COORDINATES (A.U.)
----------------------------
  NO LB      ZA    FRAG     MASS         X           Y           Z
   0 C     6.0000    0    12.011    3.969825   -0.068475    0.637776
   1 C     6.0000    0    12.011    4.318559   -1.903943   -1.263197
   2 C     6.0000    0    12.011    6.724667   -2.660661   -1.900826
   3 C     6.0000    0    12.011    8.848626   -1.636607   -0.646824
   4 C     6.0000    0    12.011    8.492627    0.175420    1.274587
   5 C     6.0000    0    12.011    6.074403    0.952567    1.898896
   6 H     1.0000    0     1.008    5.815139    2.390677    3.361275
   7 H     1.0000    0     1.008   10.100663    0.999885    2.267243
   8 O     8.0000    0    15.999   11.072985   -2.494613   -1.384473
   9 C     6.0000    0    12.011   13.319737   -1.625623   -0.229951
  10 H     1.0000    0     1.008   13.332256   -2.073676    1.808040
  11 H     1.0000    0     1.008   13.557908    0.427941   -0.514110
  12 H     1.0000    0     1.008   14.871179   -2.635696   -1.168001
  13 H     1.0000    0     1.008    7.047487   -4.090607   -3.354338
  14 H     1.0000    0     1.008    2.689450   -2.742285   -2.217734
  15 S    16.0000    0    32.060    1.007428    0.960650    1.661918
  16 S    16.0000    0    32.060   -1.006405    0.966732   -1.649707
  17 C     6.0000    0    12.011   -3.969378   -0.065310   -0.630726
  18 C     6.0000    0    12.011   -4.320195   -1.902087    1.268633
  19 C     6.0000    0    12.011   -6.726913   -2.660128    1.902274
  20 C     6.0000    0    12.011   -8.849485   -1.636070    0.645846
  21 C     6.0000    0    12.011   -8.491391    0.177188   -1.274064
  22 C     6.0000    0    12.011   -6.072618    0.955599   -1.894407
  23 H     1.0000    0     1.008   -5.811817    2.394633   -3.355612
  24 H     1.0000    0     1.008  -10.098314    1.001560   -2.268590
  25 O     8.0000    0    15.999  -11.074536   -2.495294    1.379770
  26 C     6.0000    0    12.011  -13.319993   -1.626841    0.222247
  27 H     1.0000    0     1.008  -13.329178   -2.073972   -1.815955
  28 H     1.0000    0     1.008  -14.872341   -2.638098    1.157502
  29 H     1.0000    0     1.008  -13.559542    0.426473    0.507018
  30 H     1.0000    0     1.008   -7.051281   -4.091169    3.354363
  31 H     1.0000    0     1.008   -2.692150   -2.740400    2.224993

--------------------------------
INTERNAL COORDINATES (ANGSTROEM)
--------------------------------
 C      0   0   0     0.000000000000     0.00000000     0.00000000
 C      1   0   0     1.410458933789     0.00000000     0.00000000
 C      2   1   0     1.376730486429   119.74229600     0.00000000
 C      3   2   1     1.413250803936   120.59135294     0.75069543
 C      4   3   2     1.410234527093   119.53949593     0.02677177
 C      5   4   3     1.384132683980   119.84236297   359.38254721
 H      6   5   4     1.093993655436   119.43692363   181.39585538
 H      5   4   3     1.091040672528   120.98669588   180.21101480
 O      4   3   2     1.320620023496   115.99120934   179.61833966
 C      9   4   3     1.413602502608   120.66781717   180.94999303
 H     10   9   4     1.104233730294   110.93445969    60.81412900
 H     10   9   4     1.104269774616   110.93255997   298.11528931
 H     10   9   4     1.098237682751   105.96600420   179.47874360
 H      3   2   1     1.092421505566   121.24240165   179.45900124
 H      2   1   3     1.093228759514   120.38477649   179.35218884
 S      1   2   3     1.745784362478   123.62175392   181.97052990
 S     16   1   2     2.051025881040   101.64266609   323.08301082
 C     17  16   1     1.745694788018   101.66943165   142.79816304
 C     18  17  16     1.410471566979   123.63603232   323.28231258
 C     19  18  17     1.376717447307   119.74270030   181.95046509
 C     20  19  18     1.413271511337   120.59177693     0.74842537
 C     21  20  19     1.410253737494   119.53943720     0.03252562
 C     22  21  20     1.384100767527   119.84227281   359.37865923
 H     23  22  21     1.093996855068   119.43595497   181.39604765
 H     22  21  20     1.091038699977   120.98599911   180.20679549
 O     21  20  19     1.320587834875   115.99170650   179.62126381
 C     26  21  20     1.413621063214   120.66992774   180.96310438
 H     27  26  21     1.104229135674   110.93318370    60.80969416
 H     27  26  21     1.098234185564   105.96536703   179.47455567
 H     27  26  21     1.104267032657   110.93130417   298.11096400
 H     20  19  18     1.092421796372   121.24209259   179.45521311
 H     19  18  17     1.093224699843   120.38397171     1.30095812

---------------------------
INTERNAL COORDINATES (A.U.)
---------------------------
 C      0   0   0     0.000000000000     0.00000000     0.00000000
 C      1   0   0     2.665381108004     0.00000000     0.00000000
 C      2   1   0     2.601643579572   119.74229600     0.00000000
 C      3   2   1     2.670656977983   120.59135294     0.75069543
 C      4   3   2     2.664957040806   119.53949593     0.02677177
 C      5   4   3     2.615631705732   119.84236297   359.38254721
 H      6   5   4     2.067348401021   119.43692363   181.39585538
 H      5   4   3     2.061768072047   120.98669588   180.21101480
 O      4   3   2     2.495610171380   115.99120934   179.61833966
 C      9   4   3     2.671321592155   120.66781717   180.94999303
 H     10   9   4     2.086699338094   110.93445969    60.81412900
 H     10   9   4     2.086767451991   110.93255997   298.11528931
 H     10   9   4     2.075368450351   105.96600420   179.47874360
 H      3   2   1     2.064377468326   121.24240165   179.45900124
 H      2   1   3     2.065902957208   120.38477649   179.35218884
 S      1   2   3     3.299054333965   123.62175392   181.97052990
 S     16   1   2     3.875877208750   101.64266609   323.08301082
 C     17  16   1     3.298885062768   101.66943165   142.79816304
 C     18  17  16     2.665404981272   123.63603232   323.28231258
 C     19  18  17     2.601618939202   119.74270030   181.95046509
 C     20  19  18     2.670696109300   120.59177693     0.74842537
 C     21  20  19     2.664993343202   119.53943720     0.03252562
 C     22  21  20     2.615571392376   119.84227281   359.37865923
 H     23  22  21     2.067354447450   119.43595497   181.39604765
 H     22  21  20     2.061764344466   120.98599911   180.20679549
 O     21  20  19     2.495549343702   115.99170650   179.62126381
 C     26  21  20     2.671356666617   120.66992774   180.96310438
 H     27  26  21     2.086690655521   110.93318370    60.80969416
 H     27  26  21     2.075361841627   105.96536703   179.47455567
 H     27  26  21     2.086762270440   110.93130417   298.11096400
 H     20  19  18     2.064378017870   121.24209259   179.45521311
 H     19  18  17     2.065895285541   120.38397171     1.30095812

---------------------
BASIS SET INFORMATION
---------------------
There are 4 groups of distinct atoms

 Group   1 Type C   : 19s6p3d2f contracted to 5s4p3d2f pattern {88111/3111/111/11}
 Group   2 Type H   : 6s3p2d contracted to 4s3p2d pattern {3111/111/11}
 Group   3 Type O   : 19s6p3d2f contracted to 5s4p3d2f pattern {88111/3111/111/11}
 Group   4 Type S   : 42s17p3d2f contracted to 6s5p3d2f pattern {131313111/77111/111/11}

Atom   0C    basis set group =>   1
Atom   1C    basis set group =>   1
Atom   2C    basis set group =>   1
Atom   3C    basis set group =>   1
Atom   4C    basis set group =>   1
Atom   5C    basis set group =>   1
Atom   6H    basis set group =>   2
Atom   7H    basis set group =>   2
Atom   8O    basis set group =>   3
Atom   9C    basis set group =>   1
Atom  10H    basis set group =>   2
Atom  11H    basis set group =>   2
Atom  12H    basis set group =>   2
Atom  13H    basis set group =>   2
Atom  14H    basis set group =>   2
Atom  15S    basis set group =>   4
Atom  16S    basis set group =>   4
Atom  17C    basis set group =>   1
Atom  18C    basis set group =>   1
Atom  19C    basis set group =>   1
Atom  20C    basis set group =>   1
Atom  21C    basis set group =>   1
Atom  22C    basis set group =>   1
Atom  23H    basis set group =>   2
Atom  24H    basis set group =>   2
Atom  25O    basis set group =>   3
Atom  26C    basis set group =>   1
Atom  27H    basis set group =>   2
Atom  28H    basis set group =>   2
Atom  29H    basis set group =>   2
Atom  30H    basis set group =>   2
Atom  31H    basis set group =>   2
---------------------------------
AUXILIARY/J BASIS SET INFORMATION
---------------------------------
There are 4 groups of distinct atoms

 Group   1 Type C   : 12s5p4d2f1g contracted to 6s4p3d1f1g pattern {711111/2111/211/2/1}
 Group   2 Type H   : 5s2p1d contracted to 3s1p1d pattern {311/2/1}
 Group   3 Type O   : 12s5p4d2f1g contracted to 6s4p3d1f1g pattern {711111/2111/211/2/1}
 Group   4 Type S   : 14s5p5d2f1g contracted to 8s4p3d1f1g pattern {71111111/2111/311/2/1}

Atom   0C    basis set group =>   1
Atom   1C    basis set group =>   1
Atom   2C    basis set group =>   1
Atom   3C    basis set group =>   1
Atom   4C    basis set group =>   1
Atom   5C    basis set group =>   1
Atom   6H    basis set group =>   2
Atom   7H    basis set group =>   2
Atom   8O    basis set group =>   3
Atom   9C    basis set group =>   1
Atom  10H    basis set group =>   2
Atom  11H    basis set group =>   2
Atom  12H    basis set group =>   2
Atom  13H    basis set group =>   2
Atom  14H    basis set group =>   2
Atom  15S    basis set group =>   4
Atom  16S    basis set group =>   4
Atom  17C    basis set group =>   1
Atom  18C    basis set group =>   1
Atom  19C    basis set group =>   1
Atom  20C    basis set group =>   1
Atom  21C    basis set group =>   1
Atom  22C    basis set group =>   1
Atom  23H    basis set group =>   2
Atom  24H    basis set group =>   2
Atom  25O    basis set group =>   3
Atom  26C    basis set group =>   1
Atom  27H    basis set group =>   2
Atom  28H    basis set group =>   2
Atom  29H    basis set group =>   2
Atom  30H    basis set group =>   2
Atom  31H    basis set group =>   2


           ************************************************************
           *        Program running with 4 parallel MPI-processes     *
           *              working on a common directory               *
           ************************************************************
------------------------------------------------------------------------------
                             ORCA STARTUP CALCULATIONS
                           -- RI-GTO INTEGRALS CHOSEN --
------------------------------------------------------------------------------
------------------------------------------------------------------------------
                   ___                                                        
                  /   \      - P O W E R E D   B Y -                         
                 /     \                                                     
                 |  |  |   _    _      __       _____    __    __             
                 |  |  |  | |  | |    /  \     |  _  \  |  |  /  |          
                  \  \/   | |  | |   /    \    | | | |  |  | /  /          
                 / \  \   | |__| |  /  /\  \   | |_| |  |  |/  /          
                |  |  |   |  __  | /  /__\  \  |    /   |      \           
                |  |  |   | |  | | |   __   |  |    \   |  |\   \          
                \     /   | |  | | |  |  |  |  | |\  \  |  | \   \       
                 \___/    |_|  |_| |__|  |__|  |_| \__\ |__|  \__/        
                                                                              
                      - O R C A' S   B I G   F R I E N D -                    
                                      &                                       
                       - I N T E G R A L  F E E D E R -                       
                                                                              
 v1 FN, 2020, v2 2021, v3 2022-2024                                           
------------------------------------------------------------------------------


----------------------
SHARK INTEGRAL PACKAGE
----------------------

Number of atoms                             ...     32
Number of basis functions                   ...   1304
Number of shells                            ...    508
Maximum angular momentum                    ...      3
Integral batch strategy                     ... SHARK/LIBINT Hybrid
RI-J (if used) integral strategy            ... SPLIT-RIJ (Revised 2003 algorithm where possible)
Printlevel                                  ...      1
Contraction scheme used                     ... PARTIAL GENERAL contraction
Prescreening option                         ... SCHWARTZ
   Thresh                                   ... 2.500e-11
   Tcut                                     ... 2.500e-12
   Tpresel                                  ... 2.500e-12 
Coulomb Range Separation                    ... NOT USED
Exchange Range Separation                   ... NOT USED
Multipole approximations                    ... NOT USED
Finite Nucleus Model                        ... NOT USED
CABS basis                                  ... NOT available
Auxiliary Coulomb fitting basis             ... AVAILABLE
   # of basis functions in Aux-J            ...   1040
   # of shells in Aux-J                     ...    344
   Maximum angular momentum in Aux-J        ...      4
Auxiliary J/K fitting basis                 ... NOT available
Auxiliary Correlation fitting basis         ... NOT available
Auxiliary 'external' fitting basis          ... NOT available

Checking pre-screening integrals            ... done (  0.0 sec) Dimension = 508
Save PGC pre-screening integrals            ... done (  0.0 sec) Dimension = 508
Calculate PGC overlap integrals             ... done (  0.2 sec) Dimension = 382
Calculating pre-screening integrals (ORCA)  ... done (  0.9 sec) Dimension = 382
Check shell pair data                       ... done (  0.0 sec)
Shell pair information
Shell pair cut-off parameter TPreSel        ...   2.5e-12
Total number of shell pairs                 ...    129286
Shell pairs after pre-screening             ...     79039
Total number of primitive shell pairs       ...    161686
Primitive shell pairs kept                  ...     90110
          la=0 lb=0:  17683 shell pairs
          la=1 lb=0:  20988 shell pairs
          la=1 lb=1:   5830 shell pairs
          la=2 lb=0:  13267 shell pairs
          la=2 lb=1:   7296 shell pairs
          la=2 lb=2:   2339 shell pairs
          la=3 lb=0:   5894 shell pairs
          la=3 lb=1:   3246 shell pairs
          la=3 lb=2:   2022 shell pairs
          la=3 lb=3:    474 shell pairs

Calculating one electron integrals          ... done (  0.4 sec)
Calculating RI/J V-Matrix + Cholesky decomp.... done (  0.1 sec)
Calculating Nuclear repulsion               ... done (  0.0 sec) ENN=   1424.049529243892 Eh

Diagonalization of the overlap matrix:
Smallest eigenvalue                        ... 3.857e-07
Time for diagonalization                   ...    0.280 sec
Threshold for overlap eigenvalues          ... 1.000e-07
Number of eigenvalues below threshold      ... 0

IMPORTANT:
Smallest eigenvalue of S below the DiffSThresh (1.000e-06) while
Thresh>1e-12 and/or TCut>1e-13! In order to avoid SCF convergence issues,
Thresh will be set to at least 1e-12 and TCut to at least 1e-13.
This can be turned off by adding %SCF DiffSThresh -1 END to the input.

Time for construction of square roots      ...    0.226 sec
Total time needed                          ...    0.548 sec

-------------------
DFT GRID GENERATION
-------------------

General Integration Accuracy     IntAcc      ... 4.388
Radial Grid Type                 RadialGrid  ... OptM3 with GC (2021)
Angular Grid (max. ang.)         AngularGrid ... 4 (Lebedev-302)
Angular grid pruning method      GridPruning ... 4 (adaptive)
Weight generation scheme         WeightScheme... mBecke (2022)
Basis function cutoff            BFCut       ... 1.0000e-11
Integration weight cutoff        WCut        ... 1.0000e-14
Partially contracted basis set               ... off
Rotationally invariant grid construction     ... off
Angular grids for H and He will be reduced by one unit
Diffuse basis detected: some atoms will have their outermost
                        angular grid increased by 1.

Total number of grid points                  ...   162848
Total number of batches                      ...     2560
Average number of points per batch           ...       63
Average number of grid points per atom       ...     5089

---------------------
SHARK GRID GENERATION
---------------------

General Integration Accuracy     IntAcc      ... 4.388
Radial Grid Type                 RadialGrid  ... OptM3 with GC (2021)
Angular Grid (max. ang.)         AngularGrid ... 4 (Lebedev-302)
Angular grid pruning method      GridPruning ... 4 (adaptive)
Weight generation scheme         WeightScheme... mBecke (2022)
Basis function cutoff            BFCut       ... 1.0000e-11
Integration weight cutoff        WCut        ... 1.0000e-14
Partially contracted basis set               ... off
Rotationally invariant grid construction     ... off
Angular grids for H and He will be reduced by one unit
Diffuse basis detected: some atoms will have their outermost
                        angular grid increased by 1.
Core-polarized basis detected: some atoms will have their core
                               angular grid increased.
Steep s-basis detected: some atoms will have their radial
                        grid points doubled.

Total number of grid points                  ...   287968
Total number of batches                      ...     4514
Average number of points per batch           ...       63
Average number of grid points per atom       ...     8999

--------------------
COSX GRID GENERATION
--------------------

GRIDX 1
-------
General Integration Accuracy     IntAcc      ... 3.816
Radial Grid Type                 RadialGrid  ... OptM3 with GC (2021)
Angular Grid (max. ang.)         AngularGrid ... 1 (Lebedev-50)
Angular grid pruning method      GridPruning ... 4 (adaptive)
Weight generation scheme         WeightScheme... mBecke (2022)
Basis function cutoff            BFCut       ... 1.0000e-11
Integration weight cutoff        WCut        ... 1.0000e-14
Partially contracted basis set               ... on
Rotationally invariant grid construction     ... off
Angular grids for H and He will be reduced by one unit
Diffuse basis detected: some atoms will have their outermost
                        angular grid increased by 1.

Total number of grid points                  ...    22761
Total number of batches                      ...      196
Average number of points per batch           ...      116
Average number of grid points per atom       ...      711
UseSFitting                                  ... on

GRIDX 2
-------
General Integration Accuracy     IntAcc      ... 4.020
Radial Grid Type                 RadialGrid  ... OptM3 with GC (2021)
Angular Grid (max. ang.)         AngularGrid ... 2 (Lebedev-110)
Angular grid pruning method      GridPruning ... 4 (adaptive)
Weight generation scheme         WeightScheme... mBecke (2022)
Basis function cutoff            BFCut       ... 1.0000e-11
Integration weight cutoff        WCut        ... 1.0000e-14
Partially contracted basis set               ... on
Rotationally invariant grid construction     ... off
Angular grids for H and He will be reduced by one unit
Diffuse basis detected: some atoms will have their outermost
                        angular grid increased by 1.

Total number of grid points                  ...    48963
Total number of batches                      ...      399
Average number of points per batch           ...      122
Average number of grid points per atom       ...     1530
UseSFitting                                  ... on

GRIDX 3
-------
General Integration Accuracy     IntAcc      ... 4.338
Radial Grid Type                 RadialGrid  ... OptM3 with GC (2021)
Angular Grid (max. ang.)         AngularGrid ... 3 (Lebedev-194)
Angular grid pruning method      GridPruning ... 4 (adaptive)
Weight generation scheme         WeightScheme... mBecke (2022)
Basis function cutoff            BFCut       ... 1.0000e-11
Integration weight cutoff        WCut        ... 1.0000e-14
Partially contracted basis set               ... on
Rotationally invariant grid construction     ... off
Angular grids for H and He will be reduced by one unit
Diffuse basis detected: some atoms will have their outermost
                        angular grid increased by 1.

Total number of grid points                  ...   109574
Total number of batches                      ...      871
Average number of points per batch           ...      125
Average number of grid points per atom       ...     3424
UseSFitting                                  ... on
Initializing property integral containers    ... done (  0.1 sec)

SHARK setup successfully completed in  19.3 seconds

Maximum memory used throughout the entire STARTUP-calculation: 180.1 MB


           ************************************************************
           *        Program running with 4 parallel MPI-processes     *
           *              working on a common directory               *
           ************************************************************
-------------------------------------------------------------------------------
                                 ORCA GUESS
                   Start orbitals & Density for SCF / CASSCF
-------------------------------------------------------------------------------

------------
SCF SETTINGS
------------
Hamiltonian:
 Density Functional     Method          .... DFT(GTOs)
 Exchange Functional    Exchange        .... PBE
   PBE kappa parameter   XKappa         ....  0.804000
   PBE mue parameter    XMuePBE         ....  0.219520
 Correlation Functional Correlation     .... PBE
   PBE beta parameter  CBetaPBE         ....  0.066725
 LDA part of GGA corr.  LDAOpt          .... PW91-LDA
 Gradients option       PostSCFGGA      .... off
 Hybrid DFT is turned on
   Fraction HF Exchange ScalHFX         ....  0.250000
   Scaling of DF-GGA-X  ScalDFX         ....  0.750000
   Scaling of DF-GGA-C  ScalDFC         ....  1.000000
   Scaling of DF-LDA-C  ScalLDAC        ....  1.000000
   Perturbative correction              ....  0.000000
   NL short-range parameter             ....  6.900000
 RI-approximation to the Coulomb term is turned on
   Number of AuxJ basis functions       .... 1040
   RIJ-COSX (HFX calculated with COS-X)).... on


General Settings:
 Integral files         IntName         .... cs_rporg_080_ox_solv_04
 Hartree-Fock type      HFTyp           .... UHF
 Total Charge           Charge          ....    1
 Multiplicity           Mult            ....    2
 Number of Electrons    NEL             ....  145
 Basis Dimension        Dim             .... 1158
 Nuclear Repulsion      ENuc            ....   1424.0495292439 Eh

Convergence Acceleration:
 AO-DIIS                CNVDIIS         .... on
   Start iteration      DIISMaxIt       ....     0
   Startup error        DIISStart       ....  0.200000
   # of expansion vecs  DIISMaxEq       ....     5
   Bias factor          DIISBfac        ....   1.050
   Max. coefficient     DIISMaxC        ....  10.000
 MO-DIIS                CNVKDIIS        .... off
 Trust-Rad. Augm. Hess. CNVTRAH         .... auto
   Auto Start mean grad. ratio tolernc. ....  1.125000
   Auto Start start iteration           ....    50
   Auto Start num. interpolation iter.  ....    10
   Max. Number of Micro iterations      ....    24
   Max. Number of Macro iterations      .... Maxiter - #DIIS iter
   Number of Davidson start vectors     ....     2
   Converg. threshold    (grad. norm)   ....   1.000e-05
   Grad. Scal. Fac. for Micro threshold ....   0.100
   Minimum threshold for Micro iter.    ....   1.000e-02
   NR start threshold (gradient norm)   ....   1.000e-04
   Initial trust radius                 ....   0.400
   Minimum AH scaling param. (alpha)    ....   1.000
   Maximum AH scaling param. (alpha)    .... 1000.000
   Quad. conv. algorithm                .... NR
   White noise on init. David. guess    .... on
   Maximum white noise                  ....   0.010
   Pseudo random numbers                .... off
   Inactive MOs                         .... canonical
   Orbital update algorithm             .... Taylor
   Preconditioner                       .... Diag
   Full preconditioner red. dimension   ....   250
 SOSCF                  CNVSOSCF        .... on
   Start iteration      SOSCFMaxIt      ....   150
   Startup grad/error   SOSCFStart      ....  0.001000
   Hessian update       SOSCFHessUp     .... L-BFGS
 Level Shifting         CNVShift        .... on
   Level shift para.    LevelShift      ....    0.2500
   Turn off err/grad.   ShiftErr        ....    0.0000
 Zerner damping         CNVZerner       .... off
 Static damping         CNVDamp         .... on
   Fraction old density DampFac         ....    0.8500
   Max. Damping (<1)    DampMax         ....    0.9800
   Min. Damping (>=0)   DampMin         ....    0.0000
   Turn off err/grad.   DampErr         ....    0.0300

SCF Procedure:
 Maximum # iterations   MaxIter         ....  1500
 SCF integral mode      SCFMode         .... Direct
   Integral package                     .... SHARK and LIBINT hybrid scheme
 Reset frequency        DirectResetFreq ....    20
 Integral Threshold     Thresh          ....  1.000e-12 Eh
 Primitive CutOff       TCut            ....  1.000e-13 Eh

Convergence Tolerance:
 Convergence Check Mode ConvCheckMode   .... Total+1el-Energy
 Convergence forced     ConvForced      .... 0
 Energy Change          TolE            ....  1.000e-08 Eh
 1-El. energy change                    ....  1.000e-05 Eh
 Orbital Gradient       TolG            ....  1.000e-05
 Orbital Rotation angle TolX            ....  1.000e-05
 DIIS Error             TolErr          ....  5.000e-07

------------------------------
INITIAL GUESS: MODEL POTENTIAL
------------------------------
Loading Hartree-Fock densities                     ... done
Calculating cut-offs                               ... done
Initializing the effective Hamiltonian             ... done
Setting up the integral package (SHARK)            ... done
Starting the Coulomb interaction                   ... done (   2.1 sec)
Making the grid                                    ... done (   0.8 sec)
Mapping shells                                     ... done
Starting the XC term evaluation                    ... done (   2.5 sec)
  promolecular density results
     # of electrons  =    145.994228434
     EX              =   -141.883911290
     EC              =     -5.064147826
     EX+EC           =   -146.948059116
Transforming the Hamiltonian                       ... done (   0.2 sec)
Diagonalizing the Hamiltonian                      ... done (   0.3 sec)
Back transforming the eigenvectors                 ... done (   0.2 sec)
Now organizing SCF variables                       ... done
                      ------------------
                      INITIAL GUESS DONE (   6.6 sec)
                      ------------------
             **** ENERGY FILE WAS UPDATED (cs_rporg_080_ox_solv_04.en.tmp) ****
Finished Guess after   8.4 sec
Maximum memory used throughout the entire GUESS-calculation: 145.2 MB


           ************************************************************
           *        Program running with 4 parallel MPI-processes     *
           *              working on a common directory               *
           ************************************************************

-------------------------------------------------------------------------------------------
                                      ORCA LEAN-SCF
                              memory conserving SCF solver
-------------------------------------------------------------------------------------------

--------------------
CPCM SOLVATION MODEL
--------------------
CPCM parameters:
  Epsilon                                         ...      35.6880
  Refrac                                          ...       1.3442
  Rsolv                                           ...       2.1900
  Surface type                                    ...    GEPOL SES
  Discretization scheme                           ... Constant num. charges
  Epsilon function type                           ...         CPCM
Solvent:                                          ... ACETONITRILE
SMD-CDS solvent descriptors:
  Soln                                            ...       1.3442
  Soln25                                          ...       1.3416
  Sola                                            ...       0.0700
  Solb                                            ...       0.3200
  Solg                                            ...      41.2500
  Solc                                            ...       0.0000
  Solh                                            ...       0.0000
Radii:
  Scheme                                          ... Element-dependent radii
  Radius for C  used is    3.4960 Bohr (=   1.8500 Ang.)
  Radius for H  used is    2.2677 Bohr (=   1.2000 Ang.)
  Radius for O  used is    4.0969 Bohr (=   2.1680 Ang.)
  Radius for S  used is    4.7054 Bohr (=   2.4900 Ang.)
Calculating surface                               ...        done! (  0.0s)
Cavity surface points                             ...          987
Cavity Volume                                     ...    2200.2902
Cavity Surface-area                               ...    1114.2175
Calculating surface distance matrix               ...        done! (  0.0s)
Performing Cholesky decomposition & store         ...        done! (  0.0s)
Overall time for CPCM initialization              ...                 0.1s

----------------------------------------D-I-I-S--------------------------------------------
Iteration    Energy (Eh)           Delta-E    RMSDP     MaxDP     DIISErr   Damp  Time(sec)
-------------------------------------------------------------------------------------------
               ***  Starting incremental Fock matrix formation  ***
    1    -1487.3837274196318958     0.00e+00  4.58e-04  6.21e-02  7.88e-02  0.850  95.1
Warning: op=0 Small HOMO/LUMO gap (   0.067) - skipping pre-diagonalization
         Will do a full diagonalization
    2    -1487.4757900237812009    -9.21e-02  4.48e-04  5.35e-02  5.86e-02  0.850  54.9
                               ***Turning on AO-DIIS***
    3    -1487.5390463716878457    -6.33e-02  3.44e-04  3.93e-02  4.03e-02  0.850  53.5
    4    -1487.5795718843066879    -4.05e-02  2.86e-04  3.20e-02  3.25e-02  0.850  52.2
    5    -1487.6085538484769586    -2.90e-02  2.43e-04  2.70e-02  2.73e-02  0.850  52.2
    6    -1487.6311256335905000    -2.26e-02  1.38e-03  1.53e-01  2.32e-02  0.000  52.0
    7    -1487.7433443642937618    -1.12e-01  7.21e-05  5.13e-03  1.54e-03  0.000  55.5
                              *** Initializing SOSCF ***
---------------------------------------S-O-S-C-F--------------------------------------
Iteration    Energy (Eh)           Delta-E    RMSDP     MaxDP     MaxGrad    Time(sec)
--------------------------------------------------------------------------------------
    8    -1487.7434901325161718    -1.46e-04  2.29e-05  1.68e-03  7.52e-04    50.3
               *** Restarting incremental Fock matrix formation ***
    9    -1487.7435190718499598    -2.89e-05  6.86e-04  3.84e-02  1.02e-03    97.3
   10    -1487.7435412931401970    -2.22e-05  3.85e-04  1.87e-02  3.68e-04    84.6
   11    -1487.7435492776182855    -7.98e-06  3.10e-04  1.53e-02  1.69e-04    82.6
   12    -1487.7435516219090914    -2.34e-06  1.31e-04  6.29e-03  9.96e-05    81.1
   13    -1487.7435518981735640    -2.76e-07  6.22e-05  3.02e-03  4.42e-05    77.7
   14    -1487.7435522236303314    -3.25e-07  2.85e-05  1.38e-03  2.72e-05    75.9
   15    -1487.7435522472380853    -2.36e-08  1.85e-06  1.03e-04  2.03e-05    72.2
   16    -1487.7435522443768150     2.86e-09  6.75e-06  3.31e-04  8.51e-06    62.7
                 **** Energy Check signals convergence ****

               *****************************************************
               *                     SUCCESS                       *
               *           SCF CONVERGED AFTER  16 CYCLES          *
               *****************************************************

Recomputing exchange energy using gridx3       ... done (  154.112 sec)
Old exchange energy                            :    -35.925819918 Eh
New exchange energy                            :    -35.925759126 Eh
Exchange energy change after final integration :      0.000060792 Eh
Total energy after final integration           :  -1487.743491452 Eh

SMD CDS free energy correction energy :                -3.13426     Kcal/mol
Total Energy after SMD CDS correction =             -1487.748486220 Eh
             **** ENERGY FILE WAS UPDATED (cs_rporg_080_ox_solv_04.en.tmp) ****

----------------
TOTAL SCF ENERGY
----------------

Total Energy       :      -1487.74848622029162 Eh          -40483.69446 eV

Components:
Nuclear Repulsion  :       1424.04952924389204 Eh           38750.35772 eV
Electronic Energy  :      -2911.72339998780353 Eh          -79232.02179 eV
One Electron Energy:      -4849.39701550763493 Eh         -131958.80145 eV
Two Electron Energy:       1937.67361551983163 Eh           52726.77966 eV
CPCM Dielectric    :         -0.06968150046512 Eh              -1.89613 eV
SMD CDS (Gcds)     :         -0.00499476831904 Eh              -0.13591 eV

Virial components:
Potential Energy   :      -2968.99381946591075 Eh          -80790.42913 eV
Kinetic Energy     :       1481.24533324561935 Eh           40306.73467 eV
Virial Ratio       :          2.00439032807646

DFT components:
N(Alpha)           :       72.999994411725 electrons
N(Beta)            :       71.999988946425 electrons
N(Total)           :      144.999983358150 electrons
E(X)               :     -107.436935654015 Eh       
E(C)               :       -5.027694362610 Eh       
E(XC)              :     -112.464630016625 Eh       

CPCM Solvation Model Properties:
Surface-charge          :         -1.04190036792179
Corrected charge        :         -1.00000000000000
Outlying charge corr.   :          0.00009074037395 Eh               0.00247 eV
Free-energy (cav+disp)  :         -0.00499476831904 Eh              -0.13591 eV

---------------
SCF CONVERGENCE
---------------

  Last Energy change         ...   -2.8613e-09  Tolerance :   1.0000e-08
  Last MAX-Density change    ...    3.3069e-04  Tolerance :   1.0000e-07
  Last RMS-Density change    ...    6.7507e-06  Tolerance :   5.0000e-09
  Last DIIS Error            ...    7.5203e-04  Tolerance :   5.0000e-07
  Last Orbital Gradient      ...    8.5062e-06  Tolerance :   1.0000e-05
  Last Orbital Rotation      ...    3.7418e-05  Tolerance :   1.0000e-05


----------------------
UHF SPIN CONTAMINATION
----------------------

Warning: in a DFT calculation there is little theoretical justification to 
         calculate <S**2> as in Hartree-Fock theory. We will do it anyways
         but you should keep in mind that the values have only limited relevance

Expectation value of <S**2>     :     0.757182
Ideal value S*(S+1) for S=0.5   :     0.750000
Deviation                       :     0.007182

----------------
ORBITAL ENERGIES
----------------
                 SPIN UP ORBITALS
  NO   OCC          E(Eh)            E(eV) 
   0   1.0000     -89.144892     -2425.7558 
   1   1.0000     -89.144780     -2425.7528 
   2   1.0000     -19.274023      -524.4728 
   3   1.0000     -19.273903      -524.4696 
   4   1.0000     -10.326043      -280.9859 
   5   1.0000     -10.325930      -280.9828 
   6   1.0000     -10.302098      -280.3343 
   7   1.0000     -10.301967      -280.3308 
   8   1.0000     -10.278546      -279.6935 
   9   1.0000     -10.278508      -279.6924 
  10   1.0000     -10.269383      -279.4441 
  11   1.0000     -10.269293      -279.4417 
  12   1.0000     -10.267995      -279.4063 
  13   1.0000     -10.267926      -279.4045 
  14   1.0000     -10.255410      -279.0639 
  15   1.0000     -10.255331      -279.0618 
  16   1.0000     -10.253361      -279.0081 
  17   1.0000     -10.253262      -279.0055 
  18   1.0000      -8.098599      -220.3741 
  19   1.0000      -8.098463      -220.3704 
  20   1.0000      -6.035812      -164.2428 
  21   1.0000      -6.035526      -164.2350 
  22   1.0000      -6.031474      -164.1248 
  23   1.0000      -6.031356      -164.1215 
  24   1.0000      -6.030983      -164.1114 
  25   1.0000      -6.030875      -164.1084 
  26   1.0000      -1.138698       -30.9856 
  27   1.0000      -1.138590       -30.9826 
  28   1.0000      -0.939626       -25.5685 
  29   1.0000      -0.920718       -25.0540 
  30   1.0000      -0.883820       -24.0500 
  31   1.0000      -0.834510       -22.7082 
  32   1.0000      -0.807721       -21.9792 
  33   1.0000      -0.804381       -21.8883 
  34   1.0000      -0.790443       -21.5090 
  35   1.0000      -0.763401       -20.7732 
  36   1.0000      -0.729840       -19.8600 
  37   1.0000      -0.697416       -18.9777 
  38   1.0000      -0.661898       -18.0112 
  39   1.0000      -0.661287       -17.9945 
  40   1.0000      -0.630434       -17.1550 
  41   1.0000      -0.615484       -16.7482 
  42   1.0000      -0.573782       -15.6134 
  43   1.0000      -0.572348       -15.5744 
  44   1.0000      -0.542317       -14.7572 
  45   1.0000      -0.532555       -14.4915 
  46   1.0000      -0.519054       -14.1242 
  47   1.0000      -0.509654       -13.8684 
  48   1.0000      -0.506419       -13.7804 
  49   1.0000      -0.506161       -13.7733 
  50   1.0000      -0.481835       -13.1114 
  51   1.0000      -0.481341       -13.0980 
  52   1.0000      -0.462627       -12.5887 
  53   1.0000      -0.462175       -12.5764 
  54   1.0000      -0.454122       -12.3573 
  55   1.0000      -0.446064       -12.1380 
  56   1.0000      -0.442267       -12.0347 
  57   1.0000      -0.432180       -11.7602 
  58   1.0000      -0.415923       -11.3178 
  59   1.0000      -0.412770       -11.2320 
  60   1.0000      -0.400109       -10.8875 
  61   1.0000      -0.395929       -10.7738 
  62   1.0000      -0.387399       -10.5417 
  63   1.0000      -0.383280       -10.4296 
  64   1.0000      -0.376895       -10.2558 
  65   1.0000      -0.357806        -9.7364 
  66   1.0000      -0.357450        -9.7267 
  67   1.0000      -0.349749        -9.5172 
  68   1.0000      -0.311600        -8.4791 
  69   1.0000      -0.300190        -8.1686 
  70   1.0000      -0.299190        -8.1414 
  71   1.0000      -0.259582        -7.0636 
  72   1.0000      -0.243721        -6.6320 
  73   0.0000      -0.081068        -2.2060 
  74   0.0000      -0.042666        -1.1610 
  75   0.0000      -0.036231        -0.9859 
  76   0.0000      -0.031445        -0.8557 
  77   0.0000      -0.022843        -0.6216 
  78   0.0000      -0.003255        -0.0886 
  79   0.0000      -0.001073        -0.0292 
  80   0.0000       0.010423         0.2836 
  81   0.0000       0.011423         0.3108 
  82   0.0000       0.013265         0.3610 
  83   0.0000       0.015235         0.4146 

                 SPIN DOWN ORBITALS
  NO   OCC          E(Eh)            E(eV) 
   0   1.0000     -89.143013     -2425.7047 
   1   1.0000     -89.142908     -2425.7018 
   2   1.0000     -19.272525      -524.4321 
   3   1.0000     -19.272417      -524.4291 
   4   1.0000     -10.324893      -280.9546 
   5   1.0000     -10.324789      -280.9518 
   6   1.0000     -10.301119      -280.3077 
   7   1.0000     -10.300995      -280.3043 
   8   1.0000     -10.278605      -279.6951 
   9   1.0000     -10.278567      -279.6940 
  10   1.0000     -10.268840      -279.4293 
  11   1.0000     -10.268755      -279.4270 
  12   1.0000     -10.267450      -279.3915 
  13   1.0000     -10.267382      -279.3897 
  14   1.0000     -10.255278      -279.0603 
  15   1.0000     -10.255198      -279.0581 
  16   1.0000     -10.253483      -279.0115 
  17   1.0000     -10.253387      -279.0088 
  18   1.0000      -8.096679      -220.3218 
  19   1.0000      -8.096543      -220.3181 
  20   1.0000      -6.034576      -164.2092 
  21   1.0000      -6.034285      -164.2012 
  22   1.0000      -6.030078      -164.0868 
  23   1.0000      -6.029979      -164.0841 
  24   1.0000      -6.024860      -163.9448 
  25   1.0000      -6.024758      -163.9420 
  26   1.0000      -1.135821       -30.9073 
  27   1.0000      -1.135737       -30.9050 
  28   1.0000      -0.934580       -25.4312 
  29   1.0000      -0.917794       -24.9745 
  30   1.0000      -0.878863       -23.9151 
  31   1.0000      -0.830326       -22.5943 
  32   1.0000      -0.806607       -21.9489 
  33   1.0000      -0.803363       -21.8606 
  34   1.0000      -0.787136       -21.4191 
  35   1.0000      -0.760499       -20.6942 
  36   1.0000      -0.727624       -19.7997 
  37   1.0000      -0.690737       -18.7959 
  38   1.0000      -0.660267       -17.9668 
  39   1.0000      -0.659532       -17.9468 
  40   1.0000      -0.628888       -17.1129 
  41   1.0000      -0.612313       -16.6619 
  42   1.0000      -0.572919       -15.5899 
  43   1.0000      -0.570954       -15.5364 
  44   1.0000      -0.540943       -14.7198 
  45   1.0000      -0.531624       -14.4662 
  46   1.0000      -0.517628       -14.0854 
  47   1.0000      -0.504700       -13.7336 
  48   1.0000      -0.501171       -13.6375 
  49   1.0000      -0.500990       -13.6326 
  50   1.0000      -0.480489       -13.0748 
  51   1.0000      -0.480002       -13.0615 
  52   1.0000      -0.462069       -12.5735 
  53   1.0000      -0.461659       -12.5624 
  54   1.0000      -0.451898       -12.2968 
  55   1.0000      -0.445404       -12.1201 
  56   1.0000      -0.436869       -11.8878 
  57   1.0000      -0.427184       -11.6243 
  58   1.0000      -0.412051       -11.2125 
  59   1.0000      -0.409797       -11.1511 
  60   1.0000      -0.395894       -10.7728 
  61   1.0000      -0.394908       -10.7460 
  62   1.0000      -0.378594       -10.3021 
  63   1.0000      -0.374690       -10.1958 
  64   1.0000      -0.369286       -10.0488 
  65   1.0000      -0.356765        -9.7081 
  66   1.0000      -0.356108        -9.6902 
  67   1.0000      -0.336377        -9.1533 
  68   1.0000      -0.298228        -8.1152 
  69   1.0000      -0.297939        -8.1073 
  70   1.0000      -0.289205        -7.8697 
  71   1.0000      -0.242049        -6.5865 
  72   0.0000      -0.180620        -4.9149 
  73   0.0000      -0.074192        -2.0189 
  74   0.0000      -0.037603        -1.0232 
  75   0.0000      -0.030535        -0.8309 
  76   0.0000      -0.024435        -0.6649 
  77   0.0000      -0.017169        -0.4672 
  78   0.0000      -0.002819        -0.0767 
  79   0.0000       0.000468         0.0127 
  80   0.0000       0.011425         0.3109 
  81   0.0000       0.013262         0.3609 
  82   0.0000       0.013477         0.3667 
*Only the first 10 virtual orbitals were printed.

                    ********************************
                    * MULLIKEN POPULATION ANALYSIS *
                    ********************************

--------------------------------------------
MULLIKEN ATOMIC CHARGES AND SPIN POPULATIONS
--------------------------------------------
   0 C :    0.952441    0.021236
   1 C :   -0.559216    0.020646
   2 C :   -1.037554   -0.007759
   3 C :    0.924063    0.067658
   4 C :   -0.357406    0.010967
   5 C :   -1.091228    0.024687
   6 H :    0.519347   -0.006375
   7 H :    0.527903    0.003436
   8 O :   -0.579777    0.047611
   9 C :   -0.729366   -0.004218
  10 H :    0.325937    0.002800
  11 H :    0.318389    0.002183
  12 H :    0.258382    0.000281
  13 H :    0.583482    0.002263
  14 H :    0.649889    0.006451
  15 S :   -0.206872    0.306691
  16 S :   -0.206064    0.307991
  17 C :    0.956526    0.021729
  18 C :   -0.520598    0.020370
  19 C :   -1.064384   -0.007710
  20 C :    0.924907    0.068296
  21 C :   -0.354322    0.010829
  22 C :   -1.096851    0.024690
  23 H :    0.520688   -0.006380
  24 H :    0.521959    0.003533
  25 O :   -0.576880    0.048014
  26 C :   -0.728327   -0.004295
  27 H :    0.326376    0.002876
  28 H :    0.259539    0.000282
  29 H :    0.319028    0.002191
  30 H :    0.559585    0.002328
  31 H :    0.660404    0.006699
Sum of atomic charges         :    1.0000000
Sum of atomic spin populations:    1.0000000

-----------------------------------------------------
MULLIKEN REDUCED ORBITAL CHARGES AND SPIN POPULATIONS
-----------------------------------------------------
CHARGE
  0 C s       :     2.957570  s :     2.957570
      pz      :     0.823049  p :     2.155414
      px      :     0.322152
      py      :     1.010213
      dz2     :     0.009673  d :    -0.043262
      dxz     :     0.036309
      dyz     :    -0.007102
      dx2y2   :    -0.025306
      dxy     :    -0.056836
      f0      :    -0.002960  f :    -0.022163
      f+1     :    -0.005567
      f-1     :     0.000537
      f+2     :    -0.000502
      f-2     :    -0.008599
      f+3     :    -0.005581
      f-3     :     0.000509

  1 C s       :     3.784989  s :     3.784989
      pz      :     0.890450  p :     2.714933
      px      :     0.934659
      py      :     0.889824
      dz2     :    -0.013621  d :     0.069598
      dxz     :     0.035356
      dyz     :     0.008506
      dx2y2   :     0.030431
      dxy     :     0.008925
      f0      :     0.002201  f :    -0.010303
      f+1     :    -0.002824
      f-1     :     0.000292
      f+2     :    -0.002368
      f-2     :    -0.002475
      f+3     :    -0.005857
      f-3     :     0.000727

  2 C s       :     3.946663  s :     3.946663
      pz      :     0.974302  p :     2.914190
      px      :     0.976963
      py      :     0.962925
      dz2     :     0.004623  d :     0.195724
      dxz     :     0.046736
      dyz     :     0.024974
      dx2y2   :     0.084677
      dxy     :     0.034714
      f0      :    -0.001214  f :    -0.019022
      f+1     :    -0.004867
      f-1     :     0.003496
      f+2     :     0.000307
      f-2     :    -0.006287
      f+3     :    -0.007648
      f-3     :    -0.002809

  3 C s       :     3.062823  s :     3.062823
      pz      :     0.884376  p :     2.079348
      px      :     0.476133
      py      :     0.718838
      dz2     :    -0.024130  d :    -0.069951
      dxz     :     0.001217
      dyz     :    -0.005013
      dx2y2   :    -0.043306
      dxy     :     0.001281
      f0      :     0.001471  f :     0.003719
      f+1     :     0.007240
      f-1     :     0.000975
      f+2     :    -0.001825
      f-2     :    -0.010699
      f+3     :     0.005813
      f-3     :     0.000745

  4 C s       :     3.662106  s :     3.662106
      pz      :     0.942368  p :     2.504069
      px      :     0.724886
      py      :     0.836815
      dz2     :     0.018344  d :     0.208913
      dxz     :     0.066973
      dyz     :     0.010225
      dx2y2   :     0.032108
      dxy     :     0.081262
      f0      :    -0.000226  f :    -0.017682
      f+1     :    -0.004420
      f-1     :    -0.001085
      f+2     :     0.001705
      f-2     :    -0.007635
      f+3     :    -0.006855
      f-3     :     0.000834

  5 C s       :     4.172841  s :     4.172841
      pz      :     0.958141  p :     2.782625
      px      :     0.813931
      py      :     1.010554
      dz2     :     0.038862  d :     0.147633
      dxz     :     0.006006
      dyz     :     0.005727
      dx2y2   :     0.064521
      dxy     :     0.032517
      f0      :    -0.001052  f :    -0.011871
      f+1     :    -0.004068
      f-1     :     0.002246
      f+2     :     0.003751
      f-2     :    -0.005360
      f+3     :    -0.005942
      f-3     :    -0.001447

  6 H s       :     0.460306  s :     0.460306
      pz      :    -0.001258  p :     0.014970
      px      :     0.015760
      py      :     0.000468
      dz2     :     0.003593  d :     0.005377
      dxz     :     0.000359
      dyz     :    -0.000524
      dx2y2   :     0.001851
      dxy     :     0.000097

  7 H s       :     0.481041  s :     0.481041
      pz      :     0.000134  p :    -0.016617
      px      :    -0.016656
      py      :    -0.000094
      dz2     :     0.001504  d :     0.007672
      dxz     :     0.001756
      dyz     :    -0.000530
      dx2y2   :     0.002555
      dxy     :     0.002387

  8 O s       :     4.107261  s :     4.107261
      pz      :     1.619874  p :     4.384274
      px      :     1.120942
      py      :     1.643458
      dz2     :     0.010485  d :     0.081032
      dxz     :     0.026863
      dyz     :     0.004194
      dx2y2   :     0.013387
      dxy     :     0.026102
      f0      :     0.000031  f :     0.007210
      f+1     :     0.001981
      f-1     :     0.000374
      f+2     :     0.000659
      f-2     :     0.002005
      f+3     :     0.001956
      f-3     :     0.000205

  9 C s       :     3.518090  s :     3.518090
      pz      :     1.065324  p :     2.993117
      px      :     0.829070
      py      :     1.098724
      dz2     :     0.068951  d :     0.188043
      dxz     :     0.028636
      dyz     :     0.001412
      dx2y2   :     0.052561
      dxy     :     0.036484
      f0      :     0.003099  f :     0.030116
      f+1     :     0.004277
      f-1     :     0.002131
      f+2     :     0.003840
      f-2     :     0.006135
      f+3     :     0.004092
      f-3     :     0.006542

 10 H s       :     0.646313  s :     0.646313
      pz      :     0.012504  p :     0.023001
      px      :     0.004036
      py      :     0.006462
      dz2     :    -0.000233  d :     0.004749
      dxz     :     0.001391
      dyz     :     0.002455
      dx2y2   :     0.000611
      dxy     :     0.000525

 11 H s       :     0.652603  s :     0.652603
      pz      :     0.006373  p :     0.024195
      px      :     0.004729
      py      :     0.013093
      dz2     :     0.000583  d :     0.004814
      dxz     :     0.000113
      dyz     :     0.002666
      dx2y2   :     0.000019
      dxy     :     0.001432

 12 H s       :     0.706220  s :     0.706220
      pz      :     0.010254  p :     0.034146
      px      :     0.012745
      py      :     0.011147
      dz2     :     0.001580  d :     0.001252
      dxz     :     0.000276
      dyz     :    -0.000027
      dx2y2   :    -0.000855
      dxy     :     0.000278

 13 H s       :     0.426560  s :     0.426560
      pz      :    -0.004342  p :    -0.014878
      px      :    -0.004538
      py      :    -0.005997
      dz2     :     0.003292  d :     0.004836
      dxz     :     0.000251
      dyz     :    -0.000599
      dx2y2   :     0.001615
      dxy     :     0.000277

 14 H s       :     0.401212  s :     0.401212
      pz      :    -0.010277  p :    -0.058396
      px      :    -0.043086
      py      :    -0.005033
      dz2     :     0.001571  d :     0.007295
      dxz     :     0.001228
      dyz     :     0.000286
      dx2y2   :     0.001462
      dxy     :     0.002748

 15 S s       :     6.213600  s :     6.213600
      pz      :     3.182360  p :     9.847710
      px      :     3.031811
      py      :     3.633539
      dz2     :     0.017649  d :     0.120111
      dxz     :     0.036446
      dyz     :     0.013760
      dx2y2   :     0.007445
      dxy     :     0.044810
      f0      :     0.004232  f :     0.025451
      f+1     :     0.003397
      f-1     :     0.002897
      f+2     :     0.004501
      f-2     :     0.004327
      f+3     :     0.002560
      f-3     :     0.003538

 16 S s       :     6.213299  s :     6.213299
      pz      :     3.182152  p :     9.846638
      px      :     3.032792
      py      :     3.631694
      dz2     :     0.017782  d :     0.120744
      dxz     :     0.036515
      dyz     :     0.013970
      dx2y2   :     0.007496
      dxy     :     0.044980
      f0      :     0.004215  f :     0.025383
      f+1     :     0.003367
      f-1     :     0.002916
      f+2     :     0.004486
      f-2     :     0.004299
      f+3     :     0.002558
      f-3     :     0.003542

 17 C s       :     2.960771  s :     2.960771
      pz      :     0.818165  p :     2.148221
      px      :     0.324058
      py      :     1.005998
      dz2     :     0.007711  d :    -0.043583
      dxz     :     0.040041
      dyz     :    -0.006851
      dx2y2   :    -0.028419
      dxy     :    -0.056065
      f0      :    -0.002943  f :    -0.021936
      f+1     :    -0.005535
      f-1     :     0.000551
      f+2     :    -0.000529
      f-2     :    -0.008512
      f+3     :    -0.005416
      f-3     :     0.000447

 18 C s       :     3.775343  s :     3.775343
      pz      :     0.890181  p :     2.690152
      px      :     0.910845
      py      :     0.889126
      dz2     :    -0.013537  d :     0.065549
      dxz     :     0.035279
      dyz     :     0.007665
      dx2y2   :     0.029978
      dxy     :     0.006164
      f0      :     0.002211  f :    -0.010446
      f+1     :    -0.002857
      f-1     :     0.000294
      f+2     :    -0.002334
      f-2     :    -0.002540
      f+3     :    -0.005939
      f-3     :     0.000718

 19 C s       :     3.980720  s :     3.980720
      pz      :     0.973201  p :     2.907041
      px      :     0.970448
      py      :     0.963392
      dz2     :     0.005025  d :     0.195480
      dxz     :     0.047253
      dyz     :     0.023065
      dx2y2   :     0.084698
      dxy     :     0.035439
      f0      :    -0.001225  f :    -0.018857
      f+1     :    -0.004764
      f-1     :     0.003482
      f+2     :     0.000272
      f-2     :    -0.006195
      f+3     :    -0.007598
      f-3     :    -0.002830

 20 C s       :     3.064431  s :     3.064431
      pz      :     0.883069  p :     2.077318
      px      :     0.474573
      py      :     0.719676
      dz2     :    -0.023143  d :    -0.070338
      dxz     :     0.000409
      dyz     :    -0.005758
      dx2y2   :    -0.043727
      dxy     :     0.001881
      f0      :     0.001463  f :     0.003682
      f+1     :     0.007308
      f-1     :     0.000970
      f+2     :    -0.001899
      f-2     :    -0.010694
      f+3     :     0.005835
      f-3     :     0.000700

 21 C s       :     3.652073  s :     3.652073
      pz      :     0.943921  p :     2.509616
      px      :     0.723188
      py      :     0.842506
      dz2     :     0.017929  d :     0.210435
      dxz     :     0.069197
      dyz     :     0.008496
      dx2y2   :     0.031932
      dxy     :     0.082881
      f0      :    -0.000239  f :    -0.017802
      f+1     :    -0.004385
      f-1     :    -0.001069
      f+2     :     0.001654
      f-2     :    -0.007675
      f+3     :    -0.006890
      f-3     :     0.000802

 22 C s       :     4.169661  s :     4.169661
      pz      :     0.957707  p :     2.794522
      px      :     0.825470
      py      :     1.011345
      dz2     :     0.038311  d :     0.144359
      dxz     :     0.004760
      dyz     :     0.004538
      dx2y2   :     0.064220
      dxy     :     0.032530
      f0      :    -0.001054  f :    -0.011690
      f+1     :    -0.003966
      f-1     :     0.002265
      f+2     :     0.003848
      f-2     :    -0.005379
      f+3     :    -0.005968
      f-3     :    -0.001436

 23 H s       :     0.459581  s :     0.459581
      pz      :    -0.001644  p :     0.014365
      px      :     0.015790
      py      :     0.000218
      dz2     :     0.003589  d :     0.005366
      dxz     :     0.000370
      dyz     :    -0.000524
      dx2y2   :     0.001835
      dxy     :     0.000096

 24 H s       :     0.486172  s :     0.486172
      pz      :     0.000481  p :    -0.015809
      px      :    -0.016208
      py      :    -0.000081
      dz2     :     0.001518  d :     0.007678
      dxz     :     0.001761
      dyz     :    -0.000538
      dx2y2   :     0.002544
      dxy     :     0.002393

 25 O s       :     4.104218  s :     4.104218
      pz      :     1.619715  p :     4.384005
      px      :     1.120923
      py      :     1.643367
      dz2     :     0.010552  d :     0.081442
      dxz     :     0.026928
      dyz     :     0.004215
      dx2y2   :     0.013630
      dxy     :     0.026117
      f0      :     0.000036  f :     0.007215
      f+1     :     0.001974
      f-1     :     0.000373
      f+2     :     0.000661
      f-2     :     0.002007
      f+3     :     0.001960
      f-3     :     0.000203

 26 C s       :     3.516380  s :     3.516380
      pz      :     1.065141  p :     2.993471
      px      :     0.829596
      py      :     1.098734
      dz2     :     0.069116  d :     0.188377
      dxz     :     0.028713
      dyz     :     0.001515
      dx2y2   :     0.052572
      dxy     :     0.036462
      f0      :     0.003086  f :     0.030099
      f+1     :     0.004276
      f-1     :     0.002136
      f+2     :     0.003856
      f-2     :     0.006131
      f+3     :     0.004085
      f-3     :     0.006529

 27 H s       :     0.645719  s :     0.645719
      pz      :     0.012606  p :     0.023146
      px      :     0.004145
      py      :     0.006395
      dz2     :    -0.000236  d :     0.004759
      dxz     :     0.001397
      dyz     :     0.002459
      dx2y2   :     0.000609
      dxy     :     0.000530

 28 H s       :     0.705155  s :     0.705155
      pz      :     0.010320  p :     0.034057
      px      :     0.012622
      py      :     0.011115
      dz2     :     0.001575  d :     0.001250
      dxz     :     0.000273
      dyz     :    -0.000024
      dx2y2   :    -0.000851
      dxy     :     0.000277

 29 H s       :     0.652132  s :     0.652132
      pz      :     0.006407  p :     0.024060
      px      :     0.004692
      py      :     0.012961
      dz2     :     0.000586  d :     0.004781
      dxz     :     0.000103
      dyz     :     0.002663
      dx2y2   :     0.000019
      dxy     :     0.001409

 30 H s       :     0.448480  s :     0.448480
      pz      :    -0.003062  p :    -0.012867
      px      :    -0.004461
      py      :    -0.005344
      dz2     :     0.003287  d :     0.004802
      dxz     :     0.000240
      dyz     :    -0.000612
      dx2y2   :     0.001608
      dxy     :     0.000279

 31 H s       :     0.394648  s :     0.394648
      pz      :    -0.010031  p :    -0.062387
      px      :    -0.047570
      py      :    -0.004786
      dz2     :     0.001608  d :     0.007335
      dxz     :     0.001206
      dyz     :     0.000279
      dx2y2   :     0.001485
      dxy     :     0.002757


SPIN
  0 C s       :     0.004515  s :     0.004515
      pz      :     0.031240  p :     0.030023
      px      :    -0.009703
      py      :     0.008486
      dz2     :    -0.001973  d :    -0.013916
      dxz     :     0.001307
      dyz     :    -0.005309
      dx2y2   :    -0.011274
      dxy     :     0.003333
      f0      :     0.000019  f :     0.000614
      f+1     :     0.000094
      f-1     :    -0.000159
      f+2     :     0.000184
      f-2     :     0.000214
      f+3     :     0.000085
      f-3     :     0.000175

  1 C s       :    -0.006024  s :    -0.006024
      pz      :     0.032415  p :     0.030587
      px      :     0.000181
      py      :    -0.002008
      dz2     :     0.003363  d :    -0.002853
      dxz     :    -0.003059
      dyz     :     0.000158
      dx2y2   :    -0.003857
      dxy     :     0.000542
      f0      :     0.000011  f :    -0.001064
      f+1     :    -0.000123
      f-1     :    -0.000100
      f+2     :    -0.000154
      f-2     :    -0.000563
      f+3     :    -0.000164
      f-3     :     0.000029

  2 C s       :    -0.001566  s :    -0.001566
      pz      :    -0.000803  p :    -0.011339
      px      :    -0.004480
      py      :    -0.006056
      dz2     :     0.000932  d :     0.005708
      dxz     :     0.005877
      dyz     :     0.000379
      dx2y2   :     0.000477
      dxy     :    -0.001957
      f0      :     0.000007  f :    -0.000562
      f+1     :    -0.000439
      f-1     :    -0.000042
      f+2     :    -0.000153
      f-2     :     0.000076
      f+3     :     0.000158
      f-3     :    -0.000170

  3 C s       :     0.002579  s :     0.002579
      pz      :     0.039043  p :     0.062445
      px      :    -0.001583
      py      :     0.024986
      dz2     :     0.001025  d :     0.002882
      dxz     :    -0.000254
      dyz     :    -0.000295
      dx2y2   :     0.000994
      dxy     :     0.001412
      f0      :     0.000065  f :    -0.000248
      f+1     :     0.000154
      f-1     :    -0.000097
      f+2     :    -0.000036
      f-2     :    -0.000356
      f+3     :    -0.000087
      f-3     :     0.000109

  4 C s       :    -0.000244  s :    -0.000244
      pz      :     0.007168  p :     0.008607
      px      :    -0.002154
      py      :     0.003593
      dz2     :     0.002815  d :     0.003332
      dxz     :     0.005885
      dyz     :     0.000387
      dx2y2   :    -0.001824
      dxy     :    -0.003931
      f0      :    -0.000288  f :    -0.000728
      f+1     :    -0.000029
      f-1     :    -0.000049
      f+2     :    -0.000162
      f-2     :    -0.000163
      f+3     :    -0.000005
      f-3     :    -0.000033

  5 C s       :    -0.004631  s :    -0.004631
      pz      :     0.018088  p :     0.028363
      px      :    -0.000953
      py      :     0.011228
      dz2     :    -0.000671  d :     0.001229
      dxz     :     0.006130
      dyz     :     0.000143
      dx2y2   :    -0.002323
      dxy     :    -0.002051
      f0      :    -0.000062  f :    -0.000274
      f+1     :     0.000072
      f-1     :    -0.000006
      f+2     :    -0.000027
      f-2     :     0.000029
      f+3     :    -0.000282
      f-3     :     0.000001

  6 H s       :    -0.006888  s :    -0.006888
      pz      :     0.000942  p :     0.000388
      px      :    -0.000055
      py      :    -0.000499
      dz2     :     0.000119  d :     0.000125
      dxz     :    -0.000043
      dyz     :     0.000034
      dx2y2   :    -0.000003
      dxy     :     0.000018

  7 H s       :     0.002952  s :     0.002952
      pz      :     0.001676  p :     0.000412
      px      :    -0.000438
      py      :    -0.000826
[...]
      f-3     :     0.003027

 22 C s       :     0.000700  s :     0.000700
      pz      :     0.007847  p :     0.017001
      px      :     0.000285
      py      :     0.008870
      dz2     :     0.000919  d :     0.004792
      dxz     :     0.004136
      dyz     :    -0.000172
      dx2y2   :     0.000338
      dxy     :    -0.000429
      f0      :     0.000277  f :     0.006423
      f+1     :     0.003636
      f-1     :    -0.000002
      f+2     :     0.000077
      f-2     :     0.000062
      f+3     :     0.002030
      f-3     :     0.000343

 23 H s       :    -0.000338  s :    -0.000338
      pz      :     0.001131  p :     0.002716
      px      :     0.001219
      py      :     0.000366
      dz2     :     0.002605  d :     0.002541
      dxz     :    -0.000154
      dyz     :     0.000023
      dx2y2   :     0.000149
      dxy     :    -0.000082

 24 H s       :    -0.000210  s :    -0.000210
      pz      :     0.000404  p :     0.000900
      px      :    -0.000038
      py      :     0.000535
      dz2     :     0.000941  d :     0.000869
      dxz     :    -0.000156
      dyz     :    -0.000022
      dx2y2   :     0.000348
      dxy     :    -0.000242

 25 O s       :     0.000966  s :     0.000966
      pz      :     0.016935  p :     0.036028
      px      :     0.000884
      py      :     0.018209
      dz2     :     0.001343  d :     0.005752
      dxz     :     0.001872
      dyz     :    -0.000025
      dx2y2   :     0.001044
      dxy     :     0.001517
      f0      :     0.000094  f :     0.001865
      f+1     :     0.000195
      f-1     :     0.000176
      f+2     :     0.000603
      f-2     :    -0.000016
      f+3     :     0.000389
      f-3     :     0.000424

 26 C s       :    -0.000133  s :    -0.000133
      pz      :    -0.000281  p :    -0.001106
      px      :    -0.000625
      py      :    -0.000200
      dz2     :     0.002437  d :     0.003592
      dxz     :     0.000153
      dyz     :     0.000002
      dx2y2   :     0.000694
      dxy     :     0.000306
      f0      :     0.000016  f :     0.002162
      f+1     :     0.001065
      f-1     :     0.000115
      f+2     :     0.000278
      f-2     :     0.000028
      f+3     :     0.000380
      f-3     :     0.000280

 27 H s       :     0.001054  s :     0.001054
      pz      :     0.000124  p :     0.000051
      px      :    -0.000038
      py      :    -0.000035
      dz2     :    -0.000000  d :     0.000090
      dxz     :    -0.000021
      dyz     :    -0.000030
      dx2y2   :     0.000089
      dxy     :     0.000051

 28 H s       :    -0.000024  s :    -0.000024
      pz      :    -0.000058  p :    -0.000195
      px      :    -0.000088
      py      :    -0.000048
      dz2     :     0.000084  d :     0.000079
      dxz     :     0.000005
      dyz     :    -0.000009
      dx2y2   :    -0.000023
      dxy     :     0.000023

 29 H s       :     0.001120  s :     0.001120
      pz      :    -0.000041  p :     0.000021
      px      :    -0.000061
      py      :     0.000123
      dz2     :     0.000040  d :     0.000058
      dxz     :     0.000010
      dyz     :    -0.000032
      dx2y2   :     0.000038
      dxy     :     0.000002

 30 H s       :     0.000328  s :     0.000328
      pz      :    -0.000076  p :    -0.000487
      px      :    -0.000042
      py      :    -0.000369
      dz2     :    -0.000019  d :    -0.000086
      dxz     :    -0.000094
      dyz     :    -0.000019
      dx2y2   :     0.000062
      dxy     :    -0.000017

 31 H s       :    -0.000141  s :    -0.000141
      pz      :     0.000029  p :     0.001766
      px      :     0.001594
      py      :     0.000143
      dz2     :     0.000223  d :     0.002762
      dxz     :     0.000259
      dyz     :    -0.000048
      dx2y2   :     0.000420
      dxy     :     0.001908



                      *****************************
                      * MAYER POPULATION ANALYSIS *
                      *****************************

  NA   - Mulliken gross atomic population
  ZA   - Total nuclear charge
  QA   - Mulliken gross atomic charge
  VA   - Mayer's total valence
  BVA  - Mayer's bonded valence
  FA   - Mayer's free valence

  ATOM       NA         ZA         QA         VA         BVA        FA
  0 C      5.0476     6.0000     0.9524     2.1360     2.1316     0.0043
  1 C      6.5592     6.0000    -0.5592     2.5570     2.5561     0.0009
  2 C      7.0376     6.0000    -1.0376     2.9767     2.9764     0.0002
  3 C      5.0759     6.0000     0.9241     2.4293     2.4242     0.0050
  4 C      6.3574     6.0000    -0.3574     2.5819     2.5813     0.0005
  5 C      7.0912     6.0000    -1.0912     2.5967     2.5949     0.0018
  6 H      0.4807     1.0000     0.5193     0.6224     0.6224     0.0000
  7 H      0.4721     1.0000     0.5279     0.5625     0.5625     0.0000
  8 O      8.5798     8.0000    -0.5798     1.7478     1.7457     0.0020
  9 C      6.7294     6.0000    -0.7294     3.7084     3.7084     0.0000
 10 H      0.6741     1.0000     0.3259     0.8930     0.8930     0.0000
 11 H      0.6816     1.0000     0.3184     0.9008     0.9008     0.0000
 12 H      0.7416     1.0000     0.2584     0.9976     0.9976     0.0000
 13 H      0.4165     1.0000     0.5835     0.4933     0.4933     0.0000
 14 H      0.3501     1.0000     0.6499     0.3474     0.3473     0.0000
 15 S     16.2069    16.0000    -0.2069     1.8485     1.7572     0.0912
 16 S     16.2061    16.0000    -0.2061     1.8588     1.7669     0.0919
 17 C      5.0435     6.0000     0.9565     2.1239     2.1195     0.0044
 18 C      6.5206     6.0000    -0.5206     2.4748     2.4739     0.0009
 19 C      7.0644     6.0000    -1.0644     2.9403     2.9400     0.0002
 20 C      5.0751     6.0000     0.9249     2.4346     2.4295     0.0051
 21 C      6.3543     6.0000    -0.3543     2.5956     2.5950     0.0005
 22 C      7.0969     6.0000    -1.0969     2.6201     2.6183     0.0018
 23 H      0.4793     1.0000     0.5207     0.6177     0.6177     0.0000
 24 H      0.4780     1.0000     0.5220     0.5756     0.5756     0.0000
 25 O      8.5769     8.0000    -0.5769     1.7421     1.7400     0.0021
 26 C      6.7283     6.0000    -0.7283     3.7072     3.7072     0.0000
 27 H      0.6736     1.0000     0.3264     0.8928     0.8928     0.0000
 28 H      0.7405     1.0000     0.2595     0.9967     0.9967     0.0000
 29 H      0.6810     1.0000     0.3190     0.8999     0.8999     0.0000
 30 H      0.4404     1.0000     0.5596     0.5342     0.5342     0.0000
 31 H      0.3396     1.0000     0.6604     0.3197     0.3196     0.0001

  Mayer bond orders larger than 0.100000
B(  0-C ,  1-C ) :   0.8103 B(  0-C ,  2-C ) :  -0.1513 B(  0-C ,  5-C ) :   0.8643 
B(  0-C , 15-S ) :   0.5169 B(  1-C ,  2-C ) :   1.2868 B(  1-C ,  3-C ) :  -0.2053 
B(  1-C ,  8-O ) :   0.1070 B(  1-C , 13-H ) :   0.1196 B(  1-C , 14-H ) :   0.4093 
B(  1-C , 16-S ) :   0.1604 B(  1-C , 18-C ) :   0.1019 B(  2-C ,  3-C ) :   0.8889 
B(  2-C ,  8-O ) :   0.2907 B(  2-C , 13-H ) :   0.3362 B(  3-C ,  4-C ) :   1.0861 
B(  3-C ,  5-C ) :  -0.1187 B(  3-C ,  8-O ) :   0.4489 B(  4-C ,  5-C ) :   1.2311 
B(  4-C ,  7-H ) :   0.4343 B(  4-C ,  8-O ) :  -0.1734 B(  5-C ,  6-H ) :   0.4821 
B(  8-O ,  9-C ) :   0.9826 B(  9-C , 10-H ) :   0.8701 B(  9-C , 11-H ) :   0.8771 
B(  9-C , 12-H ) :   0.9651 B( 15-S , 16-S ) :   1.0856 B( 15-S , 18-C ) :   0.1544 
B( 16-S , 17-C ) :   0.5101 B( 17-C , 18-C ) :   0.8142 B( 17-C , 19-C ) :  -0.1622 
B( 17-C , 22-C ) :   0.8626 B( 18-C , 19-C ) :   1.2170 B( 18-C , 20-C ) :  -0.2083 
B( 18-C , 25-O ) :   0.1100 B( 18-C , 30-H ) :   0.1177 B( 18-C , 31-H ) :   0.3932 
B( 19-C , 20-C ) :   0.8972 B( 19-C , 21-C ) :   0.1062 B( 19-C , 25-O ) :   0.2918 
B( 19-C , 30-H ) :   0.3774 B( 20-C , 21-C ) :   1.0799 B( 20-C , 22-C ) :  -0.1120 
B( 20-C , 25-O ) :   0.4452 B( 21-C , 22-C ) :   1.2404 B( 21-C , 24-H ) :   0.4469 
B( 21-C , 25-O ) :  -0.1780 B( 22-C , 23-H ) :   0.4781 B( 25-O , 26-C ) :   0.9791 
B( 26-C , 27-H ) :   0.8700 B( 26-C , 28-H ) :   0.9633 B( 26-C , 29-H ) :   0.8764 


-------
TIMINGS
-------

Total SCF time: 0 days 0 hours 20 min 58 sec 

Total time                  ....    1258.644 sec
Sum of individual times     ....    1258.035 sec  (100.0%)

SCF preparation             ....       1.768 sec  (  0.1%)
Fock matrix formation       ....    1220.475 sec  ( 97.0%)
  Startup                   ....       2.214 sec  (  0.2% of F)
  Split-RI-J                ....      52.816 sec  (  4.3% of F)
  Chain of spheres X        ....     923.087 sec  ( 75.6% of F)
  XC integration            ....     212.304 sec  ( 17.4% of F)
    XC Preparation          ....       0.000 sec  (  0.0% of XC)
    Basis function eval.    ....      18.924 sec  (  8.9% of XC)
    Density eval.           ....      73.916 sec  ( 34.8% of XC)
    XC-Functional eval.     ....       1.129 sec  (  0.5% of XC)
    XC-Potential eval.      ....     102.330 sec  ( 48.2% of XC)
  CPCM terms                ....      23.434 sec  (  1.9% of F)
Diagonalization             ....       0.000 sec  (  0.0%)
Density matrix formation    ....       5.460 sec  (  0.4%)
Total Energy calculation    ....       2.816 sec  (  0.2%)
Population analysis         ....       0.950 sec  (  0.1%)
Orbital Transformation      ....       3.002 sec  (  0.2%)
Orbital Orthonormalization  ....       0.000 sec  (  0.0%)
DIIS solution               ....      15.252 sec  (  1.2%)
SOSCF solution              ....       8.312 sec  (  0.7%)
Finished LeanSCF after 1259.2 sec

Maximum memory used throughout the entire LEANSCF-calculation: 274.6 MB


-------------------------------------------------------------------------------
                          DFT DISPERSION CORRECTION                            
                                                                               
                              DFTD3 V3.1  Rev 1                                
                          USING Becke-Johnson damping                          
-------------------------------------------------------------------------------
The PBE0 functional is recognized
Active option DFTDOPT                   ...         4   

molecular C6(AA) [au] = 14827.138126 


            DFT-D V3
 parameters
 s6 scaling factor         :     1.0000 
 a1 scaling factor         :     0.4145 
 s8 scaling factor         :     1.2177 
 a2 scaling factor         :     4.8593 
 ad hoc parameters k1-k3   :    16.0000     1.3333    -4.0000 

 Edisp/kcal,au: -22.794842566354  -0.036325890010 
 E6   /kcal   : -13.825210719 
 E8   /kcal   :  -8.969631847 
 % E8         :  39.349391516 

-------------------------   ----------------
Dispersion correction           -0.036325890
-------------------------   ----------------


-------------------------   --------------------
FINAL SINGLE POINT ENERGY     -1487.784812110301
-------------------------   --------------------



           ************************************************************
           *        Program running with 4 parallel MPI-processes     *
           *              working on a common directory               *
           ************************************************************

------------------------------------------------------------------------------
                              ORCA PROPERTY CALCULATIONS
------------------------------------------------------------------------------

GBWName                                 ... cs_rporg_080_ox_solv_04.gbw
Number of atoms                         ...     32
Number of basis functions               ...   1304
Max core memory                         ...   3000 MB

Electric properties:
Dipole moment                           ... YES
Quadrupole moment                       ...  NO
Static polarizability (Dipole/Dipole)   ...  NO
Static polarizability (Dipole/Quad.)    ...  NO
Static polarizability (Quad./Quad.)     ...  NO
Static polarizability (Velocity)        ...  NO

Atomic electric properties:
Dipole moment                           ...  NO
Quadrupole moment                       ...  NO
Static polarizability                   ...  NO

Choice of electric origin               ... Center of mass
Position of electric origin             ...    -0.000039    -0.704273     0.001528

General magnetic properties:
Magnetizability                         ...  NO

EPR properties:
g-Tensor (aka g-matrix)                 ...  NO
Zero-Field splitting spin-orbit         ...  NO
Zero-field splitting spin-spin          ...  NO
Hyperfine couplings                     ...  NO (   0 nuclei)
Quadrupole couplings                    ...  NO (   0 nuclei)
Contact density                         ...  NO (   0 nuclei)

NMR properties:
Chemical shifts                         ...  NO (   0 nuclei)
Spin-rotation constants                 ...  NO (   0 nuclei)
Spin-spin couplings                     ...  NO (   0 nuclei,    0 pairs)

Choice of magnetic origin               ... GIAO
Position of magnetic origin             ...     0.000000     0.000000     0.000000

Properties with geometric perturbations:
SCF Hessian                             ...  NO
IR spectrum                             ...  NO
VCD spectrum                            ...  NO
X-ray spectroscopy properties:
SCF XES/XAS/RIXS spectra                ...  NO


-------------
DIPOLE MOMENT
-------------

Method             : SCF
Type of density    : Electron Density
Multiplicity       :   2
Irrep              :   0
Energy             : -1487.7484862202916247 Eh
Relativity type    : 
Basis              : AO
                                X                 Y                 Z
Electronic contribution:     -0.010128806       3.336807183       0.016173589
Nuclear contribution   :     -0.000025572      -2.851825111      -0.017728862
                        -----------------------------------------
Total Dipole Moment    :     -0.010154378       0.484982072      -0.001555273
                        -----------------------------------------
Magnitude (a.u.)       :      0.485090858
Magnitude (Debye)      :      1.233002973



--------------------
Rotational spectrum 
--------------------
 
Rotational constants in cm-1:             0.050702             0.003581             0.003572 
Rotational constants in MHz :          1519.993315           107.353371           107.097515 

Dipole components along the rotational axes: 
x,y,z [a.u.] :     0.010121     0.484922    -0.007862 
x,y,z [Debye]:     0.025727     1.232573    -0.019983 

 

Dipole moment calculation done in   0.1 sec 

Maximum memory used throughout the entire PROP-calculation: 156.6 MB

--------------------------------
SUGGESTED CITATIONS FOR THIS RUN
--------------------------------

Below you find a list of papers that are relevant to this ORCA run
We neither can nor want to force you to cite these papers, but we appreciate if you do
You receive ORCA, which is the product of decades of hard work by many enthusiastic individuals, for free
The only thing we kindly ask in return is that you cite our papers,
We deeply appreciate it, if you show your appreciation for ORCA by not just citing the generic ORCA reference.

Please note that relegating all ORCA citations to the supporting information does *not* help us.
SI sections are not indexed - citations you put there will not count into any citation statistics
But we need these citations in order to attract the funding resources that allow us to do what we are doing

Therefore, if you are a happy ORCA user, please consider citing a few of the papers listed below in the main body of your paper

In addition to the list printed below, the program has created the file cs_rporg_080_ox_solv_04.bibtex that contains the list in bibtex format
You can import this file easily into all common literature databanks and citation aid programs


List of essential papers. We consider these as the minimum necessary citations

  1. Neese,F.
     Software update: the ORCA program system, version 5.0
     WIRES Comput. Molec. Sci., 2022 12(1)e1606
     doi.org/10.1002/wcms.1606

List of papers to cite with high priority. The work reported in these papers was absolutely
necessary for this run to complete.
Our perspective: the developers of density functionals and basis sets usually get cited in chemistry papers
Good! But without the algorithms to do something with them, the functionals or basis sets would not do anything.
Hence, in our opinion, the algorithm design and method developments papers are equally worthy of getting cited

  1. Neese,F.
     An improvement of the resolution of the identity approximation for the formation of the Coulomb matrix
     J. Comp. Chem., 2003 24(14)1740-1747
     doi.org/10.1002/jcc.10318
  2. Neese,F.; Wennmohs,F.; Hansen,A.; Becker,U.
     Efficient, approximate and parallel Hartree-Fock and hybrid DFT calculations. A 'chain-of-spheres' algorithm for the Hartree-Fock exchange
     Chem. Phys., 2009 356(1-3)98-109
     doi.org/10.1016/j.chemphys.2008.10.036
  3. Garcia-Rates,M.; Neese,F.
     Effect of the Solute Cavity on the Solvation Energy and its Derivatives within the Framework of the Gaussian Charge Scheme
     J. Comput. Chem., 2020 41 922-939
     doi.org/10.1002/jcc.26139
  4. Helmich-Paris,B.; de Souza,B.; Neese,F.; Izsák,R.
     An improved chain of spheres for exchange algorithm
     J. Chem. Phys., 2021 155 104109
     doi.org/doi: 10.1063/5.0058766.
  5. Neese,F.
     The SHARK Integral Generation and Digestion System
     J. Comp. Chem., 2022  1-16
     doi.org/10.1002/jcc.26942
  6. Grimme,S.; Antony,J.; Ehrlich,S.; Krieg,H.
     A consistent and accurate ab initio parametrization of density functional dispersion correction (DFT-D) for the 94 elements H-Pu
     J. Chem. Phys., 2010 132 154104-XXXX
     doi.org/10.1063/1.3382344
  7. Grimme,S.; Ehrlich,S.; Goerigk,L.
     Effect of the damping function in dispersion corrected density functional theory
     J. Comput. Chem., 2011 32(7)1456-1465
     doi.org/10.1002/jcc.21759

List of suggested additional citations. These are papers that are important in the 'surrounding' of 
of this run, or papers that preceded the highly important papers. If you like your results we are grateful for a citation.

  1. Izsak,R.; Neese,F.
     An overlap fitted chain of spheres exchange method
     J. Chem. Phys., 2011 135 144105
     doi.org/10.1063/1.3646921
  2. Izsak,R.; Hansen,A.; Neese,F.
     The resolution of identity and chain of spheres approximations for the LPNO-CCSD singles Fock term
     Molec. Phys., 2012 110 2413-2417
     doi.org/10.1080/00268976.2012.687466
  3. Neese,F.
     The ORCA program system
     WIRES Comput. Molec. Sci., 2012 2(1)73-78
     doi.org/10.1002/wcms.81
  4. Izsak,R.; Neese,F.; Klopper,W.
     Robust fitting techniques in the chain of spheres approximation to the Fock exchange: The role of the complementary space
     J. Chem. Phys., 2013 139 
     doi.org/10.1063/1.4819264
  5. Neese,F.
     Software update: the ORCA program system, version 4.0
     WIRES Comput. Molec. Sci., 2018 8(1)1-6
     doi.org/10.1002/wcms.1327
  6. Neese,F.; Wennmohs,F.; Becker,U.; Riplinger,C.
     The ORCA quantum chemistry program package
     J. Chem. Phys., 2020 152 Art. No. L224108
     doi.org/10.1063/5.0004608

List of optional additional citations

  1. Neese,F.
     Approximate second-order SCF convergence for spin unrestricted wavefunctions
     Chem. Phys. Lett., 2000 325(1-3)93-98
     doi.org/10.1016/s0009-2614(00)00662-x

Timings for individual modules:

Sum of individual times          ...     1293.851 sec (=  21.564 min)
Startup calculation              ...       21.235 sec (=   0.354 min)   1.6 %
SCF iterations                   ...     1270.238 sec (=  21.171 min)  98.2 %
Property calculations            ...        2.377 sec (=   0.040 min)   0.2 %
                             ****ORCA TERMINATED NORMALLY****
TOTAL RUN TIME: 0 days 0 hours 21 minutes 36 seconds 351 msec
