
                                 *****************
                                 * O   R   C   A *
                                 *****************

                                            #,                                       
                                            ###                                      
                                            ####                                     
                                            #####                                    
                                            ######                                   
                                           ########,                                 
                                     ,,################,,,,,                         
                               ,,#################################,,                 
                          ,,##########################################,,             
                       ,#########################################, ''#####,          
                    ,#############################################,,   '####,        
                  ,##################################################,,,,####,       
                ,###########''''           ''''###############################       
              ,#####''   ,,,,##########,,,,          '''####'''          '####       
            ,##' ,,,,###########################,,,                        '##       
           ' ,,###''''                  '''############,,,                           
         ,,##''                                '''############,,,,        ,,,,,,###''
      ,#''                                            '''#######################'''  
     '                                                          ''''####''''         
             ,#######,   #######,   ,#######,      ##                                
            ,#'     '#,  ##    ##  ,#'     '#,    #''#        ,####,   ,####,        
            ##       ##  ##   ,#'  ##            #'  '#       #'       #'  '#        
            ##       ##  #######   ##           ,######,      #####,   #    #        
            '#,     ,#'  ##    ##  '#,     ,#' ,#      #,     #,   #   #,  ,#        
             '#######'   ##     ##  '#######'  #'      '#     '####' # '####'        



                #########################################################
                #                        -***-                          #
                #          Department of theory and spectroscopy        #
                #                                                       #
                #                      Frank Neese                      #
                #                                                       #
                #     Directorship, Architecture, Infrastructure        #
                #                    SHARK, DRIVERS                     #
                #        Core code/Algorithms in most modules           #
                #                                                       #
                #        Max Planck Institute fuer Kohlenforschung      #
                #                Kaiser Wilhelm Platz 1                 #
                #                 D-45470 Muelheim/Ruhr                 #
                #                      Germany                          #
                #                                                       #
                #                  All rights reserved                  #
                #                        -***-                          #
                #########################################################


                         Program Version 6.0.0  -   RELEASE  -


 With contributions from (in alphabetic order):
   Daniel Aravena         : Magnetic Suceptibility
   Michael Atanasov       : Ab Initio Ligand Field Theory (pilot matlab implementation)
   Alexander A. Auer      : GIAO ZORA, VPT2 properties, NMR spectrum
   Ute Becker             : All parallelization in ORCA, NUMFREQ, NUMCALC
   Giovanni Bistoni       : ED, misc. LED, open-shell LED, HFLD
   Martin Brehm           : Molecular dynamics
   Dmytro Bykov           : pre 5.0 version of the SCF Hessian
   Marcos Casanova-Páez   : Triplet and SCS-CIS(D). UHF-(DLPNO)-IP/EA/STEOM-CCSD. UHF-CVS-IP/STEOM-CCSD
   Vijay G. Chilkuri      : MRCI spin determinant printing, contributions to CSF-ICE
   Pauline Colinet        : FMM embedding
   Dipayan Datta          : RHF DLPNO-CCSD density
   Achintya Kumar Dutta   : EOM-CC, STEOM-CC
   Nicolas Foglia         : Exact transition moments, OPA infrastructure, MCD improvements
   Dmitry Ganyushin       : Spin-Orbit,Spin-Spin,Magnetic field MRCI
   Miquel Garcia          : C-PCM and meta-GGA Hessian, CCSD/C-PCM, Gaussian charge scheme
   Tiago L. C. Gouveia    : GS-ROHF, GS-ROCIS
   Yang Guo               : DLPNO-NEVPT2, F12-NEVPT2, CIM, IAO-localization
   Andreas Hansen         : Spin unrestricted coupled pair/coupled cluster methods
   Ingolf Harden          : AUTO-CI MPn and infrastructure 
   Benjamin Helmich-Paris : MC-RPA, TRAH-(SCF,CASSCF), AVAS, COSX integrals, SCF dyn. polar.
   Lee Huntington         : MR-EOM, pCC
   Robert Izsak           : Overlap fitted RIJCOSX, COSX-SCS-MP3, EOM
   Riya Kayal             : Wick's Theorem for AUTO-CI, AUTO-CI UHF-CCSDT
   Emily Kempfer          : AUTO-CI, RHF CISDT and CCSDT
   Christian Kollmar      : KDIIS, OOCD, Brueckner-CCSD(T), CCSD density, CASPT2, CASPT2-K, improved NEVPT2
   Axel Koslowski         : Symmetry handling
   Simone Kossmann        : Meta GGA functionals, TD-DFT gradient, OOMP2, (MP2 Hessian; deprecated post 5.0)
   Lucas Lang             : DCDCAS
   Marvin Lechner         : AUTO-CI (C++ implementation), FIC-MRCC
   Spencer Leger          : CASSCF response
   Dagmar Lenk            : GEPOL surface, SMD, ORCA-2-JSON
   Dimitrios Liakos       : Extrapolation schemes; Compound Job, initial MDCI parallelization
   Dimitrios Manganas     : Further ROCIS development; embedding schemes. LFT, Crystal Embedding
   Dimitrios Pantazis     : SARC Basis sets
   Anastasios Papadopoulos: AUTO-CI, single reference methods and gradients
   Taras Petrenko         : pre 6.0 DFT Hessian and TD-DFT gradient, (ASA, deprecated), ECA, 1-Electron XAS/XES, NRVS
   Peter Pinski           : DLPNO-MP2, DLPNO-MP2 Gradient
   Christoph Reimann      : Effective Core Potentials
   Marius Retegan         : Local ZFS, SOC
   Christoph Riplinger    : Optimizer, TS searches, QM/MM, DLPNO-CCSD(T), (RO)-DLPNO pert. Triples
   Michael Roemelt        : Original ROCIS implementation
   Masaaki Saitow         : Open-shell DLPNO-CCSD energy and density
   Barbara Sandhoefer     : DKH picture change effects
   Kantharuban Sivalingam : CASSCF convergence/infrastructure, NEVPT2 and variants, FIC-MRCI
   Bernardo de Souza      : ESD, SOC TD-DFT
   Georgi Stoychev        : AutoAux, RI-MP2 NMR, DLPNO-MP2 response, X2C
   Van Anh Tran           : RI-MP2 g-tensors
   Willem Van den Heuvel  : Paramagnetic NMR
   Zikuan Wang            : NOTCH, Electric field optimization 
   Frank Wennmohs         : Technical directorship and infrastructure
   Hang Xu                : AUTO-CI-Response properties 


 We gratefully acknowledge several colleagues who have allowed us to
 interface, adapt or use parts of their codes:
   Stefan Grimme, W. Hujo, H. Kruse, P. Pracht,  : VdW corrections, initial TS optimization,
                  C. Bannwarth, S. Ehlert,         DFT functionals, gCP, sTDA/sTD-DF
                  L. Wittmann, M. Mueller
   Ed Valeev, F. Pavosevic, A. Kumar             : LibInt (2-el integral package), F12 methods
   Garnet Chan, S. Sharma, J. Yang, R. Olivares  : DMRG
   Ulf Ekstrom                                   : XCFun DFT Library
   Mihaly Kallay                                 : mrcc  (arbitrary order and MRCC methods)
   Frank Weinhold                                : gennbo (NPA and NBO analysis)
   Simon Mueller                                 : openCOSMO-RS
   Christopher J. Cramer and Donald G. Truhlar   : smd solvation model
   Lars Goerigk                                  : TD-DFT with DH, B97 family of functionals
   V. Asgeirsson, H. Jonsson                     : NEB implementation
   FAccTs GmbH                                   : IRC, NEB, NEB-TS, DLPNO-Multilevel, CI-OPT
                                                   MM, QMMM, 2- and 3-layer-ONIOM, Crystal-QMMM,
                                                   LR-CPCM, SF, NACMEs, symmetry and pop. for TD-DFT,
                                                   nearIR, NL-DFT gradient (VV10), updates on ESD,
                                                   ML-optimized integration grids, MBIS, APM,
                                                   GOAT, DOCKER, SOLVATOR, interface openCOSMO-RS
   S Lehtola, MJT Oliveira, MAL Marques          : LibXC Library
   Liviu Ungur et al                             : ANISO software


 Your calculation uses the libint2 library for the computation of 2-el integrals
 For citations please refer to: http://libint.valeyev.net

 Your ORCA version has been built with support for libXC version: 6.2.2
 For citations please refer to: https://libxc.gitlab.io

 This ORCA versions uses:
   CBLAS   interface :  Fast vector & matrix operations
   LAPACKE interface :  Fast linear algebra routines
   SCALAPACK package :  Parallel linear algebra routines
   Shared memory     :  Shared parallel matrices
   BLAS/LAPACK       :  OpenBLAS 0.3.27  USE64BITINT DYNAMIC_ARCH NO_AFFINITY SkylakeX SINGLE_THREADED
        Core in use  :  SkylakeX
   Copyright (c) 2011-2014, The OpenBLAS Project


NOTE: MaxCore=3000 MB was set to SCF,MP2,MDCI,CIPSI,MRCI and CIS
      => If you want to overwrite this, your respective input block should be placed after the MaxCore statement
Your calculation utilizes the atom-pairwise dispersion correction
with the Becke-Johnson damping scheme (D3BJ)


Your calculation utilizes the SMD solvation module
Please cite in your paper:
A.V. Marenich, C.J. Cramer, D.G. Truhlar J. Phys. Chem. B, 113, (2009), 6378 

Warning: RI is on but no J-basis has been assigned. Assigning Def2/J (nothing to worry about!)
================================================================================

----- Orbital basis set information -----
Your calculation utilizes the basis: aug-cc-pVTZ 
    H, B-Ne : Obtained from the ccRepo (grant-hill.group.shef.ac.uk/ccrepo) Feb. 2017
              R. A. Kendall, T. H. Dunning, Jr., R. J. Harrison, J. Chem. Phys. 96, 6796 (1992)
         He : Obtained from the ccRepo (grant-hill.group.shef.ac.uk/ccrepo) Feb. 2017
              D. E. Woon, T. H. Dunning, Jr., J. Chem. Phys. 100, 2975 (1994)
  Li-Be, Na : Obtained from the ccRepo (grant-hill.group.shef.ac.uk/ccrepo) Feb. 2017
              B. P. Prascher, D. E. Woon, K. A. Peterson, T. H. Dunning, Jr., A. K. Wilson, Theor. Chem. Acc. 128, 69 (2011)
         Mg : Obtained from the Peterson Research Group Website (tyr0.chem.wsu.edu/~kipeters) Feb. 2017
              B. P. Prascher, D. E. Woon, K. A. Peterson, T. H. Dunning, Jr., A. K. Wilson, Theor. Chem. Acc. 128, 69 (2011)
      Al-Ar : Obtained from the ccRepo (grant-hill.group.shef.ac.uk/ccrepo) Feb. 2017
              D. E. Woon, T. H. Dunning, Jr., J. Chem. Phys. 98, 1358 (1993)
      Sc-Zn : Obtained from the ccRepo (grant-hill.group.shef.ac.uk/ccrepo) Feb. 2017
              N. B. Balabanov, K. A. Peterson, J. Chem. Phys. 123, 064107 (2005)
              N. B. Balabanov, K. A. Peterson, J. Chem. Phys. 125, 074110 (2006)
      Ga-Kr : Obtained from the ccRepo (grant-hill.group.shef.ac.uk/ccrepo) Feb. 2017
              A. K. Wilson, D. E. Woon, K. A. Peterson, T. H. Dunning, Jr., J. Chem. Phys. 110, 7667 (1999)
     Ag, Au : Obtained from the Peterson Research Group Website (tyr0.chem.wsu.edu/~kipeters) Feb. 2017
              K. A. Peterson, C. Puzzarini, Theor. Chem. Acc. 114, 283 (2005)

----- AuxJ basis set information -----
Your calculation utilizes the auxiliary basis: def2/J
   F. Weigend, Phys. Chem. Chem. Phys. 8, 1057 (2006).

================================================================================
                                        WARNINGS
                       Please study these warnings very carefully!
================================================================================


================================================================================
                                       INPUT FILE
================================================================================
NAME = cs_rporg_149_ox_solv_04.inp
|  1> !PBE0 aug-cc-pVTZ d3 TightSCF SlowConv RIJCOSX defgrid2
|  2>  
|  3> %pal
|  4> nprocs 4
|  5> end
|  6>  
|  7> %scf
|  8> MaxIter 1500
|  9> end
| 10>  
| 11> %maxcore 3000
| 12>  
| 13> !CPCM
| 14> %cpcm smd true
| 15> SMDsolvent "MeCN"
| 16> surfacetype gepol_ses
| 17> rsolv 2.19
| 18> end 
| 19>  
| 20> * xyz 0 1
| 21> C           1.12535933003909      1.22184876665946      0.00445520319991
| 22> C          -0.26421837966179      1.23081993194340      0.01317294666685
| 23> C          -0.96286430889490      0.02291905897302      0.02071941900053
| 24> C          -0.27116790812085     -1.18968803907145      0.02233603706903
| 25> C           1.11927983593575     -1.19274556967928      0.01192236383456
| 26> C           1.83042608643697      0.01361001085842      0.00235629509897
| 27> C           3.33037499820744      0.07812373067826     -0.00830505647652
| 28> O           3.89335056176083      1.14924412695364     -0.01221784590005
| 29> C           4.10529699500755     -1.21691160959464     -0.01456211029497
| 30> H           3.87147665667906     -1.82176550317243      0.87909273734606
| 31> H           3.85275608025563     -1.82519649459447     -0.90071459246678
| 32> H           5.18018449663339     -0.98545182796753     -0.02600819379244
| 33> H           1.64770213714144     -2.14919199620359      0.01366659940447
| 34> H          -0.82322456445574     -2.13316803225065      0.03516466443551
| 35> C          -2.46760978555516      0.00136363107126     -0.00390087802805
| 36> F          -2.92475509769190     -0.39380754718327     -1.19713617306479
| 37> F          -2.95620262622450     -0.85163753941636      0.90171536543609
| 38> F          -2.99122934584873      1.20180958170133      0.24662255340156
| 39> H          -0.81146024395866      2.17606304264227      0.01753239307008
| 40> H           1.69903008231505      2.15205687765261      0.00003667206000
| 41> *
| 42> 
| 43>                          ****END OF INPUT****
================================================================================

                       ****************************
                       * Single Point Calculation *
                       ****************************

---------------------------------
CARTESIAN COORDINATES (ANGSTROEM)
---------------------------------
  C      1.125359    1.221849    0.004455
  C     -0.264218    1.230820    0.013173
  C     -0.962864    0.022919    0.020719
  C     -0.271168   -1.189688    0.022336
  C      1.119280   -1.192746    0.011922
  C      1.830426    0.013610    0.002356
  C      3.330375    0.078124   -0.008305
  O      3.893351    1.149244   -0.012218
  C      4.105297   -1.216912   -0.014562
  H      3.871477   -1.821766    0.879093
  H      3.852756   -1.825196   -0.900715
  H      5.180184   -0.985452   -0.026008
  H      1.647702   -2.149192    0.013667
  H     -0.823225   -2.133168    0.035165
  C     -2.467610    0.001364   -0.003901
  F     -2.924755   -0.393808   -1.197136
  F     -2.956203   -0.851638    0.901715
  F     -2.991229    1.201810    0.246623
  H     -0.811460    2.176063    0.017532
  H      1.699030    2.152057    0.000037

----------------------------
CARTESIAN COORDINATES (A.U.)
----------------------------
  NO LB      ZA    FRAG     MASS         X           Y           Z
   0 C     6.0000    0    12.011    2.126621    2.308960    0.008419
   1 C     6.0000    0    12.011   -0.499300    2.325913    0.024893
   2 C     6.0000    0    12.011   -1.819550    0.043311    0.039154
   3 C     6.0000    0    12.011   -0.512433   -2.248185    0.042209
   4 C     6.0000    0    12.011    2.115132   -2.253962    0.022530
   5 C     6.0000    0    12.011    3.459004    0.025719    0.004453
   6 C     6.0000    0    12.011    6.293497    0.147632   -0.015694
   7 O     8.0000    0    15.999    7.357366    2.171757   -0.023088
   8 C     6.0000    0    12.011    7.757887   -2.299630   -0.027518
   9 H     1.0000    0     1.008    7.316031   -3.442638    1.661245
  10 H     1.0000    0     1.008    7.280654   -3.449122   -1.702104
  11 H     1.0000    0     1.008    9.789130   -1.862234   -0.049148
  12 H     1.0000    0     1.008    3.113706   -4.061384    0.025826
  13 H     1.0000    0     1.008   -1.555669   -4.031103    0.066452
  14 C     6.0000    0    12.011   -4.663107    0.002577   -0.007372
  15 F     9.0000    0    18.998   -5.526986   -0.744188   -2.262260
  16 F     9.0000    0    18.998   -5.586413   -1.609362    1.703995
  17 F     9.0000    0    18.998   -5.652604    2.271091    0.466049
  18 H     1.0000    0     1.008   -1.533438    4.112163    0.033131
  19 H     1.0000    0     1.008    3.210702    4.066798    0.000069

--------------------------------
INTERNAL COORDINATES (ANGSTROEM)
--------------------------------
 C      0   0   0     0.000000000000     0.00000000     0.00000000
 C      1   0   0     1.389634013744     0.00000000     0.00000000
 C      2   1   0     1.395416641223   119.67616736     0.00000000
 C      3   2   1     1.396016654100   120.25361809     0.13321665
 C      4   3   2     1.390490101380   119.82581226   359.78735275
 C      1   2   3     1.398915446842   120.63548371     0.03885091
 C      6   1   2     1.501373511950   117.80275009   179.95220352
 O      7   6   1     1.210064336470   120.18950880     0.13971678
 C      7   6   1     1.509191765285   118.43347849   180.16719386
 H      9   7   6     1.104146353481   110.97605903   300.06049784
 H      9   7   6     1.104107620027   111.01633450    59.44974367
 H      9   7   6     1.099585278407   108.74464045   179.78483227
 H      5   4   3     1.092713566119   119.04426597   179.97958277
 H      4   3   2     1.093199717807   119.96416221   179.58214961
 C      3   2   1     1.505101240790   120.85466558   181.51412838
 F     15   3   2     1.337517314226   111.13276885   107.22698070
 F     15   3   2     1.336590715677   111.31663229   226.28463624
 F     15   3   2     1.333420381576   112.12506264   346.98631022
 H      2   1   3     1.092234956928   120.43902641   179.79415075
 H      1   2   3     1.092888276628   121.29347604   180.09921750

---------------------------
INTERNAL COORDINATES (A.U.)
---------------------------
 C      0   0   0     0.000000000000     0.00000000     0.00000000
 C      1   0   0     2.626027712359     0.00000000     0.00000000
 C      2   1   0     2.636955294627   119.67616736     0.00000000
 C      3   2   1     2.638089154643   120.25361809     0.13321665
 C      4   3   2     2.627645483537   119.82581226   359.78735275
 C      1   2   3     2.643567079043   120.63548371     0.03885091
 C      6   1   2     2.837184762308   117.80275009   179.95220352
 O      7   6   1     2.286690200353   120.18950880     0.13971678
 C      7   6   1     2.851959119957   118.43347849   180.16719386
 H      9   7   6     2.086534219846   110.97605903   300.06049784
 H      9   7   6     2.086461024227   111.01633450    59.44974367
 H      9   7   6     2.077915037081   108.74464045   179.78483227
 H      5   4   3     2.064929382785   119.04426597   179.97958277
 H      4   3   2     2.065848076335   119.96416221   179.58214961
 C      3   2   1     2.844229148918   120.85466558   181.51412838
 F     15   3   2     2.527541423264   111.13276885   107.22698070
 F     15   3   2     2.525790405770   111.31663229   226.28463624
 F     15   3   2     2.519799342567   112.12506264   346.98631022
 H      2   1   3     2.064024942489   120.43902641   179.79415075
 H      1   2   3     2.065259537801   121.29347604   180.09921750

---------------------
BASIS SET INFORMATION
---------------------
There are 4 groups of distinct atoms

 Group   1 Type C   : 19s6p3d2f contracted to 5s4p3d2f pattern {88111/3111/111/11}
 Group   2 Type O   : 19s6p3d2f contracted to 5s4p3d2f pattern {88111/3111/111/11}
 Group   3 Type H   : 6s3p2d contracted to 4s3p2d pattern {3111/111/11}
 Group   4 Type F   : 19s6p3d2f contracted to 5s4p3d2f pattern {88111/3111/111/11}

Atom   0C    basis set group =>   1
Atom   1C    basis set group =>   1
Atom   2C    basis set group =>   1
Atom   3C    basis set group =>   1
Atom   4C    basis set group =>   1
Atom   5C    basis set group =>   1
Atom   6C    basis set group =>   1
Atom   7O    basis set group =>   2
Atom   8C    basis set group =>   1
Atom   9H    basis set group =>   3
Atom  10H    basis set group =>   3
Atom  11H    basis set group =>   3
Atom  12H    basis set group =>   3
Atom  13H    basis set group =>   3
Atom  14C    basis set group =>   1
Atom  15F    basis set group =>   4
Atom  16F    basis set group =>   4
Atom  17F    basis set group =>   4
Atom  18H    basis set group =>   3
Atom  19H    basis set group =>   3
---------------------------------
AUXILIARY/J BASIS SET INFORMATION
---------------------------------
There are 4 groups of distinct atoms

 Group   1 Type C   : 12s5p4d2f1g contracted to 6s4p3d1f1g pattern {711111/2111/211/2/1}
 Group   2 Type O   : 12s5p4d2f1g contracted to 6s4p3d1f1g pattern {711111/2111/211/2/1}
 Group   3 Type H   : 5s2p1d contracted to 3s1p1d pattern {311/2/1}
 Group   4 Type F   : 12s5p4d2f1g contracted to 6s4p3d1f1g pattern {711111/2111/211/2/1}

Atom   0C    basis set group =>   1
Atom   1C    basis set group =>   1
Atom   2C    basis set group =>   1
Atom   3C    basis set group =>   1
Atom   4C    basis set group =>   1
Atom   5C    basis set group =>   1
Atom   6C    basis set group =>   1
Atom   7O    basis set group =>   2
Atom   8C    basis set group =>   1
Atom   9H    basis set group =>   3
Atom  10H    basis set group =>   3
Atom  11H    basis set group =>   3
Atom  12H    basis set group =>   3
Atom  13H    basis set group =>   3
Atom  14C    basis set group =>   1
Atom  15F    basis set group =>   4
Atom  16F    basis set group =>   4
Atom  17F    basis set group =>   4
Atom  18H    basis set group =>   3
Atom  19H    basis set group =>   3


           ************************************************************
           *        Program running with 4 parallel MPI-processes     *
           *              working on a common directory               *
           ************************************************************
------------------------------------------------------------------------------
                             ORCA STARTUP CALCULATIONS
                           -- RI-GTO INTEGRALS CHOSEN --
------------------------------------------------------------------------------
------------------------------------------------------------------------------
                   ___                                                        
                  /   \      - P O W E R E D   B Y -                         
                 /     \                                                     
                 |  |  |   _    _      __       _____    __    __             
                 |  |  |  | |  | |    /  \     |  _  \  |  |  /  |          
                  \  \/   | |  | |   /    \    | | | |  |  | /  /          
                 / \  \   | |__| |  /  /\  \   | |_| |  |  |/  /          
                |  |  |   |  __  | /  /__\  \  |    /   |      \           
                |  |  |   | |  | | |   __   |  |    \   |  |\   \          
                \     /   | |  | | |  |  |  |  | |\  \  |  | \   \       
                 \___/    |_|  |_| |__|  |__|  |_| \__\ |__|  \__/        
                                                                              
                      - O R C A' S   B I G   F R I E N D -                    
                                      &                                       
                       - I N T E G R A L  F E E D E R -                       
                                                                              
 v1 FN, 2020, v2 2021, v3 2022-2024                                           
------------------------------------------------------------------------------


----------------------
SHARK INTEGRAL PACKAGE
----------------------

Number of atoms                             ...     20
Number of basis functions                   ...    837
Number of shells                            ...    323
Maximum angular momentum                    ...      3
Integral batch strategy                     ... SHARK/LIBINT Hybrid
RI-J (if used) integral strategy            ... SPLIT-RIJ (Revised 2003 algorithm where possible)
Printlevel                                  ...      1
Contraction scheme used                     ... PARTIAL GENERAL contraction
Prescreening option                         ... SCHWARTZ
   Thresh                                   ... 2.500e-11
   Tcut                                     ... 2.500e-12
   Tpresel                                  ... 2.500e-12 
Coulomb Range Separation                    ... NOT USED
Exchange Range Separation                   ... NOT USED
Multipole approximations                    ... NOT USED
Finite Nucleus Model                        ... NOT USED
CABS basis                                  ... NOT available
Auxiliary Coulomb fitting basis             ... AVAILABLE
   # of basis functions in Aux-J            ...    714
   # of shells in Aux-J                     ...    230
   Maximum angular momentum in Aux-J        ...      4
Auxiliary J/K fitting basis                 ... NOT available
Auxiliary Correlation fitting basis         ... NOT available
Auxiliary 'external' fitting basis          ... NOT available

Checking pre-screening integrals            ... done (  0.0 sec) Dimension = 323
Save PGC pre-screening integrals            ... done (  0.0 sec) Dimension = 323
Calculate PGC overlap integrals             ... done (  0.1 sec) Dimension = 245
Calculating pre-screening integrals (ORCA)  ... done (  0.3 sec) Dimension = 245
Check shell pair data                       ... done (  0.0 sec)
Shell pair information
Shell pair cut-off parameter TPreSel        ...   2.5e-12
Total number of shell pairs                 ...     52326
Shell pairs after pre-screening             ...     39516
Total number of primitive shell pairs       ...     66126
Primitive shell pairs kept                  ...     46462
          la=0 lb=0:   8829 shell pairs
          la=1 lb=0:  10035 shell pairs
          la=1 lb=1:   2454 shell pairs
          la=2 lb=0:   6970 shell pairs
          la=2 lb=1:   3437 shell pairs
          la=2 lb=2:   1241 shell pairs
          la=3 lb=0:   3375 shell pairs
          la=3 lb=1:   1683 shell pairs
          la=3 lb=2:   1188 shell pairs
          la=3 lb=3:    304 shell pairs

Calculating one electron integrals          ... done (  0.1 sec)
Calculating RI/J V-Matrix + Cholesky decomp.... done (  0.1 sec)
Calculating Nuclear repulsion               ... done (  0.0 sec) ENN=    780.425712498641 Eh

Diagonalization of the overlap matrix:
Smallest eigenvalue                        ... 4.747e-07
Time for diagonalization                   ...    0.116 sec
Threshold for overlap eigenvalues          ... 1.000e-07
Number of eigenvalues below threshold      ... 0

IMPORTANT:
Smallest eigenvalue of S below the DiffSThresh (1.000e-06) while
Thresh>1e-12 and/or TCut>1e-13! In order to avoid SCF convergence issues,
Thresh will be set to at least 1e-12 and TCut to at least 1e-13.
This can be turned off by adding %SCF DiffSThresh -1 END to the input.

Time for construction of square roots      ...    0.075 sec
Total time needed                          ...    0.219 sec

-------------------
DFT GRID GENERATION
-------------------

General Integration Accuracy     IntAcc      ... 4.388
Radial Grid Type                 RadialGrid  ... OptM3 with GC (2021)
Angular Grid (max. ang.)         AngularGrid ... 4 (Lebedev-302)
Angular grid pruning method      GridPruning ... 4 (adaptive)
Weight generation scheme         WeightScheme... mBecke (2022)
Basis function cutoff            BFCut       ... 1.0000e-11
Integration weight cutoff        WCut        ... 1.0000e-14
Partially contracted basis set               ... off
Rotationally invariant grid construction     ... off
Angular grids for H and He will be reduced by one unit
Diffuse basis detected: some atoms will have their outermost
                        angular grid increased by 1.

Total number of grid points                  ...   105521
Total number of batches                      ...     1662
Average number of points per batch           ...       63
Average number of grid points per atom       ...     5276

---------------------
SHARK GRID GENERATION
---------------------

General Integration Accuracy     IntAcc      ... 4.388
Radial Grid Type                 RadialGrid  ... OptM3 with GC (2021)
Angular Grid (max. ang.)         AngularGrid ... 4 (Lebedev-302)
Angular grid pruning method      GridPruning ... 4 (adaptive)
Weight generation scheme         WeightScheme... mBecke (2022)
Basis function cutoff            BFCut       ... 1.0000e-11
Integration weight cutoff        WCut        ... 1.0000e-14
Partially contracted basis set               ... off
Rotationally invariant grid construction     ... off
Angular grids for H and He will be reduced by one unit
Diffuse basis detected: some atoms will have their outermost
                        angular grid increased by 1.
Steep s-basis detected: some atoms will have their radial
                        grid points doubled.

Total number of grid points                  ...   187948
Total number of batches                      ...     2946
Average number of points per batch           ...       63
Average number of grid points per atom       ...     9397

--------------------
COSX GRID GENERATION
--------------------

GRIDX 1
-------
General Integration Accuracy     IntAcc      ... 3.816
Radial Grid Type                 RadialGrid  ... OptM3 with GC (2021)
Angular Grid (max. ang.)         AngularGrid ... 1 (Lebedev-50)
Angular grid pruning method      GridPruning ... 4 (adaptive)
Weight generation scheme         WeightScheme... mBecke (2022)
Basis function cutoff            BFCut       ... 1.0000e-11
Integration weight cutoff        WCut        ... 1.0000e-14
Partially contracted basis set               ... on
Rotationally invariant grid construction     ... off
Angular grids for H and He will be reduced by one unit
Diffuse basis detected: some atoms will have their outermost
                        angular grid increased by 1.

Total number of grid points                  ...    13283
Total number of batches                      ...      113
Average number of points per batch           ...      117
Average number of grid points per atom       ...      664
UseSFitting                                  ... on

GRIDX 2
-------
General Integration Accuracy     IntAcc      ... 4.020
Radial Grid Type                 RadialGrid  ... OptM3 with GC (2021)
Angular Grid (max. ang.)         AngularGrid ... 2 (Lebedev-110)
Angular grid pruning method      GridPruning ... 4 (adaptive)
Weight generation scheme         WeightScheme... mBecke (2022)
Basis function cutoff            BFCut       ... 1.0000e-11
Integration weight cutoff        WCut        ... 1.0000e-14
Partially contracted basis set               ... on
Rotationally invariant grid construction     ... off
Angular grids for H and He will be reduced by one unit
Diffuse basis detected: some atoms will have their outermost
                        angular grid increased by 1.

Total number of grid points                  ...    33160
Total number of batches                      ...      270
Average number of points per batch           ...      122
Average number of grid points per atom       ...     1658
UseSFitting                                  ... on

GRIDX 3
-------
General Integration Accuracy     IntAcc      ... 4.338
Radial Grid Type                 RadialGrid  ... OptM3 with GC (2021)
Angular Grid (max. ang.)         AngularGrid ... 3 (Lebedev-194)
Angular grid pruning method      GridPruning ... 4 (adaptive)
Weight generation scheme         WeightScheme... mBecke (2022)
Basis function cutoff            BFCut       ... 1.0000e-11
Integration weight cutoff        WCut        ... 1.0000e-14
Partially contracted basis set               ... on
Rotationally invariant grid construction     ... off
Angular grids for H and He will be reduced by one unit
Diffuse basis detected: some atoms will have their outermost
                        angular grid increased by 1.

Total number of grid points                  ...    72956
Total number of batches                      ...      580
Average number of points per batch           ...      125
Average number of grid points per atom       ...     3648
UseSFitting                                  ... on
Initializing property integral containers    ... done (  0.1 sec)

SHARK setup successfully completed in  10.4 seconds

Maximum memory used throughout the entire STARTUP-calculation: 100.1 MB


           ************************************************************
           *        Program running with 4 parallel MPI-processes     *
           *              working on a common directory               *
           ************************************************************
-------------------------------------------------------------------------------
                                 ORCA GUESS
                   Start orbitals & Density for SCF / CASSCF
-------------------------------------------------------------------------------

------------
SCF SETTINGS
------------
Hamiltonian:
 Density Functional     Method          .... DFT(GTOs)
 Exchange Functional    Exchange        .... PBE
   PBE kappa parameter   XKappa         ....  0.804000
   PBE mue parameter    XMuePBE         ....  0.219520
 Correlation Functional Correlation     .... PBE
   PBE beta parameter  CBetaPBE         ....  0.066725
 LDA part of GGA corr.  LDAOpt          .... PW91-LDA
 Gradients option       PostSCFGGA      .... off
 Hybrid DFT is turned on
   Fraction HF Exchange ScalHFX         ....  0.250000
   Scaling of DF-GGA-X  ScalDFX         ....  0.750000
   Scaling of DF-GGA-C  ScalDFC         ....  1.000000
   Scaling of DF-LDA-C  ScalLDAC        ....  1.000000
   Perturbative correction              ....  0.000000
   NL short-range parameter             ....  6.900000
 RI-approximation to the Coulomb term is turned on
   Number of AuxJ basis functions       .... 714
   RIJ-COSX (HFX calculated with COS-X)).... on


General Settings:
 Integral files         IntName         .... cs_rporg_149_ox_solv_04
 Hartree-Fock type      HFTyp           .... RHF
 Total Charge           Charge          ....    0
 Multiplicity           Mult            ....    1
 Number of Electrons    NEL             ....   96
 Basis Dimension        Dim             ....  759
 Nuclear Repulsion      ENuc            ....    780.4257124986 Eh

Convergence Acceleration:
 AO-DIIS                CNVDIIS         .... on
   Start iteration      DIISMaxIt       ....     0
   Startup error        DIISStart       ....  0.200000
   # of expansion vecs  DIISMaxEq       ....     5
   Bias factor          DIISBfac        ....   1.050
   Max. coefficient     DIISMaxC        ....  10.000
 MO-DIIS                CNVKDIIS        .... off
 Trust-Rad. Augm. Hess. CNVTRAH         .... auto
   Auto Start mean grad. ratio tolernc. ....  1.125000
   Auto Start start iteration           ....    50
   Auto Start num. interpolation iter.  ....    10
   Max. Number of Micro iterations      ....    24
   Max. Number of Macro iterations      .... Maxiter - #DIIS iter
   Number of Davidson start vectors     ....     2
   Converg. threshold    (grad. norm)   ....   1.000e-05
   Grad. Scal. Fac. for Micro threshold ....   0.100
   Minimum threshold for Micro iter.    ....   1.000e-02
   NR start threshold (gradient norm)   ....   1.000e-04
   Initial trust radius                 ....   0.400
   Minimum AH scaling param. (alpha)    ....   1.000
   Maximum AH scaling param. (alpha)    .... 1000.000
   Quad. conv. algorithm                .... NR
   White noise on init. David. guess    .... on
   Maximum white noise                  ....   0.010
   Pseudo random numbers                .... off
   Inactive MOs                         .... canonical
   Orbital update algorithm             .... Taylor
   Preconditioner                       .... Diag
   Full preconditioner red. dimension   ....   250
 SOSCF                  CNVSOSCF        .... on
   Start iteration      SOSCFMaxIt      ....   150
   Startup grad/error   SOSCFStart      ....  0.001000
   Hessian update       SOSCFHessUp     .... L-BFGS
 Level Shifting         CNVShift        .... on
   Level shift para.    LevelShift      ....    0.2500
   Turn off err/grad.   ShiftErr        ....    0.0000
 Zerner damping         CNVZerner       .... off
 Static damping         CNVDamp         .... on
   Fraction old density DampFac         ....    0.8500
   Max. Damping (<1)    DampMax         ....    0.9800
   Min. Damping (>=0)   DampMin         ....    0.0000
   Turn off err/grad.   DampErr         ....    0.0300

SCF Procedure:
 Maximum # iterations   MaxIter         ....  1500
 SCF integral mode      SCFMode         .... Direct
   Integral package                     .... SHARK and LIBINT hybrid scheme
 Reset frequency        DirectResetFreq ....    20
 Integral Threshold     Thresh          ....  1.000e-12 Eh
 Primitive CutOff       TCut            ....  1.000e-13 Eh

Convergence Tolerance:
 Convergence Check Mode ConvCheckMode   .... Total+1el-Energy
 Convergence forced     ConvForced      .... 0
 Energy Change          TolE            ....  1.000e-08 Eh
 1-El. energy change                    ....  1.000e-05 Eh
 Orbital Gradient       TolG            ....  1.000e-05
 Orbital Rotation angle TolX            ....  1.000e-05
 DIIS Error             TolErr          ....  5.000e-07

------------------------------
INITIAL GUESS: MODEL POTENTIAL
------------------------------
Loading Hartree-Fock densities                     ... done
Calculating cut-offs                               ... done
Initializing the effective Hamiltonian             ... done
Setting up the integral package (SHARK)            ... done
Starting the Coulomb interaction                   ... done (   0.9 sec)
Making the grid                                    ... done (   0.5 sec)
Mapping shells                                     ... done
Starting the XC term evaluation                    ... done (   1.1 sec)
  promolecular density results
     # of electrons  =     96.000915187
     EX              =    -86.248381736
     EC              =     -3.260072522
     EX+EC           =    -89.508454257
Transforming the Hamiltonian                       ... done (   0.1 sec)
Diagonalizing the Hamiltonian                      ... done (   0.1 sec)
Back transforming the eigenvectors                 ... done (   0.1 sec)
Now organizing SCF variables                       ... done
                      ------------------
                      INITIAL GUESS DONE (   2.8 sec)
                      ------------------
             **** ENERGY FILE WAS UPDATED (cs_rporg_149_ox_solv_04.en.tmp) ****
Finished Guess after   8.8 sec
Maximum memory used throughout the entire GUESS-calculation: 72.5 MB


           ************************************************************
           *        Program running with 4 parallel MPI-processes     *
           *              working on a common directory               *
           ************************************************************

-------------------------------------------------------------------------------------------
                                      ORCA LEAN-SCF
                              memory conserving SCF solver
-------------------------------------------------------------------------------------------

--------------------
CPCM SOLVATION MODEL
--------------------
CPCM parameters:
  Epsilon                                         ...      35.6880
  Refrac                                          ...       1.3442
  Rsolv                                           ...       2.1900
  Surface type                                    ...    GEPOL SES
  Discretization scheme                           ... Constant num. charges
  Epsilon function type                           ...         CPCM
Solvent:                                          ... ACETONITRILE
SMD-CDS solvent descriptors:
  Soln                                            ...       1.3442
  Soln25                                          ...       1.3416
  Sola                                            ...       0.0700
  Solb                                            ...       0.3200
  Solg                                            ...      41.2500
  Solc                                            ...       0.0000
  Solh                                            ...       0.0000
Radii:
  Scheme                                          ... Element-dependent radii
  Radius for C  used is    3.4960 Bohr (=   1.8500 Ang.)
  Radius for O  used is    4.0969 Bohr (=   2.1680 Ang.)
  Radius for H  used is    2.2677 Bohr (=   1.2000 Ang.)
  Radius for F  used is    3.2692 Bohr (=   1.7300 Ang.)
Calculating surface                               ...        done! (  0.0s)
Cavity surface points                             ...          680
Cavity Volume                                     ...    1327.9465
Cavity Surface-area                               ...     732.5633
Calculating surface distance matrix               ...        done! (  0.0s)
Performing Cholesky decomposition & store         ...        done! (  0.0s)
Overall time for CPCM initialization              ...                 0.1s

----------------------------------------D-I-I-S--------------------------------------------
Iteration    Energy (Eh)           Delta-E    RMSDP     MaxDP     DIISErr   Damp  Time(sec)
-------------------------------------------------------------------------------------------
               ***  Starting incremental Fock matrix formation  ***
    1    -721.1741934251042494     0.00e+00  1.18e-03  1.09e-01  2.77e-01  0.850  30.7
    2    -721.2469418491837132    -7.27e-02  1.11e-03  1.04e-01  1.96e-01  0.850  16.4
                               ***Turning on AO-DIIS***
    3    -721.2936785461183717    -4.67e-02  7.25e-04  8.26e-02  1.27e-01  0.850  16.0
    4    -721.3235177539129381    -2.98e-02  5.70e-04  6.47e-02  1.05e-01  0.850  15.9
    5    -721.3453629310513406    -2.18e-02  4.72e-04  5.30e-02  9.10e-02  0.850  16.1
    6    -721.3628453003416325    -1.75e-02  4.00e-04  4.42e-02  7.84e-02  0.850  15.6
    7    -721.3773338330861407    -1.45e-02  3.39e-04  3.72e-02  6.53e-02  0.850  15.4
    8    -721.3893074372952015    -1.20e-02  2.83e-04  3.15e-02  5.32e-02  0.850  15.5
    9    -721.3990849789968252    -9.78e-03  2.39e-04  2.67e-02  4.45e-02  0.850  15.3
   10    -721.4071323957584809    -8.05e-03  2.03e-04  2.26e-02  3.79e-02  0.850  15.1
   11    -721.4138229499362751    -6.69e-03  1.73e-04  1.91e-02  3.22e-02  0.850  15.2
   12    -721.4194133184494149    -5.59e-03  1.47e-04  1.62e-02  2.69e-02  0.850  15.1
   13    -721.4240891414908674    -4.68e-03  8.26e-04  9.14e-02  2.24e-02  0.000  14.8
   14    -721.4492936128804104    -2.52e-02  2.95e-05  3.24e-03  2.20e-03  0.000  15.6
                              *** Initializing SOSCF ***
---------------------------------------S-O-S-C-F--------------------------------------
Iteration    Energy (Eh)           Delta-E    RMSDP     MaxDP     MaxGrad    Time(sec)
--------------------------------------------------------------------------------------
   15    -721.4493054893257522    -1.19e-05  1.13e-05  9.04e-04  7.42e-04    14.4
               *** Restarting incremental Fock matrix formation ***
   16    -721.4493016400012948     3.85e-06  5.35e-04  3.98e-02  3.64e-05    30.3
   17    -721.4493017918571240    -1.52e-07  1.80e-04  1.33e-02  7.18e-05    26.0
   18    -721.4493018104308248    -1.86e-08  1.83e-04  1.35e-02  4.37e-05    25.1
   19    -721.4493018882001252    -7.78e-08  3.33e-06  2.19e-04  3.10e-06    24.6
   20    -721.4493018964774365    -8.28e-09  1.39e-05  1.03e-03  4.01e-06    19.5
                 **** Energy Check signals convergence ****

               *****************************************************
               *                     SUCCESS                       *
               *           SCF CONVERGED AFTER  20 CYCLES          *
               *****************************************************

Recomputing exchange energy using gridx3       ... done (   47.458 sec)
Old exchange energy                            :    -21.880772964 Eh
New exchange energy                            :    -21.880796771 Eh
Exchange energy change after final integration :     -0.000023807 Eh
Total energy after final integration           :   -721.449325704 Eh

SMD CDS free energy correction energy :                -1.13486     Kcal/mol
Total Energy after SMD CDS correction =              -721.451134225 Eh
             **** ENERGY FILE WAS UPDATED (cs_rporg_149_ox_solv_04.en.tmp) ****

----------------
TOTAL SCF ENERGY
----------------

Total Energy       :       -721.45113422487520 Eh          -19631.68342 eV

Components:
Nuclear Repulsion  :        780.42571249864091 Eh           21236.46328 eV
Electronic Energy  :      -1501.86161288253152 Eh          -40867.73216 eV
One Electron Energy:      -2539.22733031214102 Eh          -69095.88842 eV
Two Electron Energy:       1037.36571742960950 Eh           28228.15626 eV
CPCM Dielectric    :         -0.01340151258689 Eh              -0.36467 eV
SMD CDS (Gcds)     :         -0.00180852095057 Eh              -0.04921 eV

Virial components:
Potential Energy   :      -1438.93105056551076 Eh          -39155.30450 eV
Kinetic Energy     :        717.47991634063567 Eh           19523.62109 eV
Virial Ratio       :          2.00553495337471

DFT components:
N(Alpha)           :       48.000004452902 electrons
N(Beta)            :       48.000004452902 electrons
N(Total)           :       96.000008905804 electrons
E(X)               :      -65.536063241758 Eh       
E(C)               :       -3.258808625972 Eh       
E(XC)              :      -68.794871867729 Eh       

CPCM Solvation Model Properties:
Surface-charge          :         -0.02929473799643
Corrected charge        :          0.00000000000000
Outlying charge corr.   :          0.00005575388545 Eh               0.00152 eV
Free-energy (cav+disp)  :         -0.00180852095057 Eh              -0.04921 eV

---------------
SCF CONVERGENCE
---------------

  Last Energy change         ...    8.2773e-09  Tolerance :   1.0000e-08
  Last MAX-Density change    ...    1.0339e-03  Tolerance :   1.0000e-07
  Last RMS-Density change    ...    1.3915e-05  Tolerance :   5.0000e-09
  Last DIIS Error            ...    7.4215e-04  Tolerance :   5.0000e-07
  Last Orbital Gradient      ...    4.0060e-06  Tolerance :   1.0000e-05
  Last Orbital Rotation      ...    6.9242e-06  Tolerance :   1.0000e-05


----------------
ORBITAL ENERGIES
----------------

  NO   OCC          E(Eh)            E(eV) 
   0   2.0000     -24.817417      -675.3163 
   1   2.0000     -24.815487      -675.2637 
   2   2.0000     -24.814703      -675.2424 
   3   2.0000     -19.204878      -522.5913 
   4   2.0000     -10.482560      -285.2449 
   5   2.0000     -10.322905      -280.9005 
   6   2.0000     -10.267190      -279.3844 
   7   2.0000     -10.253314      -279.0069 
   8   2.0000     -10.251814      -278.9660 
   9   2.0000     -10.251144      -278.9478 
  10   2.0000     -10.250439      -278.9286 
  11   2.0000     -10.246626      -278.8249 
  12   2.0000     -10.221652      -278.1453 
  13   2.0000      -1.364554       -37.1314 
  14   2.0000      -1.274018       -34.6678 
  15   2.0000      -1.271001       -34.5857 
  16   2.0000      -1.083754       -29.4904 
  17   2.0000      -0.909909       -24.7599 
  18   2.0000      -0.828493       -22.5445 
  19   2.0000      -0.790032       -21.4979 
  20   2.0000      -0.766151       -20.8480 
  21   2.0000      -0.733976       -19.9725 
  22   2.0000      -0.670235       -18.2380 
  23   2.0000      -0.651366       -17.7246 
  24   2.0000      -0.625909       -17.0319 
  25   2.0000      -0.617404       -16.8004 
  26   2.0000      -0.596620       -16.2348 
  27   2.0000      -0.577874       -15.7248 
  28   2.0000      -0.512415       -13.9435 
  29   2.0000      -0.504548       -13.7294 
  30   2.0000      -0.501972       -13.6593 
  31   2.0000      -0.492702       -13.4071 
  32   2.0000      -0.471904       -12.8412 
  33   2.0000      -0.464256       -12.6331 
  34   2.0000      -0.460726       -12.5370 
  35   2.0000      -0.459192       -12.4953 
  36   2.0000      -0.449761       -12.2386 
  37   2.0000      -0.445327       -12.1180 
  38   2.0000      -0.440276       -11.9805 
  39   2.0000      -0.439194       -11.9511 
  40   2.0000      -0.402291       -10.9469 
  41   2.0000      -0.397777       -10.8241 
  42   2.0000      -0.381254       -10.3745 
  43   2.0000      -0.376756       -10.2520 
  44   2.0000      -0.366666        -9.9775 
  45   2.0000      -0.289747        -7.8844 
  46   2.0000      -0.284748        -7.7484 
  47   2.0000      -0.276037        -7.5114 
  48   0.0000      -0.071378        -1.9423 
  49   0.0000      -0.024704        -0.6722 
  50   0.0000       0.000761         0.0207 
  51   0.0000       0.013594         0.3699 
  52   0.0000       0.018003         0.4899 
  53   0.0000       0.019708         0.5363 
  54   0.0000       0.029271         0.7965 
  55   0.0000       0.031403         0.8545 
  56   0.0000       0.034869         0.9488 
  57   0.0000       0.043495         1.1835 
  58   0.0000       0.048876         1.3300 
*Only the first 10 virtual orbitals were printed.

                    ********************************
                    * MULLIKEN POPULATION ANALYSIS *
                    ********************************

-----------------------
MULLIKEN ATOMIC CHARGES
-----------------------
   0 C :   -1.096662
   1 C :   -0.657213
   2 C :    0.600747
   3 C :   -1.006786
   4 C :   -0.665381
   5 C :    1.211845
   6 C :    0.782888
   7 O :   -0.905560
   8 C :   -0.640978
   9 H :    0.301834
  10 H :    0.299713
  11 H :    0.190316
  12 H :    0.260286
  13 H :    0.491625
  14 C :    1.108659
  15 F :   -0.370526
  16 F :   -0.379822
  17 F :   -0.354801
  18 H :    0.493082
  19 H :    0.336733
Sum of atomic charges:   -0.0000000

--------------------------------
MULLIKEN REDUCED ORBITAL CHARGES
--------------------------------
  0 C s       :     4.095203  s :     4.095203
      pz      :     0.905491  p :     2.752020
      px      :     0.852672
      py      :     0.993857
      dz2     :    -0.010170  d :     0.263363
      dxz     :     0.010029
      dyz     :     0.011189
      dx2y2   :     0.012988
      dxy     :     0.239328
      f0      :     0.001238  f :    -0.013924
      f+1     :    -0.000829
      f-1     :     0.000660
      f+2     :     0.001065
      f-2     :    -0.000808
      f+3     :     0.000730
      f-3     :    -0.015979

  1 C s       :     3.809186  s :     3.809186
      pz      :     0.966215  p :     2.658346
      px      :     0.731568
      py      :     0.960564
      dz2     :    -0.000235  d :     0.207927
      dxz     :     0.013889
      dyz     :     0.024238
      dx2y2   :     0.040001
      dxy     :     0.130033
      f0      :     0.001740  f :    -0.018247
      f+1     :     0.000167
      f-1     :     0.001518
      f+2     :     0.001266
      f-2     :    -0.001395
      f+3     :    -0.000677
      f-3     :    -0.020867

  2 C s       :     2.935300  s :     2.935300
      pz      :     0.980871  p :     2.428657
      px      :     0.630275
      py      :     0.817511
      dz2     :    -0.013308  d :     0.111838
      dxz     :     0.010905
      dyz     :     0.013597
      dx2y2   :     0.052942
      dxy     :     0.047701
      f0      :    -0.000777  f :    -0.076543
      f+1     :    -0.003008
      f-1     :    -0.000483
      f+2     :    -0.003605
      f-2     :    -0.007043
      f+3     :    -0.009608
      f-3     :    -0.052018

  3 C s       :     4.040488  s :     4.040488
      pz      :     0.947266  p :     2.843152
      px      :     0.952522
      py      :     0.943364
      dz2     :     0.005487  d :     0.143592
      dxz     :     0.020261
      dyz     :     0.021105
      dx2y2   :    -0.051417
      dxy     :     0.148156
      f0      :     0.001247  f :    -0.020446
      f+1     :     0.000269
      f-1     :     0.001213
      f+2     :     0.001619
      f-2     :    -0.001639
      f+3     :    -0.000549
      f-3     :    -0.022606

  4 C s       :     3.828047  s :     3.828047
      pz      :     0.963264  p :     2.651946
      px      :     0.712409
      py      :     0.976273
      dz2     :    -0.013720  d :     0.201393
      dxz     :    -0.001821
      dyz     :     0.013289
      dx2y2   :    -0.091210
      dxy     :     0.294856
      f0      :     0.001891  f :    -0.016005
      f+1     :     0.001081
      f-1     :     0.000316
      f+2     :     0.000845
      f-2     :    -0.000893
      f+3     :     0.002283
      f-3     :    -0.021528

  5 C s       :     2.751721  s :     2.751721
      pz      :     0.980838  p :     2.112849
      px      :     0.366102
      py      :     0.765910
      dz2     :    -0.030732  d :     0.014089
      dxz     :    -0.000155
      dyz     :    -0.000074
      dx2y2   :    -0.025324
      dxy     :     0.070375
      f0      :     0.000630  f :    -0.090503
      f+1     :    -0.004956
      f-1     :    -0.000408
      f+2     :    -0.000020
      f-2     :    -0.001654
      f+3     :    -0.008992
      f-3     :    -0.075105

  6 C s       :     3.262767  s :     3.262767
      pz      :     0.623688  p :     1.897942
      px      :     0.660865
      py      :     0.613390
      dz2     :     0.004880  d :     0.069153
      dxz     :     0.008222
      dyz     :     0.034555
      dx2y2   :     0.074443
      dxy     :    -0.052947
      f0      :     0.001179  f :    -0.012750
      f+1     :    -0.000006
      f-1     :     0.000892
      f+2     :     0.005119
      f-2     :     0.003980
      f+3     :    -0.003455
      f-3     :    -0.020461

  7 O s       :     4.138518  s :     4.138518
      pz      :     1.389169  p :     4.707631
      px      :     1.815430
      py      :     1.503032
      dz2     :     0.002754  d :     0.053888
      dxz     :     0.006949
      dyz     :     0.015573
      dx2y2   :     0.014483
      dxy     :     0.014129
      f0      :     0.000611  f :     0.005523
      f+1     :     0.000199
      f-1     :    -0.000061
      f+2     :     0.000458
      f-2     :     0.001069
      f+3     :     0.000518
      f-3     :     0.002729

  8 C s       :     3.398608  s :     3.398608
      pz      :     1.133656  p :     3.162453
      px      :     1.042394
      py      :     0.986403
      dz2     :     0.007625  d :     0.070808
      dxz     :     0.012338
      dyz     :     0.025967
      dx2y2   :     0.010717
      dxy     :     0.014161
      f0      :    -0.000258  f :     0.009109
      f+1     :    -0.000425
      f-1     :    -0.000848
      f+2     :     0.000888
      f-2     :     0.001454
      f+3     :     0.004809
      f-3     :     0.003488

  9 H s       :     0.657284  s :     0.657284
      pz      :     0.010463  p :     0.033233
      px      :     0.007611
      py      :     0.015159
      dz2     :     0.002589  d :     0.007648
      dxz     :     0.001702
      dyz     :    -0.000167
      dx2y2   :     0.002406
      dxy     :     0.001118

 10 H s       :     0.658800  s :     0.658800
      pz      :     0.010541  p :     0.033844
      px      :     0.007625
      py      :     0.015678
      dz2     :     0.002665  d :     0.007643
      dxz     :     0.001564
      dyz     :    -0.000161
      dx2y2   :     0.002464
      dxy     :     0.001111

 11 H s       :     0.773143  s :     0.773143
      pz      :     0.010919  p :     0.029618
      px      :     0.010698
      py      :     0.008001
      dz2     :    -0.000267  d :     0.006922
      dxz     :     0.002700
      dyz     :     0.000788
      dx2y2   :     0.001591
      dxy     :     0.002109

 12 H s       :     0.693578  s :     0.693578
      pz      :     0.021021  p :     0.034905
      px      :    -0.004443
      py      :     0.018327
      dz2     :     0.000016  d :     0.011231
      dxz     :     0.001549
      dyz     :     0.003264
      dx2y2   :     0.004775
      dxy     :     0.001627

 13 H s       :     0.470763  s :     0.470763
      pz      :     0.021981  p :     0.032181
      px      :     0.009464
      py      :     0.000737
      dz2     :    -0.000079  d :     0.005430
      dxz     :     0.001237
      dyz     :     0.002992
      dx2y2   :     0.000436
      dxy     :     0.000844

 14 C s       :     2.744792  s :     2.744792
      pz      :     0.439246  p :     1.639123
      px      :     0.771469
      py      :     0.428408
      dz2     :     0.095327  d :     0.444640
      dxz     :     0.078845
      dyz     :     0.083156
      dx2y2   :     0.098232
      dxy     :     0.089080
      f0      :     0.012430  f :     0.062786
      f+1     :     0.007063
      f-1     :     0.006112
      f+2     :     0.010851
      f-2     :     0.017170
      f+3     :     0.007410
      f-3     :     0.001749

 15 F s       :     4.005769  s :     4.005769
      pz      :     1.535346  p :     5.324607
      px      :     1.899477
      py      :     1.889784
      dz2     :     0.008246  d :     0.036151
      dxz     :     0.013174
      dyz     :     0.007550
      dx2y2   :     0.004113
      dxy     :     0.003068
      f0      :     0.001175  f :     0.004000
      f+1     :     0.000796
      f-1     :     0.000808
      f+2     :     0.000642
      f-2     :     0.000432
      f+3     :     0.000076
      f-3     :     0.000070

 16 F s       :     4.009267  s :     4.009267
      pz      :     1.705500  p :     5.328548
      px      :     1.888824
      py      :     1.734224
      dz2     :     0.008142  d :     0.037930
      dxz     :     0.008077
      dyz     :     0.006746
      dx2y2   :     0.007023
      dxy     :     0.007941
      f0      :     0.000555  f :     0.004078
      f+1     :     0.000363
      f-1     :     0.000822
      f+2     :     0.000861
      f-2     :     0.000685
      f+3     :     0.000289
      f-3     :     0.000504

 17 F s       :     3.998994  s :     3.998994
      pz      :     1.913659  p :     5.315787
      px      :     1.868119
      py      :     1.534009
      dz2     :     0.004509  d :     0.035982
      dxz     :     0.003194
      dyz     :     0.008103
      dx2y2   :     0.008736
      dxy     :     0.011441
      f0      :     0.000347  f :     0.004038
      f+1     :     0.000191
      f-1     :     0.000511
      f+2     :     0.000430
      f-2     :     0.000446
      f+3     :     0.000720
      f-3     :     0.001393

 18 H s       :     0.503908  s :     0.503908
      pz      :     0.021793  p :     0.000478
      px      :    -0.021580
      py      :     0.000265
      dz2     :    -0.001319  d :     0.002532
      dxz     :     0.000916
      dyz     :     0.003216
      dx2y2   :     0.000642
      dxy     :    -0.000924

 19 H s       :     0.643652  s :     0.643652
      pz      :     0.018292  p :     0.013668
      px      :    -0.020778
      py      :     0.016154
      dz2     :    -0.000159  d :     0.005948
      dxz     :     0.001435
      dyz     :     0.003091
      dx2y2   :     0.001554
      dxy     :     0.000027



                     *******************************
                     * LOEWDIN POPULATION ANALYSIS *
                     *******************************

----------------------
LOEWDIN ATOMIC CHARGES
----------------------
   0 C :    0.209772
   1 C :    0.215761
   2 C :   -0.174017
   3 C :    0.216854
   4 C :    0.224503
   5 C :   -0.120979
   6 C :   -0.544300
   7 O :    0.495959
   8 C :    0.569460
   9 H :   -0.153455
  10 H :   -0.153533
  11 H :   -0.172825
  12 H :   -0.165501
  13 H :   -0.155113
  14 C :   -1.594745
  15 F :    0.542925
  16 F :    0.548580
  17 F :    0.560802
  18 H :   -0.171764
  19 H :   -0.178385

-------------------------------
LOEWDIN REDUCED ORBITAL CHARGES
-------------------------------
  0 C s       :     2.479438  s :     2.479438
      pz      :     0.574211  p :     2.262248
      px      :     0.850152
      py      :     0.837885
      dz2     :     0.070188  d :     0.700185
      dxz     :     0.102959
      dyz     :     0.060060
      dx2y2   :     0.212285
      dxy     :     0.254693
      f0      :     0.021096  f :     0.348357
      f+1     :     0.029781
      f-1     :     0.022593
      f+2     :     0.046630
      f-2     :     0.026524
      f+3     :     0.063251
      f-3     :     0.138483

  1 C s       :     2.480794  s :     2.480794
      pz      :     0.589129  p :     2.271934
      px      :     0.848617
      py      :     0.834188
      dz2     :     0.069083  d :     0.688184
      dxz     :     0.098570
      dyz     :     0.061159
      dx2y2   :     0.206436
      dxy     :     0.252935
      f0      :     0.021153  f :     0.343328
      f+1     :     0.029606
      f-1     :     0.022869
      f+2     :     0.046327
      f-2     :     0.026054
      f+3     :     0.061345
      f-3     :     0.135973

  2 C s       :     2.471552  s :     2.471552
      pz      :     0.627502  p :     2.291249
      px      :     0.792095
      py      :     0.871653
      dz2     :     0.090270  d :     0.903379
      dxz     :     0.110814
      dyz     :     0.134100
      dx2y2   :     0.331034
      dxy     :     0.237162
      f0      :     0.034375  f :     0.507837
      f+1     :     0.039865
      f-1     :     0.034816
      f+2     :     0.044608
      f-2     :     0.076287
      f+3     :     0.080488
      f-3     :     0.197398

  3 C s       :     2.479429  s :     2.479429
      pz      :     0.590289  p :     2.269935
      px      :     0.846059
      py      :     0.833587
      dz2     :     0.067932  d :     0.690688
      dxz     :     0.103401
      dyz     :     0.061908
      dx2y2   :     0.203735
      dxy     :     0.253712
      f0      :     0.021434  f :     0.343094
      f+1     :     0.029263
      f-1     :     0.022927
      f+2     :     0.047726
      f-2     :     0.025447
      f+3     :     0.060533
      f-3     :     0.135764

  4 C s       :     2.476310  s :     2.476310
      pz      :     0.579797  p :     2.261799
      px      :     0.845492
      py      :     0.836510
      dz2     :     0.069158  d :     0.695697
      dxz     :     0.104102
      dyz     :     0.060204
      dx2y2   :     0.212722
      dxy     :     0.249512
      f0      :     0.020822  f :     0.341691
      f+1     :     0.028540
      f-1     :     0.022505
      f+2     :     0.045781
      f-2     :     0.026802
      f+3     :     0.060865
      f-3     :     0.136375

  5 C s       :     2.469392  s :     2.469392
      pz      :     0.611484  p :     2.284978
      px      :     0.816619
      py      :     0.856875
      dz2     :     0.090142  d :     0.882547
      dxz     :     0.097650
      dyz     :     0.123916
      dx2y2   :     0.312812
      dxy     :     0.258027
      f0      :     0.029743  f :     0.484062
      f+1     :     0.036331
      f-1     :     0.034370
      f+2     :     0.031331
      f-2     :     0.068530
      f+3     :     0.077921
      f-3     :     0.205836

  6 C s       :     2.493304  s :     2.493304
      pz      :     0.514812  p :     2.197674
      px      :     0.826805
      py      :     0.856057
      dz2     :     0.101187  d :     1.219571
      dxz     :     0.130351
      dyz     :     0.198987
      dx2y2   :     0.404658
      dxy     :     0.384387
      f0      :     0.042021  f :     0.633752
      f+1     :     0.035216
      f-1     :     0.042265
      f+2     :     0.064571
      f-2     :     0.068687
      f+3     :     0.124036
      f-3     :     0.256954

  7 O s       :     3.178778  s :     3.178778
      pz      :     1.134181  p :     4.015378
      px      :     1.452609
      py      :     1.428588
      dz2     :     0.027756  d :     0.231261
      dxz     :     0.011301
      dyz     :     0.025328
      dx2y2   :     0.088951
      dxy     :     0.077926
      f0      :     0.005005  f :     0.078624
      f+1     :     0.004139
      f-1     :     0.008698
      f+2     :     0.003724
      f-2     :     0.007669
      f+3     :     0.017074
      f-3     :     0.032316

  8 C s       :     2.459133  s :     2.459133
      pz      :     0.777182  p :     2.313133
      px      :     0.772990
      py      :     0.762960
      dz2     :     0.084509  d :     0.477343
      dxz     :     0.027323
      dyz     :     0.117894
      dx2y2   :     0.145280
      dxy     :     0.102337
      f0      :     0.012276  f :     0.180930
      f+1     :     0.015856
      f-1     :     0.030123
      f+2     :     0.017486
      f-2     :     0.017969
      f+3     :     0.030706
      f-3     :     0.056514

  9 H s       :     0.610107  s :     0.610107
      pz      :     0.127956  p :     0.317024
      px      :     0.091943
      py      :     0.097125
      dz2     :     0.077579  d :     0.226324
      dxz     :     0.042270
      dyz     :     0.046492
      dx2y2   :     0.030340
      dxy     :     0.029642

 10 H s       :     0.610186  s :     0.610186
      pz      :     0.127213  p :     0.317035
      px      :     0.092505
      py      :     0.097317
      dz2     :     0.077719  d :     0.226312
      dxz     :     0.041198
      dyz     :     0.046016
      dx2y2   :     0.031264
      dxy     :     0.030115

 11 H s       :     0.629170  s :     0.629170
      pz      :     0.085685  p :     0.313116
      px      :     0.139907
      py      :     0.087524
      dz2     :     0.016481  d :     0.230540
      dxz     :     0.071631
      dyz     :     0.013677
      dx2y2   :     0.049044
      dxy     :     0.079706

 12 H s       :     0.632054  s :     0.632054
      pz      :     0.075537  p :     0.309854
      px      :     0.110427
      py      :     0.123889
      dz2     :     0.024355  d :     0.223593
      dxz     :     0.019138
      dyz     :     0.044854
      dx2y2   :     0.079366
      dxy     :     0.055880

 13 H s       :     0.643632  s :     0.643632
      pz      :     0.076398  p :     0.296763
      px      :     0.096400
      py      :     0.123966
      dz2     :     0.023412  d :     0.214717
      dxz     :     0.019126
      dyz     :     0.044286
      dx2y2   :     0.072603
      dxy     :     0.055291

 14 C s       :     2.471563  s :     2.471563
      pz      :     0.658343  p :     2.122084
      px      :     0.809604
      py      :     0.654137
      dz2     :     0.370358  d :     1.715414
      dxz     :     0.305671
      dyz     :     0.367500
      dx2y2   :     0.345412
      dxy     :     0.326474
      f0      :     0.215376  f :     1.285684
      f+1     :     0.149633
      f-1     :     0.214215
      f+2     :     0.196718
      f-2     :     0.176133
      f+3     :     0.134421
      f-3     :     0.199189

 15 F s       :     3.410559  s :     3.410559
      pz      :     1.537930  p :     4.850456
      px      :     1.657647
      py      :     1.654879
      dz2     :     0.051705  d :     0.164975
      dxz     :     0.043580
      dyz     :     0.042775
      dx2y2   :     0.018000
      dxy     :     0.008914
      f0      :     0.009120  f :     0.031085
      f+1     :     0.005931
      f-1     :     0.006209
      f+2     :     0.005213
      f-2     :     0.003161
      f+3     :     0.000620
      f-3     :     0.000831

 16 F s       :     3.405279  s :     3.405279
      pz      :     1.595373  p :     4.849617
      px      :     1.654152
      py      :     1.600092
      dz2     :     0.043536  d :     0.165406
      dxz     :     0.026546
      dyz     :     0.036856
      dx2y2   :     0.032239
      dxy     :     0.026230
      f0      :     0.005028  f :     0.031117
      f+1     :     0.002148
      f-1     :     0.006087
      f+2     :     0.006048
      f-2     :     0.005892
      f+3     :     0.001864
      f-3     :     0.004050

 17 F s       :     3.397177  s :     3.397177
      pz      :     1.665498  p :     4.843529
      px      :     1.647366
      py      :     1.530664
      dz2     :     0.021187  d :     0.167143
      dxz     :     0.007749
      dyz     :     0.043074
      dx2y2   :     0.049317
      dxy     :     0.045816
      f0      :     0.002874  f :     0.031350
      f+1     :     0.001596
      f-1     :     0.004375
      f+2     :     0.004023
      f-2     :     0.002685
      f+3     :     0.005971
      f-3     :     0.009825

 18 H s       :     0.645508  s :     0.645508
      pz      :     0.076245  p :     0.302915
      px      :     0.102891
      py      :     0.123779
      dz2     :     0.025734  d :     0.223341
      dxz     :     0.018423
      dyz     :     0.044800
      dx2y2   :     0.077307
      dxy     :     0.057076

 19 H s       :     0.640063  s :     0.640063
      pz      :     0.072962  p :     0.310626
      px      :     0.115053
      py      :     0.122612
      dz2     :     0.027010  d :     0.227695
      dxz     :     0.020417
      dyz     :     0.041834
      dx2y2   :     0.081387
      dxy     :     0.057048



                      *****************************
                      * MAYER POPULATION ANALYSIS *
                      *****************************

  NA   - Mulliken gross atomic population
  ZA   - Total nuclear charge
  QA   - Mulliken gross atomic charge
  VA   - Mayer's total valence
  BVA  - Mayer's bonded valence
  FA   - Mayer's free valence

  ATOM       NA         ZA         QA         VA         BVA        FA
  0 C      7.0967     6.0000    -1.0967     2.5981     2.5981    -0.0000
  1 C      6.6572     6.0000    -0.6572     2.5048     2.5048    -0.0000
  2 C      5.3993     6.0000     0.6007     3.0661     3.0661    -0.0000
  3 C      7.0068     6.0000    -1.0068     2.7326     2.7326     0.0000
  4 C      6.6654     6.0000    -0.6654     2.5861     2.5861    -0.0000
  5 C      4.7882     6.0000     1.2118     1.9001     1.9001     0.0000
  6 C      5.2171     6.0000     0.7829     2.5509     2.5509     0.0000
  7 O      8.9056     8.0000    -0.9056     1.1817     1.1817     0.0000
  8 C      6.6410     6.0000    -0.6410     3.8367     3.8367     0.0000
  9 H      0.6982     1.0000     0.3018     0.8852     0.8852     0.0000
 10 H      0.7003     1.0000     0.2997     0.8895     0.8895    -0.0000
 11 H      0.8097     1.0000     0.1903     1.0045     1.0045     0.0000
 12 H      0.7397     1.0000     0.2603     1.0869     1.0869    -0.0000
 13 H      0.5084     1.0000     0.4916     0.6856     0.6856     0.0000
 14 C      4.8913     6.0000     1.1087     3.1185     3.1185     0.0000
 15 F      9.3705     9.0000    -0.3705     0.9382     0.9382     0.0000
 16 F      9.3798     9.0000    -0.3798     0.9454     0.9454     0.0000
 17 F      9.3548     9.0000    -0.3548     0.9160     0.9160    -0.0000
 18 H      0.5069     1.0000     0.4931     0.7631     0.7631    -0.0000
 19 H      0.6633     1.0000     0.3367     1.0229     1.0229     0.0000

  Mayer bond orders larger than 0.100000
B(  0-C ,  1-C ) :   1.4204 B(  0-C ,  2-C ) :  -0.1013 B(  0-C ,  4-C ) :  -0.3405 
B(  0-C ,  5-C ) :   0.5407 B(  0-C ,  6-C ) :   0.1459 B(  0-C , 19-H ) :   0.7706 
B(  1-C ,  2-C ) :   0.8555 B(  1-C , 18-H ) :   0.5367 B(  2-C ,  3-C ) :   0.9148 
B(  2-C , 14-C ) :   1.0031 B(  2-C , 15-F ) :   0.1511 B(  2-C , 16-F ) :   0.1218 
B(  2-C , 17-F ) :   0.1324 B(  3-C ,  4-C ) :   1.1895 B(  3-C , 13-H ) :   0.5412 
B(  4-C ,  5-C ) :   0.6280 B(  4-C , 12-H ) :   1.0615 B(  5-C ,  6-C ) :   0.4634 
B(  5-C ,  7-O ) :   0.2438 B(  6-C ,  7-O ) :   0.8420 B(  6-C ,  8-C ) :   0.9714 
B(  7-O , 19-H ) :   0.1496 B(  8-C ,  9-H ) :   0.9031 B(  8-C , 10-H ) :   0.9044 
B(  8-C , 11-H ) :   0.9534 B( 14-C , 15-F ) :   0.7491 B( 14-C , 16-F ) :   0.7381 
B( 14-C , 17-F ) :   0.6726 

-------
TIMINGS
-------

Total SCF time: 0 days 0 hours 7 min 1 sec 

Total time                  ....     421.930 sec
Sum of individual times     ....     421.107 sec  ( 99.8%)

SCF preparation             ....       1.034 sec  (  0.2%)
Fock matrix formation       ....     406.565 sec  ( 96.4%)
  Startup                   ....       1.109 sec  (  0.3% of F)
  Split-RI-J                ....      27.945 sec  (  6.9% of F)
  Chain of spheres X        ....     293.844 sec  ( 72.3% of F)
  XC integration            ....      69.219 sec  ( 17.0% of F)
    XC Preparation          ....       0.000 sec  (  0.0% of XC)
    Basis function eval.    ....      12.232 sec  ( 17.7% of XC)
    Density eval.           ....      18.199 sec  ( 26.3% of XC)
    XC-Functional eval.     ....       0.699 sec  (  1.0% of XC)
    XC-Potential eval.      ....      34.176 sec  ( 49.4% of XC)
  CPCM terms                ....      11.817 sec  (  2.9% of F)
Diagonalization             ....       0.000 sec  (  0.0%)
Density matrix formation    ....       2.524 sec  (  0.6%)
Total Energy calculation    ....       1.082 sec  (  0.3%)
Population analysis         ....       0.265 sec  (  0.1%)
Orbital Transformation      ....       0.626 sec  (  0.1%)
Orbital Orthonormalization  ....       0.000 sec  (  0.0%)
DIIS solution               ....       7.464 sec  (  1.8%)
SOSCF solution              ....       1.549 sec  (  0.4%)
Finished LeanSCF after 422.1 sec

Maximum memory used throughout the entire LEANSCF-calculation: 124.5 MB


-------------------------------------------------------------------------------
                          DFT DISPERSION CORRECTION                            
                                                                               
                              DFTD3 V3.1  Rev 1                                
                          USING Becke-Johnson damping                          
-------------------------------------------------------------------------------
The PBE0 functional is recognized
Active option DFTDOPT                   ...         4   

molecular C6(AA) [au] = 4490.198364 


            DFT-D V3
 parameters
 s6 scaling factor         :     1.0000 
 a1 scaling factor         :     0.4145 
 s8 scaling factor         :     1.2177 
 a2 scaling factor         :     4.8593 
 ad hoc parameters k1-k3   :    16.0000     1.3333    -4.0000 

 Edisp/kcal,au: -11.721621033445  -0.018679590138 
 E6   /kcal   :  -7.323441860 
 E8   /kcal   :  -4.398179174 
 % E8         :  37.521936267 

-------------------------   ----------------
Dispersion correction           -0.018679590
-------------------------   ----------------


-------------------------   --------------------
FINAL SINGLE POINT ENERGY      -721.469813815013
-------------------------   --------------------



           ************************************************************
           *        Program running with 4 parallel MPI-processes     *
           *              working on a common directory               *
           ************************************************************

------------------------------------------------------------------------------
                              ORCA PROPERTY CALCULATIONS
------------------------------------------------------------------------------

GBWName                                 ... cs_rporg_149_ox_solv_04.gbw
Number of atoms                         ...     20
Number of basis functions               ...    837
Max core memory                         ...   3000 MB

Electric properties:
Dipole moment                           ... YES
Quadrupole moment                       ...  NO
Static polarizability (Dipole/Dipole)   ...  NO
Static polarizability (Dipole/Quad.)    ...  NO
Static polarizability (Quad./Quad.)     ...  NO
Static polarizability (Velocity)        ...  NO

Atomic electric properties:
Dipole moment                           ...  NO
Quadrupole moment                       ...  NO
Static polarizability                   ...  NO

Choice of electric origin               ... Center of mass
Position of electric origin             ...    -0.009132     0.005576    -0.005271

General magnetic properties:
Magnetizability                         ...  NO

EPR properties:
g-Tensor (aka g-matrix)                 ...  NO
Zero-Field splitting spin-orbit         ...  NO
Zero-field splitting spin-spin          ...  NO
Hyperfine couplings                     ...  NO (   0 nuclei)
Quadrupole couplings                    ...  NO (   0 nuclei)
Contact density                         ...  NO (   0 nuclei)

NMR properties:
Chemical shifts                         ...  NO (   0 nuclei)
Spin-rotation constants                 ...  NO (   0 nuclei)
Spin-spin couplings                     ...  NO (   0 nuclei,    0 pairs)

Choice of magnetic origin               ... GIAO
Position of magnetic origin             ...     0.000000     0.000000     0.000000

Properties with geometric perturbations:
SCF Hessian                             ...  NO
IR spectrum                             ...  NO
VCD spectrum                            ...  NO
X-ray spectroscopy properties:
SCF XES/XAS/RIXS spectra                ...  NO


-------------
DIPOLE MOMENT
-------------

Method             : SCF
Type of density    : Electron Density
Multiplicity       :   1
Irrep              :   0
Energy             :  -721.4511342248752044 Eh
Relativity type    : 
Basis              : AO
                                X                 Y                 Z
Electronic contribution:    -21.612678280       2.957420153      -0.048455082
Nuclear contribution   :     22.009157676      -4.256883990       0.073247664
                        -----------------------------------------
Total Dipole Moment    :      0.396479396      -1.299463837       0.024792581
                        -----------------------------------------
Magnitude (a.u.)       :      1.358829219
Magnitude (Debye)      :      3.453869391



--------------------
Rotational spectrum 
--------------------
 
Rotational constants in cm-1:             0.074861             0.012555             0.011413 
Rotational constants in MHz :          2244.280303           376.379088           342.159113 

Dipole components along the rotational axes: 
x,y,z [a.u.] :     0.399579    -1.298556     0.022497 
x,y,z [Debye]:     1.015648    -3.300667     0.057182 

 

Dipole moment calculation done in   0.1 sec 

Maximum memory used throughout the entire PROP-calculation: 74.5 MB

--------------------------------
SUGGESTED CITATIONS FOR THIS RUN
--------------------------------

Below you find a list of papers that are relevant to this ORCA run
We neither can nor want to force you to cite these papers, but we appreciate if you do
You receive ORCA, which is the product of decades of hard work by many enthusiastic individuals, for free
The only thing we kindly ask in return is that you cite our papers,
We deeply appreciate it, if you show your appreciation for ORCA by not just citing the generic ORCA reference.

Please note that relegating all ORCA citations to the supporting information does *not* help us.
SI sections are not indexed - citations you put there will not count into any citation statistics
But we need these citations in order to attract the funding resources that allow us to do what we are doing

Therefore, if you are a happy ORCA user, please consider citing a few of the papers listed below in the main body of your paper

In addition to the list printed below, the program has created the file cs_rporg_149_ox_solv_04.bibtex that contains the list in bibtex format
You can import this file easily into all common literature databanks and citation aid programs


List of essential papers. We consider these as the minimum necessary citations

  1. Neese,F.
     Software update: the ORCA program system, version 5.0
     WIRES Comput. Molec. Sci., 2022 12(1)e1606
     doi.org/10.1002/wcms.1606

List of papers to cite with high priority. The work reported in these papers was absolutely
necessary for this run to complete.
Our perspective: the developers of density functionals and basis sets usually get cited in chemistry papers
Good! But without the algorithms to do something with them, the functionals or basis sets would not do anything.
Hence, in our opinion, the algorithm design and method developments papers are equally worthy of getting cited

  1. Neese,F.
     An improvement of the resolution of the identity approximation for the formation of the Coulomb matrix
     J. Comp. Chem., 2003 24(14)1740-1747
     doi.org/10.1002/jcc.10318
  2. Neese,F.; Wennmohs,F.; Hansen,A.; Becker,U.
     Efficient, approximate and parallel Hartree-Fock and hybrid DFT calculations. A 'chain-of-spheres' algorithm for the Hartree-Fock exchange
     Chem. Phys., 2009 356(1-3)98-109
     doi.org/10.1016/j.chemphys.2008.10.036
  3. Garcia-Rates,M.; Neese,F.
     Effect of the Solute Cavity on the Solvation Energy and its Derivatives within the Framework of the Gaussian Charge Scheme
     J. Comput. Chem., 2020 41 922-939
     doi.org/10.1002/jcc.26139
  4. Helmich-Paris,B.; de Souza,B.; Neese,F.; Izsák,R.
     An improved chain of spheres for exchange algorithm
     J. Chem. Phys., 2021 155 104109
     doi.org/doi: 10.1063/5.0058766.
  5. Neese,F.
     The SHARK Integral Generation and Digestion System
     J. Comp. Chem., 2022  1-16
     doi.org/10.1002/jcc.26942
  6. Grimme,S.; Antony,J.; Ehrlich,S.; Krieg,H.
     A consistent and accurate ab initio parametrization of density functional dispersion correction (DFT-D) for the 94 elements H-Pu
     J. Chem. Phys., 2010 132 154104-XXXX
     doi.org/10.1063/1.3382344
  7. Grimme,S.; Ehrlich,S.; Goerigk,L.
     Effect of the damping function in dispersion corrected density functional theory
     J. Comput. Chem., 2011 32(7)1456-1465
     doi.org/10.1002/jcc.21759

List of suggested additional citations. These are papers that are important in the 'surrounding' of 
of this run, or papers that preceded the highly important papers. If you like your results we are grateful for a citation.

  1. Izsak,R.; Neese,F.
     An overlap fitted chain of spheres exchange method
     J. Chem. Phys., 2011 135 144105
     doi.org/10.1063/1.3646921
  2. Izsak,R.; Hansen,A.; Neese,F.
     The resolution of identity and chain of spheres approximations for the LPNO-CCSD singles Fock term
     Molec. Phys., 2012 110 2413-2417
     doi.org/10.1080/00268976.2012.687466
  3. Neese,F.
     The ORCA program system
     WIRES Comput. Molec. Sci., 2012 2(1)73-78
     doi.org/10.1002/wcms.81
  4. Izsak,R.; Neese,F.; Klopper,W.
     Robust fitting techniques in the chain of spheres approximation to the Fock exchange: The role of the complementary space
     J. Chem. Phys., 2013 139 
     doi.org/10.1063/1.4819264
  5. Neese,F.
     Software update: the ORCA program system, version 4.0
     WIRES Comput. Molec. Sci., 2018 8(1)1-6
     doi.org/10.1002/wcms.1327
  6. Neese,F.; Wennmohs,F.; Becker,U.; Riplinger,C.
     The ORCA quantum chemistry program package
     J. Chem. Phys., 2020 152 Art. No. L224108
     doi.org/10.1063/5.0004608

List of optional additional citations

  1. Neese,F.
     Approximate second-order SCF convergence for spin unrestricted wavefunctions
     Chem. Phys. Lett., 2000 325(1-3)93-98
     doi.org/10.1016/s0009-2614(00)00662-x

Timings for individual modules:

Sum of individual times          ...      448.217 sec (=   7.470 min)
Startup calculation              ...       12.747 sec (=   0.212 min)   2.8 %
SCF iterations                   ...      433.395 sec (=   7.223 min)  96.7 %
Property calculations            ...        2.075 sec (=   0.035 min)   0.5 %
                             ****ORCA TERMINATED NORMALLY****
TOTAL RUN TIME: 0 days 0 hours 7 minutes 30 seconds 990 msec
