
                                 *****************
                                 * O   R   C   A *
                                 *****************

                                            #,                                       
                                            ###                                      
                                            ####                                     
                                            #####                                    
                                            ######                                   
                                           ########,                                 
                                     ,,################,,,,,                         
                               ,,#################################,,                 
                          ,,##########################################,,             
                       ,#########################################, ''#####,          
                    ,#############################################,,   '####,        
                  ,##################################################,,,,####,       
                ,###########''''           ''''###############################       
              ,#####''   ,,,,##########,,,,          '''####'''          '####       
            ,##' ,,,,###########################,,,                        '##       
           ' ,,###''''                  '''############,,,                           
         ,,##''                                '''############,,,,        ,,,,,,###''
      ,#''                                            '''#######################'''  
     '                                                          ''''####''''         
             ,#######,   #######,   ,#######,      ##                                
            ,#'     '#,  ##    ##  ,#'     '#,    #''#        ,####,   ,####,        
            ##       ##  ##   ,#'  ##            #'  '#       #'       #'  '#        
            ##       ##  #######   ##           ,######,      #####,   #    #        
            '#,     ,#'  ##    ##  '#,     ,#' ,#      #,     #,   #   #,  ,#        
             '#######'   ##     ##  '#######'  #'      '#     '####' # '####'        



                #########################################################
                #                        -***-                          #
                #          Department of theory and spectroscopy        #
                #                                                       #
                #                      Frank Neese                      #
                #                                                       #
                #     Directorship, Architecture, Infrastructure        #
                #                    SHARK, DRIVERS                     #
                #        Core code/Algorithms in most modules           #
                #                                                       #
                #        Max Planck Institute fuer Kohlenforschung      #
                #                Kaiser Wilhelm Platz 1                 #
                #                 D-45470 Muelheim/Ruhr                 #
                #                      Germany                          #
                #                                                       #
                #                  All rights reserved                  #
                #                        -***-                          #
                #########################################################


                         Program Version 6.0.0  -   RELEASE  -


 With contributions from (in alphabetic order):
   Daniel Aravena         : Magnetic Suceptibility
   Michael Atanasov       : Ab Initio Ligand Field Theory (pilot matlab implementation)
   Alexander A. Auer      : GIAO ZORA, VPT2 properties, NMR spectrum
   Ute Becker             : All parallelization in ORCA, NUMFREQ, NUMCALC
   Giovanni Bistoni       : ED, misc. LED, open-shell LED, HFLD
   Martin Brehm           : Molecular dynamics
   Dmytro Bykov           : pre 5.0 version of the SCF Hessian
   Marcos Casanova-Páez   : Triplet and SCS-CIS(D). UHF-(DLPNO)-IP/EA/STEOM-CCSD. UHF-CVS-IP/STEOM-CCSD
   Vijay G. Chilkuri      : MRCI spin determinant printing, contributions to CSF-ICE
   Pauline Colinet        : FMM embedding
   Dipayan Datta          : RHF DLPNO-CCSD density
   Achintya Kumar Dutta   : EOM-CC, STEOM-CC
   Nicolas Foglia         : Exact transition moments, OPA infrastructure, MCD improvements
   Dmitry Ganyushin       : Spin-Orbit,Spin-Spin,Magnetic field MRCI
   Miquel Garcia          : C-PCM and meta-GGA Hessian, CCSD/C-PCM, Gaussian charge scheme
   Tiago L. C. Gouveia    : GS-ROHF, GS-ROCIS
   Yang Guo               : DLPNO-NEVPT2, F12-NEVPT2, CIM, IAO-localization
   Andreas Hansen         : Spin unrestricted coupled pair/coupled cluster methods
   Ingolf Harden          : AUTO-CI MPn and infrastructure 
   Benjamin Helmich-Paris : MC-RPA, TRAH-(SCF,CASSCF), AVAS, COSX integrals, SCF dyn. polar.
   Lee Huntington         : MR-EOM, pCC
   Robert Izsak           : Overlap fitted RIJCOSX, COSX-SCS-MP3, EOM
   Riya Kayal             : Wick's Theorem for AUTO-CI, AUTO-CI UHF-CCSDT
   Emily Kempfer          : AUTO-CI, RHF CISDT and CCSDT
   Christian Kollmar      : KDIIS, OOCD, Brueckner-CCSD(T), CCSD density, CASPT2, CASPT2-K, improved NEVPT2
   Axel Koslowski         : Symmetry handling
   Simone Kossmann        : Meta GGA functionals, TD-DFT gradient, OOMP2, (MP2 Hessian; deprecated post 5.0)
   Lucas Lang             : DCDCAS
   Marvin Lechner         : AUTO-CI (C++ implementation), FIC-MRCC
   Spencer Leger          : CASSCF response
   Dagmar Lenk            : GEPOL surface, SMD, ORCA-2-JSON
   Dimitrios Liakos       : Extrapolation schemes; Compound Job, initial MDCI parallelization
   Dimitrios Manganas     : Further ROCIS development; embedding schemes. LFT, Crystal Embedding
   Dimitrios Pantazis     : SARC Basis sets
   Anastasios Papadopoulos: AUTO-CI, single reference methods and gradients
   Taras Petrenko         : pre 6.0 DFT Hessian and TD-DFT gradient, (ASA, deprecated), ECA, 1-Electron XAS/XES, NRVS
   Peter Pinski           : DLPNO-MP2, DLPNO-MP2 Gradient
   Christoph Reimann      : Effective Core Potentials
   Marius Retegan         : Local ZFS, SOC
   Christoph Riplinger    : Optimizer, TS searches, QM/MM, DLPNO-CCSD(T), (RO)-DLPNO pert. Triples
   Michael Roemelt        : Original ROCIS implementation
   Masaaki Saitow         : Open-shell DLPNO-CCSD energy and density
   Barbara Sandhoefer     : DKH picture change effects
   Kantharuban Sivalingam : CASSCF convergence/infrastructure, NEVPT2 and variants, FIC-MRCI
   Bernardo de Souza      : ESD, SOC TD-DFT
   Georgi Stoychev        : AutoAux, RI-MP2 NMR, DLPNO-MP2 response, X2C
   Van Anh Tran           : RI-MP2 g-tensors
   Willem Van den Heuvel  : Paramagnetic NMR
   Zikuan Wang            : NOTCH, Electric field optimization 
   Frank Wennmohs         : Technical directorship and infrastructure
   Hang Xu                : AUTO-CI-Response properties 


 We gratefully acknowledge several colleagues who have allowed us to
 interface, adapt or use parts of their codes:
   Stefan Grimme, W. Hujo, H. Kruse, P. Pracht,  : VdW corrections, initial TS optimization,
                  C. Bannwarth, S. Ehlert,         DFT functionals, gCP, sTDA/sTD-DF
                  L. Wittmann, M. Mueller
   Ed Valeev, F. Pavosevic, A. Kumar             : LibInt (2-el integral package), F12 methods
   Garnet Chan, S. Sharma, J. Yang, R. Olivares  : DMRG
   Ulf Ekstrom                                   : XCFun DFT Library
   Mihaly Kallay                                 : mrcc  (arbitrary order and MRCC methods)
   Frank Weinhold                                : gennbo (NPA and NBO analysis)
   Simon Mueller                                 : openCOSMO-RS
   Christopher J. Cramer and Donald G. Truhlar   : smd solvation model
   Lars Goerigk                                  : TD-DFT with DH, B97 family of functionals
   V. Asgeirsson, H. Jonsson                     : NEB implementation
   FAccTs GmbH                                   : IRC, NEB, NEB-TS, DLPNO-Multilevel, CI-OPT
                                                   MM, QMMM, 2- and 3-layer-ONIOM, Crystal-QMMM,
                                                   LR-CPCM, SF, NACMEs, symmetry and pop. for TD-DFT,
                                                   nearIR, NL-DFT gradient (VV10), updates on ESD,
                                                   ML-optimized integration grids, MBIS, APM,
                                                   GOAT, DOCKER, SOLVATOR, interface openCOSMO-RS
   S Lehtola, MJT Oliveira, MAL Marques          : LibXC Library
   Liviu Ungur et al                             : ANISO software


 Your calculation uses the libint2 library for the computation of 2-el integrals
 For citations please refer to: http://libint.valeyev.net

 Your ORCA version has been built with support for libXC version: 6.2.2
 For citations please refer to: https://libxc.gitlab.io

 This ORCA versions uses:
   CBLAS   interface :  Fast vector & matrix operations
   LAPACKE interface :  Fast linear algebra routines
   SCALAPACK package :  Parallel linear algebra routines
   Shared memory     :  Shared parallel matrices
   BLAS/LAPACK       :  OpenBLAS 0.3.27  USE64BITINT DYNAMIC_ARCH NO_AFFINITY Sandybridge SINGLE_THREADED
        Core in use  :  Sandybridge
   Copyright (c) 2011-2014, The OpenBLAS Project


NOTE: MaxCore=3500 MB was set to SCF,MP2,MDCI,CIPSI,MRCI and CIS
      => If you want to overwrite this, your respective input block should be placed after the MaxCore statement
Your calculation utilizes the atom-pairwise dispersion correction
with the Becke-Johnson damping scheme (D3BJ)


Your calculation utilizes the SMD solvation module
Please cite in your paper:
A.V. Marenich, C.J. Cramer, D.G. Truhlar J. Phys. Chem. B, 113, (2009), 6378 

Warning: RI is on but no J-basis has been assigned. Assigning Def2/J (nothing to worry about!)
================================================================================

----- Orbital basis set information -----
Your calculation utilizes the basis: aug-cc-pVTZ 
    H, B-Ne : Obtained from the ccRepo (grant-hill.group.shef.ac.uk/ccrepo) Feb. 2017
              R. A. Kendall, T. H. Dunning, Jr., R. J. Harrison, J. Chem. Phys. 96, 6796 (1992)
         He : Obtained from the ccRepo (grant-hill.group.shef.ac.uk/ccrepo) Feb. 2017
              D. E. Woon, T. H. Dunning, Jr., J. Chem. Phys. 100, 2975 (1994)
  Li-Be, Na : Obtained from the ccRepo (grant-hill.group.shef.ac.uk/ccrepo) Feb. 2017
              B. P. Prascher, D. E. Woon, K. A. Peterson, T. H. Dunning, Jr., A. K. Wilson, Theor. Chem. Acc. 128, 69 (2011)
         Mg : Obtained from the Peterson Research Group Website (tyr0.chem.wsu.edu/~kipeters) Feb. 2017
              B. P. Prascher, D. E. Woon, K. A. Peterson, T. H. Dunning, Jr., A. K. Wilson, Theor. Chem. Acc. 128, 69 (2011)
      Al-Ar : Obtained from the ccRepo (grant-hill.group.shef.ac.uk/ccrepo) Feb. 2017
              D. E. Woon, T. H. Dunning, Jr., J. Chem. Phys. 98, 1358 (1993)
      Sc-Zn : Obtained from the ccRepo (grant-hill.group.shef.ac.uk/ccrepo) Feb. 2017
              N. B. Balabanov, K. A. Peterson, J. Chem. Phys. 123, 064107 (2005)
              N. B. Balabanov, K. A. Peterson, J. Chem. Phys. 125, 074110 (2006)
      Ga-Kr : Obtained from the ccRepo (grant-hill.group.shef.ac.uk/ccrepo) Feb. 2017
              A. K. Wilson, D. E. Woon, K. A. Peterson, T. H. Dunning, Jr., J. Chem. Phys. 110, 7667 (1999)
     Ag, Au : Obtained from the Peterson Research Group Website (tyr0.chem.wsu.edu/~kipeters) Feb. 2017
              K. A. Peterson, C. Puzzarini, Theor. Chem. Acc. 114, 283 (2005)

----- AuxJ basis set information -----
Your calculation utilizes the auxiliary basis: def2/J
   F. Weigend, Phys. Chem. Chem. Phys. 8, 1057 (2006).

================================================================================
                                        WARNINGS
                       Please study these warnings very carefully!
================================================================================


WARNING: your system is open-shell and RHF/RKS was chosen
  ===> : WILL SWITCH to UHF/UKS


WARNING: Geometry Optimization
  ===> : Switching off AutoStart
         For restart on a previous wavefunction, please use MOREAD

================================================================================
                                       INPUT FILE
================================================================================
NAME = cs_rporg_162_red_opt_08.inp
|  1> !TPSSh opt aug-cc-pVTZ d3 TightSCF SlowConv RIJCOSX defgrid2
|  2> 
|  3> %pal
|  4> nprocs 8
|  5> end
|  6> 
|  7> %scf
|  8> MaxIter 1500
|  9> end
| 10> 
| 11> %maxcore 3500
| 12> 
| 13> !CPCM
| 14> %cpcm smd true
| 15> SMDsolvent "MeCN"
| 16> surfacetype gepol_ses
| 17> rsolv 2.19
| 18> end 
| 19> 
| 20> * xyz -1 2
| 21> C          -1.22535307927293     -0.03882807002799     -0.00002255469277
| 22> C          -1.22206264378164      1.41582015720061     -0.00002423880206
| 23> C           0.00004637420421      2.08121905033007     -0.00000415463824
| 24> C           1.22212161683371      1.41575862792076      0.00002170232485
| 25> C           1.22534433396412     -0.03888819251674      0.00002507087618
| 26> C          -0.00002135567409     -0.71608207495025      0.00000157424078
| 27> H          -0.00004774645346     -1.81053735349218      0.00000261550832
| 28> C           2.43402384370652     -0.77080587803239      0.00007579493229
| 29> N           3.44413671726320     -1.36247120639636      0.00011250089172
| 30> H           2.16848850432676      1.96074544120089      0.00003301965359
| 31> H           0.00007494156619      3.17901522614598     -0.00000842096167
| 32> H          -2.16840192148197      1.96085605610510     -0.00003754989011
| 33> C          -2.43406244869294     -0.77069683887805     -0.00005052688718
| 34> N          -3.44419623650770     -1.36232524460946     -0.00007393255569
| 35> *
| 36> 
| 37>                          ****END OF INPUT****
================================================================================

                       *****************************
                       * Geometry Optimization Run *
                       *****************************

Geometry optimization settings:
Update method            Update   .... BFGS
Choice of coordinates    CoordSys .... (2022) Redundant Internals
Initial Hessian          InHess   .... Almloef's Model
Max. no of cycles        MaxIter  .... 50

Convergence Tolerances:
Energy Change            TolE     ....  5.0000e-06 Eh
Max. Gradient            TolMAXG  ....  3.0000e-04 Eh/bohr
RMS Gradient             TolRMSG  ....  1.0000e-04 Eh/bohr
Max. Displacement        TolMAXD  ....  4.0000e-03 bohr
RMS Displacement         TolRMSD  ....  2.0000e-03 bohr
Strict Convergence                .... False

------------------------------------------------------------------------------
                        ORCA OPTIMIZATION COORDINATE SETUP
------------------------------------------------------------------------------

The optimization will be done in redundant internal coordinates (2022)
Making redundant internal coordinates   ...  (2022 redundants) done
Evaluating the initial hessian          ...  (Almloef) done
Evaluating the coordinates              ...  done
Calculating the B-matrix                .... done
Calculating the G-matrix                .... done
Diagonalizing the G-matrix              .... done
The first mode is                       ....   24
The number of degrees of freedom        ....   36

    -----------------------------------------------------------------
                    Redundant Internal Coordinates


    -----------------------------------------------------------------
         Definition                    Initial Value    Approx d2E/dq
    -----------------------------------------------------------------
      1. B(C   1,C   0)                  1.4547         0.492709   
      2. B(C   2,C   1)                  1.3915         0.621335   
      3. B(C   3,C   2)                  1.3915         0.621336   
      4. B(C   4,C   3)                  1.4547         0.492712   
      5. B(C   5,C   4)                  1.4000         0.602171   
      6. B(C   5,C   0)                  1.4000         0.602173   
      7. B(H   6,C   5)                  1.0945         0.354254   
      8. B(C   7,C   4)                  1.4130         0.574144   
      9. B(N   8,C   7)                  1.1706         1.252714   
     10. B(H   9,C   3)                  1.0921         0.357370   
     11. B(H  10,C   2)                  1.0978         0.349933   
     12. B(H  11,C   1)                  1.0921         0.357369   
     13. B(C  12,C   0)                  1.4130         0.574143   
     14. B(N  13,C  12)                  1.1706         1.252716   
     15. A(C   1,C   0,C  12)          121.3243         0.410929   
     16. A(C   1,C   0,C   5)          118.8003         0.414421   
     17. A(C   5,C   0,C  12)          119.8754         0.425885   
     18. A(C   0,C   1,H  11)          119.8098         0.339102   
     19. A(C   2,C   1,H  11)          121.4937         0.352583   
     20. A(C   0,C   1,C   2)          118.6965         0.416737   
     21. A(C   1,C   2,C   3)          122.8634         0.434402   
     22. A(C   1,C   2,H  10)          118.5684         0.351331   
     23. A(C   3,C   2,H  10)          118.5683         0.351331   
     24. A(C   4,C   3,H   9)          119.8095         0.339102   
     25. A(C   2,C   3,H   9)          121.4938         0.352583   
     26. A(C   2,C   3,C   4)          118.6967         0.416737   
     27. A(C   5,C   4,C   7)          119.8759         0.425884   
     28. A(C   3,C   4,C   5)          118.8001         0.414421   
     29. A(C   3,C   4,C   7)          121.3240         0.410930   
     30. A(C   0,C   5,H   6)          118.9285         0.350203   
     31. A(C   0,C   5,C   4)          122.1430         0.429539   
     32. A(C   4,C   5,H   6)          118.9285         0.350202   
     33. L(C   4,C   7,N   8,C   3, 2) 180.0005         0.483364   
     34. L(C   4,C   7,N   8,C   3, 1) 179.1622         0.483364   
     35. L(C   0,C  12,N  13,C   1, 2) 180.0000         0.483365   
     36. L(C   0,C  12,N  13,C   1, 1) 179.1625         0.483365   
     37. D(H  11,C   1,C   0,C   5)   -179.9997         0.016531   
     38. D(H  11,C   1,C   0,C  12)      0.0006         0.016531   
     39. D(C   2,C   1,C   0,C  12)   -179.9996         0.016531   
     40. D(C   2,C   1,C   0,C   5)      0.0001         0.016531   
     41. D(H  10,C   2,C   1,C   0)    179.9998         0.026721   
     42. D(C   3,C   2,C   1,C   0)     -0.0002         0.026721   
     43. D(C   3,C   2,C   1,H  11)    179.9996         0.026721   
     44. D(H  10,C   2,C   1,H  11)     -0.0004         0.026721   
     45. D(H   9,C   3,C   2,H  10)     -0.0003         0.026721   
     46. D(H   9,C   3,C   2,C   1)    179.9997         0.026721   
     47. D(C   4,C   3,C   2,H  10)   -179.9999         0.026721   
     48. D(C   4,C   3,C   2,C   1)      0.0001         0.026721   
     49. D(C   7,C   4,C   3,C   2)   -179.9988         0.016531   
     50. D(C   5,C   4,C   3,H   9)   -179.9996         0.016531   
     51. D(C   5,C   4,C   3,C   2)      0.0000         0.016531   
     52. D(C   7,C   4,C   3,H   9)      0.0016         0.016531   
     53. D(H   6,C   5,C   4,C   7)     -0.0012         0.025007   
     54. D(C   0,C   5,C   4,C   7)    179.9987         0.025007   
     55. D(C   0,C   5,C   4,C   3)     -0.0001         0.025007   
     56. D(H   6,C   5,C   0,C  12)     -0.0003         0.025007   
     57. D(H   6,C   5,C   0,C   1)   -180.0000         0.025007   
     58. D(H   6,C   5,C   4,C   3)    179.9999         0.025007   
     59. D(C   4,C   5,C   0,C  12)    179.9998         0.025007   
     60. D(C   4,C   5,C   0,C   1)      0.0000         0.025007   
    -----------------------------------------------------------------

Number of atoms                         .... 14
Number of degrees of freedom            .... 60


         *************************************************************
         *                GEOMETRY OPTIMIZATION CYCLE   1            *
         *************************************************************
---------------------------------
CARTESIAN COORDINATES (ANGSTROEM)
---------------------------------
  C     -1.225353   -0.038828   -0.000023
  C     -1.222063    1.415820   -0.000024
  C      0.000046    2.081219   -0.000004
  C      1.222122    1.415759    0.000022
  C      1.225344   -0.038888    0.000025
  C     -0.000021   -0.716082    0.000002
  H     -0.000048   -1.810537    0.000003
  C      2.434024   -0.770806    0.000076
  N      3.444137   -1.362471    0.000113
  H      2.168489    1.960745    0.000033
  H      0.000075    3.179015   -0.000008
  H     -2.168402    1.960856   -0.000038
  C     -2.434062   -0.770697   -0.000051
  N     -3.444196   -1.362325   -0.000074

----------------------------
CARTESIAN COORDINATES (A.U.)
----------------------------
  NO LB      ZA    FRAG     MASS         X           Y           Z
   0 C     6.0000    0    12.011   -2.315582   -0.073374   -0.000043
   1 C     6.0000    0    12.011   -2.309364    2.675512   -0.000046
   2 C     6.0000    0    12.011    0.000088    3.932934   -0.000008
   3 C     6.0000    0    12.011    2.309475    2.675396    0.000041
   4 C     6.0000    0    12.011    2.315565   -0.073488    0.000047
   5 C     6.0000    0    12.011   -0.000040   -1.353199    0.000003
   6 H     1.0000    0     1.008   -0.000090   -3.421420    0.000005
   7 C     6.0000    0    12.011    4.599638   -1.456612    0.000143
   8 N     7.0000    0    14.007    6.508475   -2.574697    0.000213
   9 H     1.0000    0     1.008    4.097849    3.705272    0.000062
  10 H     1.0000    0     1.008    0.000142    6.007468   -0.000016
  11 H     1.0000    0     1.008   -4.097686    3.705481   -0.000071
  12 C     6.0000    0    12.011   -4.599711   -1.456406   -0.000095
  13 N     7.0000    0    14.007   -6.508588   -2.574422   -0.000140

--------------------------------
INTERNAL COORDINATES (ANGSTROEM)
--------------------------------
 C      0   0   0     0.000000000000     0.00000000     0.00000000
 C      1   0   0     1.454651948731     0.00000000     0.00000000
 C      2   1   0     1.391512177174   118.69646849     0.00000000
 C      3   2   1     1.391511937825   122.86338029     0.00000000
 C      4   3   2     1.454650390343   118.69669140     0.00000000
 C      1   2   3     1.400039578235   118.80029657     0.00000000
 H      6   1   2     1.094455278861   118.92851866   180.00001633
 C      5   4   3     1.413014387122   121.32400068   180.00118588
 N      8   5   4     1.170639090181   179.16222480     0.00000000
 H      4   3   2     1.092071844029   121.49378148   179.99974734
 H      3   2   1     1.097796176196   118.56835579   179.99982449
 H      2   1   3     1.092072415085   119.80981454   180.00021221
 C      1   2   3     1.413014591335   121.32434402   180.00038907
 N     13   1   2     1.170638475492   179.16247197     0.00000000

---------------------------
INTERNAL COORDINATES (A.U.)
---------------------------
 C      0   0   0     0.000000000000     0.00000000     0.00000000
 C      1   0   0     2.748893803277     0.00000000     0.00000000
 C      2   1   0     2.629576926875   118.69646849     0.00000000
 C      3   2   1     2.629576474571   122.86338029     0.00000000
 C      4   3   2     2.748890858351   118.69669140     0.00000000
 C      1   2   3     2.645691379514   118.80029657     0.00000000
 H      6   1   2     2.068220742871   118.92851866   180.00001633
 C      5   4   3     2.670210214952   121.32400068   180.00118588
 N      8   5   4     2.212187282105   179.16222480     0.00000000
 H      4   3   2     2.063716703781   121.49378148   179.99974734
 H      3   2   1     2.074534123876   118.56835579   179.99982449
 H      2   1   3     2.063717782921   119.80981454   180.00021221
 C      1   2   3     2.670210600857   121.32434402   180.00038907
 N     13   1   2     2.212186120510   179.16247197     0.00000000

---------------------
BASIS SET INFORMATION
---------------------
There are 3 groups of distinct atoms

 Group   1 Type C   : 19s6p3d2f contracted to 5s4p3d2f pattern {88111/3111/111/11}
 Group   2 Type H   : 6s3p2d contracted to 4s3p2d pattern {3111/111/11}
 Group   3 Type N   : 19s6p3d2f contracted to 5s4p3d2f pattern {88111/3111/111/11}

Atom   0C    basis set group =>   1
Atom   1C    basis set group =>   1
Atom   2C    basis set group =>   1
Atom   3C    basis set group =>   1
Atom   4C    basis set group =>   1
Atom   5C    basis set group =>   1
Atom   6H    basis set group =>   2
Atom   7C    basis set group =>   1
Atom   8N    basis set group =>   3
Atom   9H    basis set group =>   2
Atom  10H    basis set group =>   2
Atom  11H    basis set group =>   2
Atom  12C    basis set group =>   1
Atom  13N    basis set group =>   3
---------------------------------
AUXILIARY/J BASIS SET INFORMATION
---------------------------------
There are 3 groups of distinct atoms

 Group   1 Type C   : 12s5p4d2f1g contracted to 6s4p3d1f1g pattern {711111/2111/211/2/1}
 Group   2 Type H   : 5s2p1d contracted to 3s1p1d pattern {311/2/1}
 Group   3 Type N   : 12s5p4d2f1g contracted to 6s4p3d1f1g pattern {711111/2111/211/2/1}

Atom   0C    basis set group =>   1
Atom   1C    basis set group =>   1
Atom   2C    basis set group =>   1
Atom   3C    basis set group =>   1
Atom   4C    basis set group =>   1
Atom   5C    basis set group =>   1
Atom   6H    basis set group =>   2
Atom   7C    basis set group =>   1
Atom   8N    basis set group =>   3
Atom   9H    basis set group =>   2
Atom  10H    basis set group =>   2
Atom  11H    basis set group =>   2
Atom  12C    basis set group =>   1
Atom  13N    basis set group =>   3


           ************************************************************
           *        Program running with 8 parallel MPI-processes     *
           *              working on a common directory               *
           ************************************************************
------------------------------------------------------------------------------
                             ORCA STARTUP CALCULATIONS
                           -- RI-GTO INTEGRALS CHOSEN --
------------------------------------------------------------------------------
------------------------------------------------------------------------------
                   ___                                                        
                  /   \      - P O W E R E D   B Y -                         
                 /     \                                                     
                 |  |  |   _    _      __       _____    __    __             
                 |  |  |  | |  | |    /  \     |  _  \  |  |  /  |          
                  \  \/   | |  | |   /    \    | | | |  |  | /  /          
                 / \  \   | |__| |  /  /\  \   | |_| |  |  |/  /          
                |  |  |   |  __  | /  /__\  \  |    /   |      \           
                |  |  |   | |  | | |   __   |  |    \   |  |\   \          
                \     /   | |  | | |  |  |  |  | |\  \  |  | \   \       
                 \___/    |_|  |_| |__|  |__|  |_| \__\ |__|  \__/        
                                                                              
                      - O R C A' S   B I G   F R I E N D -                    
                                      &                                       
                       - I N T E G R A L  F E E D E R -                       
                                                                              
 v1 FN, 2020, v2 2021, v3 2022-2024                                           
------------------------------------------------------------------------------


----------------------
SHARK INTEGRAL PACKAGE
----------------------

Number of atoms                             ...     14
Number of basis functions                   ...    612
Number of shells                            ...    236
Maximum angular momentum                    ...      3
Integral batch strategy                     ... SHARK/LIBINT Hybrid
RI-J (if used) integral strategy            ... SPLIT-RIJ (Revised 2003 algorithm where possible)
Printlevel                                  ...      1
Contraction scheme used                     ... PARTIAL GENERAL contraction
Prescreening option                         ... SCHWARTZ
   Thresh                                   ... 2.500e-11
   Tcut                                     ... 2.500e-12
   Tpresel                                  ... 2.500e-12 
Coulomb Range Separation                    ... NOT USED
Exchange Range Separation                   ... NOT USED
Multipole approximations                    ... NOT USED
Finite Nucleus Model                        ... NOT USED
CABS basis                                  ... NOT available
Auxiliary Coulomb fitting basis             ... AVAILABLE
   # of basis functions in Aux-J            ...    534
   # of shells in Aux-J                     ...    170
   Maximum angular momentum in Aux-J        ...      4
Auxiliary J/K fitting basis                 ... NOT available
Auxiliary Correlation fitting basis         ... NOT available
Auxiliary 'external' fitting basis          ... NOT available

Checking pre-screening integrals            ... done (  0.1 sec) Dimension = 236
Save PGC pre-screening integrals            ... done (  0.1 sec) Dimension = 236
Calculate PGC overlap integrals             ... done (  0.2 sec) Dimension = 176
Calculating pre-screening integrals (ORCA)  ... done (  0.3 sec) Dimension = 176
Check shell pair data                       ... done (  0.0 sec)
Shell pair information
Shell pair cut-off parameter TPreSel        ...   2.5e-12
Total number of shell pairs                 ...     27966
Shell pairs after pre-screening             ...     22829
Total number of primitive shell pairs       ...     35022
Primitive shell pairs kept                  ...     26965
          la=0 lb=0:   5141 shell pairs
          la=1 lb=0:   5666 shell pairs
          la=1 lb=1:   1311 shell pairs
          la=2 lb=0:   4078 shell pairs
          la=2 lb=1:   1884 shell pairs
          la=2 lb=2:    702 shell pairs
          la=3 lb=0:   2132 shell pairs
          la=3 lb=1:    990 shell pairs
          la=3 lb=2:    726 shell pairs
          la=3 lb=3:    199 shell pairs

Calculating one electron integrals          ... done (  0.0 sec)
Calculating RI/J V-Matrix + Cholesky decomp.... done (  0.1 sec)
Calculating Nuclear repulsion               ... done (  0.0 sec) ENN=    405.556515259298 Eh

Diagonalization of the overlap matrix:
Smallest eigenvalue                        ... 7.309e-07
Time for diagonalization                   ...    0.078 sec
Threshold for overlap eigenvalues          ... 1.000e-07
Number of eigenvalues below threshold      ... 0

IMPORTANT:
Smallest eigenvalue of S below the DiffSThresh (1.000e-06) while
Thresh>1e-12 and/or TCut>1e-13! In order to avoid SCF convergence issues,
Thresh will be set to at least 1e-12 and TCut to at least 1e-13.
This can be turned off by adding %SCF DiffSThresh -1 END to the input.

Time for construction of square roots      ...    0.071 sec
Total time needed                          ...    0.227 sec

-------------------
DFT GRID GENERATION
-------------------

General Integration Accuracy     IntAcc      ... 4.388
Radial Grid Type                 RadialGrid  ... OptM3 with GC (2021)
Angular Grid (max. ang.)         AngularGrid ... 4 (Lebedev-302)
Angular grid pruning method      GridPruning ... 4 (adaptive)
Weight generation scheme         WeightScheme... mBecke (2022)
Basis function cutoff            BFCut       ... 1.0000e-11
Integration weight cutoff        WCut        ... 1.0000e-14
Partially contracted basis set               ... off
Rotationally invariant grid construction     ... off
Angular grids for H and He will be reduced by one unit
Diffuse basis detected: some atoms will have their outermost
                        angular grid increased by 1.

Total number of grid points                  ...    76700
Total number of batches                      ...     1205
Average number of points per batch           ...       63
Average number of grid points per atom       ...     5479

---------------------
SHARK GRID GENERATION
---------------------

General Integration Accuracy     IntAcc      ... 4.388
Radial Grid Type                 RadialGrid  ... OptM3 with GC (2021)
Angular Grid (max. ang.)         AngularGrid ... 4 (Lebedev-302)
Angular grid pruning method      GridPruning ... 4 (adaptive)
Weight generation scheme         WeightScheme... mBecke (2022)
Basis function cutoff            BFCut       ... 1.0000e-11
Integration weight cutoff        WCut        ... 1.0000e-14
Partially contracted basis set               ... off
Rotationally invariant grid construction     ... off
Angular grids for H and He will be reduced by one unit
Diffuse basis detected: some atoms will have their outermost
                        angular grid increased by 1.
Steep s-basis detected: some atoms will have their radial
                        grid points doubled.

Total number of grid points                  ...   140370
Total number of batches                      ...     2201
Average number of points per batch           ...       63
Average number of grid points per atom       ...    10026

--------------------
COSX GRID GENERATION
--------------------

GRIDX 1
-------
General Integration Accuracy     IntAcc      ... 3.816
Radial Grid Type                 RadialGrid  ... OptM3 with GC (2021)
Angular Grid (max. ang.)         AngularGrid ... 1 (Lebedev-50)
Angular grid pruning method      GridPruning ... 4 (adaptive)
Weight generation scheme         WeightScheme... mBecke (2022)
Basis function cutoff            BFCut       ... 1.0000e-11
Integration weight cutoff        WCut        ... 1.0000e-14
Partially contracted basis set               ... on
Rotationally invariant grid construction     ... off
Angular grids for H and He will be reduced by one unit
Diffuse basis detected: some atoms will have their outermost
                        angular grid increased by 1.

Total number of grid points                  ...     9670
Total number of batches                      ...       81
Average number of points per batch           ...      119
Average number of grid points per atom       ...      691
UseSFitting                                  ... on

GRIDX 2
-------
General Integration Accuracy     IntAcc      ... 4.020
Radial Grid Type                 RadialGrid  ... OptM3 with GC (2021)
Angular Grid (max. ang.)         AngularGrid ... 2 (Lebedev-110)
Angular grid pruning method      GridPruning ... 4 (adaptive)
Weight generation scheme         WeightScheme... mBecke (2022)
Basis function cutoff            BFCut       ... 1.0000e-11
Integration weight cutoff        WCut        ... 1.0000e-14
Partially contracted basis set               ... on
Rotationally invariant grid construction     ... off
Angular grids for H and He will be reduced by one unit
Diffuse basis detected: some atoms will have their outermost
                        angular grid increased by 1.

Total number of grid points                  ...    24712
Total number of batches                      ...      200
Average number of points per batch           ...      123
Average number of grid points per atom       ...     1765
UseSFitting                                  ... on

GRIDX 3
-------
General Integration Accuracy     IntAcc      ... 4.338
Radial Grid Type                 RadialGrid  ... OptM3 with GC (2021)
Angular Grid (max. ang.)         AngularGrid ... 3 (Lebedev-194)
Angular grid pruning method      GridPruning ... 4 (adaptive)
Weight generation scheme         WeightScheme... mBecke (2022)
Basis function cutoff            BFCut       ... 1.0000e-11
Integration weight cutoff        WCut        ... 1.0000e-14
Partially contracted basis set               ... on
Rotationally invariant grid construction     ... off
Angular grids for H and He will be reduced by one unit
Diffuse basis detected: some atoms will have their outermost
                        angular grid increased by 1.

Total number of grid points                  ...    54332
Total number of batches                      ...      430
Average number of points per batch           ...      126
Average number of grid points per atom       ...     3881
UseSFitting                                  ... on
Initializing property integral containers    ... done (  0.1 sec)

SHARK setup successfully completed in   6.6 seconds

Maximum memory used throughout the entire STARTUP-calculation: 58.2 MB


           ************************************************************
           *        Program running with 8 parallel MPI-processes     *
           *              working on a common directory               *
           ************************************************************
-------------------------------------------------------------------------------
                                 ORCA GUESS
                   Start orbitals & Density for SCF / CASSCF
-------------------------------------------------------------------------------

------------
SCF SETTINGS
------------
Hamiltonian:
 Density Functional     Method          .... DFT(GTOs)
 Exchange Functional    Exchange        .... TPSS
 Correlation Functional Correlation     .... TPSS
 LDA part of GGA corr.  LDAOpt          .... PW91-LDA
 Gradients option       PostSCFGGA      .... off
 Hybrid DFT is turned on
   Fraction HF Exchange ScalHFX         ....  0.100000
   Scaling of DF-GGA-X  ScalDFX         ....  0.900000
   Scaling of DF-GGA-C  ScalDFC         ....  1.000000
   Scaling of DF-LDA-C  ScalLDAC        ....  1.000000
   Perturbative correction              ....  0.000000
   NL short-range parameter             ....  5.200000
 RI-approximation to the Coulomb term is turned on
   Number of AuxJ basis functions       .... 534
   RIJ-COSX (HFX calculated with COS-X)).... on


General Settings:
 Integral files         IntName         .... cs_rporg_162_red_opt_08
 Hartree-Fock type      HFTyp           .... UHF
 Total Charge           Charge          ....   -1
 Multiplicity           Mult            ....    2
 Number of Electrons    NEL             ....   67
 Basis Dimension        Dim             ....  552
 Nuclear Repulsion      ENuc            ....    405.5565152593 Eh

Convergence Acceleration:
 AO-DIIS                CNVDIIS         .... on
   Start iteration      DIISMaxIt       ....     0
   Startup error        DIISStart       ....  0.200000
   # of expansion vecs  DIISMaxEq       ....     5
   Bias factor          DIISBfac        ....   1.050
   Max. coefficient     DIISMaxC        ....  10.000
 MO-DIIS                CNVKDIIS        .... off
 Trust-Rad. Augm. Hess. CNVTRAH         .... auto
   Auto Start mean grad. ratio tolernc. ....  1.125000
   Auto Start start iteration           ....    50
   Auto Start num. interpolation iter.  ....    10
   Max. Number of Micro iterations      ....    24
   Max. Number of Macro iterations      .... Maxiter - #DIIS iter
   Number of Davidson start vectors     ....     2
   Converg. threshold    (grad. norm)   ....   1.000e-05
   Grad. Scal. Fac. for Micro threshold ....   0.100
   Minimum threshold for Micro iter.    ....   1.000e-02
   NR start threshold (gradient norm)   ....   1.000e-04
   Initial trust radius                 ....   0.400
   Minimum AH scaling param. (alpha)    ....   1.000
   Maximum AH scaling param. (alpha)    .... 1000.000
   Quad. conv. algorithm                .... NR
   White noise on init. David. guess    .... on
   Maximum white noise                  ....   0.010
   Pseudo random numbers                .... off
   Inactive MOs                         .... canonical
   Orbital update algorithm             .... Taylor
   Preconditioner                       .... Diag
   Full preconditioner red. dimension   ....   250
 SOSCF                  CNVSOSCF        .... on
   Start iteration      SOSCFMaxIt      ....   150
   Startup grad/error   SOSCFStart      ....  0.001000
   Hessian update       SOSCFHessUp     .... L-BFGS
 Level Shifting         CNVShift        .... on
   Level shift para.    LevelShift      ....    0.2500
   Turn off err/grad.   ShiftErr        ....    0.0000
 Zerner damping         CNVZerner       .... off
 Static damping         CNVDamp         .... on
   Fraction old density DampFac         ....    0.8500
   Max. Damping (<1)    DampMax         ....    0.9800
   Min. Damping (>=0)   DampMin         ....    0.0000
   Turn off err/grad.   DampErr         ....    0.0300

SCF Procedure:
 Maximum # iterations   MaxIter         ....  1500
 SCF integral mode      SCFMode         .... Direct
   Integral package                     .... SHARK and LIBINT hybrid scheme
 Reset frequency        DirectResetFreq ....    20
 Integral Threshold     Thresh          ....  1.000e-12 Eh
 Primitive CutOff       TCut            ....  1.000e-13 Eh

Convergence Tolerance:
 Convergence Check Mode ConvCheckMode   .... Total+1el-Energy
 Convergence forced     ConvForced      .... 0
 Energy Change          TolE            ....  1.000e-08 Eh
 1-El. energy change                    ....  1.000e-05 Eh
 Orbital Gradient       TolG            ....  1.000e-05
 Orbital Rotation angle TolX            ....  1.000e-05
 DIIS Error             TolErr          ....  5.000e-07

------------------------------
INITIAL GUESS: MODEL POTENTIAL
------------------------------
Loading Hartree-Fock densities                     ... done
Calculating cut-offs                               ... done
Initializing the effective Hamiltonian             ... done
Setting up the integral package (SHARK)            ... done
Starting the Coulomb interaction                   ... done (   0.3 sec)
Making the grid                                    ... done (   0.3 sec)
Mapping shells                                     ... done
Starting the XC term evaluation                    ... done (   0.3 sec)
  promolecular density results
     # of electrons  =     65.994740705
     EX              =    -54.982089788
     EC              =     -2.162952586
     EX+EC           =    -57.145042375
Transforming the Hamiltonian                       ... done (   0.1 sec)
Diagonalizing the Hamiltonian                      ... done (   0.1 sec)
Back transforming the eigenvectors                 ... done (   0.1 sec)
Now organizing SCF variables                       ... done
                      ------------------
                      INITIAL GUESS DONE (   2.4 sec)
                      ------------------
             **** ENERGY FILE WAS UPDATED (cs_rporg_162_red_opt_08.en.tmp) ****
Finished Guess after   3.7 sec
Maximum memory used throughout the entire GUESS-calculation: 39.0 MB


           ************************************************************
           *        Program running with 8 parallel MPI-processes     *
           *              working on a common directory               *
           ************************************************************

-------------------------------------------------------------------------------------------
                                      ORCA LEAN-SCF
                              memory conserving SCF solver
-------------------------------------------------------------------------------------------

--------------------
CPCM SOLVATION MODEL
--------------------
CPCM parameters:
  Epsilon                                         ...      35.6880
  Refrac                                          ...       1.3442
  Rsolv                                           ...       2.1900
  Surface type                                    ...    GEPOL SES
  Discretization scheme                           ... Constant num. charges
  Epsilon function type                           ...         CPCM
Solvent:                                          ... ACETONITRILE
SMD-CDS solvent descriptors:
  Soln                                            ...       1.3442
  Soln25                                          ...       1.3416
  Sola                                            ...       0.0700
  Solb                                            ...       0.3200
  Solg                                            ...      41.2500
  Solc                                            ...       0.0000
  Solh                                            ...       0.0000
Radii:
  Scheme                                          ... Element-dependent radii
  Radius for C  used is    3.4960 Bohr (=   1.8500 Ang.)
  Radius for H  used is    2.2677 Bohr (=   1.2000 Ang.)
  Radius for N  used is    3.5716 Bohr (=   1.8900 Ang.)
Calculating surface                               ...        done! (  0.0s)
Cavity surface points                             ...          544
Cavity Volume                                     ...    1017.7225
Cavity Surface-area                               ...     603.5180
Calculating surface distance matrix               ...        done! (  0.0s)
Performing Cholesky decomposition & store         ...        done! (  0.0s)
Overall time for CPCM initialization              ...                 0.1s

----------------------------------------D-I-I-S--------------------------------------------
Iteration    Energy (Eh)           Delta-E    RMSDP     MaxDP     DIISErr   Damp  Time(sec)
-------------------------------------------------------------------------------------------
               ***  Starting incremental Fock matrix formation  ***
    1    -416.7264898745115715     0.00e+00  8.56e-04  5.64e-02  1.19e-01  0.850  16.7
Warning: op=0 Small HOMO/LUMO gap (   0.025) - skipping pre-diagonalization
         Will do a full diagonalization
    2    -416.8025377938940892    -7.60e-02  8.45e-04  6.25e-02  8.41e-02  0.850  12.8
                               ***Turning on AO-DIIS***
    3    -416.8500808610907598    -4.75e-02  4.81e-04  2.82e-02  5.29e-02  0.850  12.1
    4    -416.8800246777329903    -2.99e-02  3.36e-04  1.79e-02  4.24e-02  0.850  13.1
    5    -416.9014424694477157    -2.14e-02  2.69e-04  1.46e-02  3.68e-02  0.850  12.1
    6    -416.9185853977402303    -1.71e-02  2.27e-04  1.26e-02  3.19e-02  0.850  11.1
    7    -416.9329415417964810    -1.44e-02  1.95e-04  1.09e-02  2.67e-02  0.850  12.5
    8    -416.9449209248321040    -1.20e-02  1.06e-03  5.74e-02  2.15e-02  0.000  11.5
    9    -417.0053362214769095    -6.04e-02  8.12e-05  5.76e-03  3.20e-03  0.000  11.8
   10    -417.0054454262462968    -1.09e-04  3.20e-05  1.55e-03  2.51e-03  0.000  11.2
                              *** Initializing SOSCF ***
---------------------------------------S-O-S-C-F--------------------------------------
Iteration    Energy (Eh)           Delta-E    RMSDP     MaxDP     MaxGrad    Time(sec)
--------------------------------------------------------------------------------------
   11    -417.0055404270140116    -9.50e-05  2.24e-05  1.13e-03  6.05e-04    11.3
               *** Restarting incremental Fock matrix formation ***
   12    -417.0055588764868162    -1.84e-05  2.06e-04  1.31e-02  4.40e-04    16.5
   13    -417.0055638051404685    -4.93e-06  1.65e-04  1.09e-02  5.82e-04    13.7
   14    -417.0055719272780834    -8.12e-06  1.36e-04  9.03e-03  1.61e-04    14.6
   15    -417.0055721371190884    -2.10e-07  4.47e-05  2.92e-03  1.57e-04    13.3
   16    -417.0055726101434175    -4.73e-07  1.81e-05  1.20e-03  3.37e-05    13.1
   17    -417.0055726462278471    -3.61e-08  9.53e-06  6.38e-04  1.96e-05    14.5
   18    -417.0055726566941985    -1.05e-08  2.79e-06  2.09e-04  9.54e-06    12.7
   19    -417.0055726521187580     4.58e-09  1.55e-06  1.16e-04  2.68e-06    12.4
                 **** Energy Check signals convergence ****

               *****************************************************
               *                     SUCCESS                       *
               *           SCF CONVERGED AFTER  19 CYCLES          *
               *****************************************************

Recomputing exchange energy using gridx3       ... done (   15.405 sec)
Old exchange energy                            :     -5.621188185 Eh
New exchange energy                            :     -5.621217088 Eh
Exchange energy change after final integration :     -0.000028903 Eh
Total energy after final integration           :   -417.005601555 Eh

SMD CDS free energy correction energy :                 0.93894     Kcal/mol
Total Energy after SMD CDS correction =              -417.004105256 Eh
             **** ENERGY FILE WAS UPDATED (cs_rporg_162_red_opt_08.en.tmp) ****

----------------
TOTAL SCF ENERGY
----------------

Total Energy       :       -417.00410525596249 Eh          -11347.25859 eV

Components:
Nuclear Repulsion  :        405.55651525929841 Eh           11035.75383 eV
Electronic Energy  :       -822.48390260159772 Eh          -22380.92481 eV
One Electron Energy:      -1376.49026428998195 Eh          -37456.20433 eV
Two Electron Energy:        554.00636168838423 Eh           15075.27951 eV
CPCM Dielectric    :         -0.07818530981949 Eh              -2.12753 eV
SMD CDS (Gcds)     :          0.00149629950127 Eh               0.04072 eV

Virial components:
Potential Energy   :       -831.69115057761690 Eh          -22631.46677 eV
Kinetic Energy     :        414.68704532165441 Eh           11284.20818 eV
Virial Ratio       :          2.00558749051953

DFT components:
N(Alpha)           :       34.000070787030 electrons
N(Beta)            :       33.000054629468 electrons
N(Total)           :       67.000125416498 electrons
E(X)               :      -51.060521314327 Eh       
E(C)               :       -2.219229697564 Eh       
E(XC)              :      -53.279751011891 Eh       

CPCM Solvation Model Properties:
Surface-charge          :          0.95372168378305
Corrected charge        :          1.00000000000000
Outlying charge corr.   :          0.00015143557696 Eh               0.00412 eV
Free-energy (cav+disp)  :          0.00149629950127 Eh               0.04072 eV

---------------
SCF CONVERGENCE
---------------

  Last Energy change         ...   -4.5754e-09  Tolerance :   1.0000e-08
  Last MAX-Density change    ...    1.1576e-04  Tolerance :   1.0000e-07
  Last RMS-Density change    ...    1.5485e-06  Tolerance :   5.0000e-09
  Last DIIS Error            ...    6.0492e-04  Tolerance :   5.0000e-07
  Last Orbital Gradient      ...    2.6823e-06  Tolerance :   1.0000e-05
  Last Orbital Rotation      ...    1.2194e-05  Tolerance :   1.0000e-05


----------------------
UHF SPIN CONTAMINATION
----------------------

Warning: in a DFT calculation there is little theoretical justification to 
         calculate <S**2> as in Hartree-Fock theory. We will do it anyways
         but you should keep in mind that the values have only limited relevance

Expectation value of <S**2>     :     0.762969
Ideal value S*(S+1) for S=0.5   :     0.750000
Deviation                       :     0.012969

----------------
ORBITAL ENERGIES
----------------
                 SPIN UP ORBITALS
  NO   OCC          E(Eh)            E(eV) 
   0   1.0000     -14.230640      -387.2354 
   1   1.0000     -14.230638      -387.2354 
   2   1.0000     -10.139128      -275.8997 
   3   1.0000     -10.139124      -275.8996 
   4   1.0000     -10.129676      -275.6425 
   5   1.0000     -10.128009      -275.5971 
   6   1.0000     -10.127947      -275.5955 
   7   1.0000     -10.107124      -275.0288 
   8   1.0000     -10.100713      -274.8544 
   9   1.0000     -10.100697      -274.8539 
  10   1.0000      -0.871951       -23.7270 
  11   1.0000      -0.868651       -23.6372 
  12   1.0000      -0.824601       -22.4385 
  13   1.0000      -0.740215       -20.1423 
  14   1.0000      -0.730288       -19.8721 
  15   1.0000      -0.616940       -16.7878 
  16   1.0000      -0.603611       -16.4251 
  17   1.0000      -0.538502       -14.6534 
  18   1.0000      -0.462654       -12.5895 
  19   1.0000      -0.451712       -12.2917 
  20   1.0000      -0.427556       -11.6344 
  21   1.0000      -0.400970       -10.9110 
  22   1.0000      -0.380730       -10.3602 
  23   1.0000      -0.353322        -9.6144 
  24   1.0000      -0.350810        -9.5460 
  25   1.0000      -0.348085        -9.4719 
  26   1.0000      -0.335190        -9.1210 
  27   1.0000      -0.334973        -9.1151 
  28   1.0000      -0.310959        -8.4616 
  29   1.0000      -0.305093        -8.3020 
  30   1.0000      -0.300391        -8.1740 
  31   1.0000      -0.247336        -6.7304 
  32   1.0000      -0.239578        -6.5192 
  33   1.0000      -0.096221        -2.6183 
  34   0.0000      -0.042964        -1.1691 
  35   0.0000      -0.003949        -0.1075 
  36   0.0000       0.011943         0.3250 
  37   0.0000       0.012299         0.3347 
  38   0.0000       0.016100         0.4381 
  39   0.0000       0.026067         0.7093 
  40   0.0000       0.032395         0.8815 
  41   0.0000       0.033473         0.9108 
  42   0.0000       0.034396         0.9360 
  43   0.0000       0.034624         0.9422 
  44   0.0000       0.041342         1.1250 

                 SPIN DOWN ORBITALS
  NO   OCC          E(Eh)            E(eV) 
   0   1.0000     -14.228639      -387.1809 
   1   1.0000     -14.228637      -387.1809 
   2   1.0000     -10.138966      -275.8953 
   3   1.0000     -10.138963      -275.8952 
   4   1.0000     -10.130369      -275.6614 
   5   1.0000     -10.126338      -275.5517 
   6   1.0000     -10.126317      -275.5511 
   7   1.0000     -10.109198      -275.0853 
   8   1.0000     -10.094704      -274.6909 
   9   1.0000     -10.094702      -274.6908 
  10   1.0000      -0.868963       -23.6457 
  11   1.0000      -0.865838       -23.5606 
  12   1.0000      -0.820264       -22.3205 
  13   1.0000      -0.732861       -19.9421 
  14   1.0000      -0.726462       -19.7680 
  15   1.0000      -0.605004       -16.4630 
  16   1.0000      -0.601821       -16.3764 
  17   1.0000      -0.537510       -14.6264 
  18   1.0000      -0.458355       -12.4725 
  19   1.0000      -0.449702       -12.2370 
  20   1.0000      -0.425105       -11.5677 
  21   1.0000      -0.400438       -10.8965 
  22   1.0000      -0.368922       -10.0389 
  23   1.0000      -0.350666        -9.5421 
  24   1.0000      -0.348216        -9.4754 
  25   1.0000      -0.337727        -9.1900 
  26   1.0000      -0.333415        -9.0727 
  27   1.0000      -0.333021        -9.0620 
  28   1.0000      -0.303771        -8.2660 
  29   1.0000      -0.299162        -8.1406 
  30   1.0000      -0.298675        -8.1274 
  31   1.0000      -0.238250        -6.4831 
  32   1.0000      -0.214086        -5.8256 
  33   0.0000      -0.043462        -1.1827 
  34   0.0000      -0.038089        -1.0365 
  35   0.0000      -0.001999        -0.0544 
  36   0.0000       0.013304         0.3620 
  37   0.0000       0.014569         0.3964 
  38   0.0000       0.017950         0.4884 
  39   0.0000       0.028474         0.7748 
  40   0.0000       0.035541         0.9671 
  41   0.0000       0.035778         0.9736 
  42   0.0000       0.036472         0.9924 
  43   0.0000       0.042963         1.1691 
*Only the first 10 virtual orbitals were printed.

                    ********************************
                    * MULLIKEN POPULATION ANALYSIS *
                    ********************************

--------------------------------------------
MULLIKEN ATOMIC CHARGES AND SPIN POPULATIONS
--------------------------------------------
   0 C :    1.005024    0.067694
   1 C :   -0.714283    0.449922
   2 C :   -0.356279   -0.136940
   3 C :   -0.714679    0.449915
   4 C :    1.005541    0.067698
   5 C :   -0.841958   -0.029604
   6 H :   -0.225180    0.003537
   7 C :    0.803813   -0.004296
   8 N :   -1.083102    0.092867
   9 H :   -0.023483   -0.014522
  10 H :    0.447079   -0.020339
  11 H :   -0.023425   -0.014506
  12 C :    0.803682   -0.004291
  13 N :   -1.082751    0.092866
Sum of atomic charges         :   -1.0000000
Sum of atomic spin populations:    1.0000000

-----------------------------------------------------
MULLIKEN REDUCED ORBITAL CHARGES AND SPIN POPULATIONS
-----------------------------------------------------
CHARGE
  0 C s       :     2.569394  s :     2.569394
      pz      :     1.150406  p :     2.287342
      px      :     0.559843
      py      :     0.577093
      dz2     :     0.011843  d :     0.205992
      dxz     :     0.009966
      dyz     :     0.019355
      dx2y2   :     0.085420
      dxy     :     0.079406
      f0      :     0.001814  f :    -0.067752
      f+1     :    -0.003927
      f-1     :    -0.002124
      f+2     :    -0.001041
      f-2     :    -0.000031
      f+3     :    -0.038352
      f-3     :    -0.024092

  1 C s       :     3.847298  s :     3.847298
      pz      :     1.080557  p :     2.720012
      px      :     0.805144
      py      :     0.834311
      dz2     :    -0.016923  d :     0.160107
      dxz     :     0.004943
      dyz     :     0.013732
      dx2y2   :     0.068367
      dxy     :     0.089989
      f0      :     0.001752  f :    -0.013134
      f+1     :     0.000405
      f-1     :     0.000420
      f+2     :     0.000669
      f-2     :     0.000528
      f+3     :    -0.018738
      f-3     :     0.001829

  2 C s       :     3.280904  s :     3.280904
      pz      :     0.962757  p :     2.867661
      px      :     1.090540
      py      :     0.814364
      dz2     :    -0.002049  d :     0.217401
      dxz     :     0.036981
      dyz     :     0.025774
      dx2y2   :     0.117996
      dxy     :     0.038699
      f0      :     0.001054  f :    -0.009687
      f+1     :     0.000232
      f-1     :     0.000301
      f+2     :     0.000289
      f-2     :     0.001198
      f+3     :    -0.015448
      f-3     :     0.002688

  3 C s       :     3.847349  s :     3.847349
      pz      :     1.080574  p :     2.720592
      px      :     0.805555
      py      :     0.834463
      dz2     :    -0.016916  d :     0.159833
      dxz     :     0.004949
      dyz     :     0.013729
      dx2y2   :     0.068206
      dxy     :     0.089865
      f0      :     0.001751  f :    -0.013096
      f+1     :     0.000406
      f-1     :     0.000422
      f+2     :     0.000672
      f-2     :     0.000529
      f+3     :    -0.018715
      f-3     :     0.001839

  4 C s       :     2.569191  s :     2.569191
      pz      :     1.150435  p :     2.287084
      px      :     0.559514
      py      :     0.577136
      dz2     :     0.011826  d :     0.205901
      dxz     :     0.009910
      dyz     :     0.019338
      dx2y2   :     0.085360
      dxy     :     0.079468
      f0      :     0.001815  f :    -0.067718
      f+1     :    -0.003928
      f-1     :    -0.002125
      f+2     :    -0.001046
      f-2     :    -0.000037
      f+3     :    -0.038312
      f-3     :    -0.024085

  5 C s       :     4.004107  s :     4.004107
      pz      :     0.893952  p :     2.718711
      px      :     0.970130
      py      :     0.854629
      dz2     :    -0.021828  d :     0.138601
      dxz     :     0.013279
      dyz     :     0.003607
      dx2y2   :     0.271573
      dxy     :    -0.128030
      f0      :     0.000926  f :    -0.019461
      f+1     :    -0.000891
      f-1     :    -0.000192
      f+2     :     0.000287
      f-2     :     0.001743
      f+3     :    -0.024694
      f-3     :     0.003358

  6 H s       :     1.135057  s :     1.135057
      pz      :     0.012233  p :     0.082764
      px      :     0.038156
      py      :     0.032375
      dz2     :    -0.000125  d :     0.007359
      dxz     :     0.000415
      dyz     :     0.004623
      dx2y2   :     0.001209
      dxy     :     0.001236

  7 C s       :     2.900082  s :     2.900082
      pz      :     0.869874  p :     2.279693
      px      :     0.671591
      py      :     0.738228
      dz2     :    -0.005597  d :     0.011373
      dxz     :     0.040300
      dyz     :     0.015136
      dx2y2   :    -0.004902
      dxy     :    -0.033564
      f0      :     0.002757  f :     0.005039
      f+1     :    -0.000361
      f-1     :    -0.000021
      f+2     :     0.000520
      f-2     :     0.002424
      f+3     :    -0.002107
      f-3     :     0.001826

  8 N s       :     4.329787  s :     4.329787
      pz      :     1.247181  p :     3.699483
      px      :     1.237869
      py      :     1.214433
      dz2     :     0.001416  d :     0.054037
      dxz     :     0.017198
      dyz     :     0.005718
      dx2y2   :     0.020213
      dxy     :     0.009492
      f0      :     0.000123  f :    -0.000205
      f+1     :    -0.000270
      f-1     :    -0.000059
      f+2     :     0.000029
      f-2     :     0.000102
      f+3     :     0.000365
      f-3     :    -0.000496

  9 H s       :     0.981342  s :     0.981342
      pz      :     0.017378  p :     0.036689
      px      :     0.000667
      py      :     0.018644
      dz2     :    -0.000300  d :     0.005453
      dxz     :     0.003489
      dyz     :     0.001524
      dx2y2   :    -0.000582
      dxy     :     0.001322

 10 H s       :     0.543615  s :     0.543615
      pz      :     0.023510  p :     0.001463
      px      :     0.002195
      py      :    -0.024242
      dz2     :    -0.000760  d :     0.007843
      dxz     :    -0.000299
      dyz     :     0.004939
      dx2y2   :     0.001094
      dxy     :     0.002869

 11 H s       :     0.981327  s :     0.981327
      pz      :     0.017376  p :     0.036646
      px      :     0.000646
      py      :     0.018624
      dz2     :    -0.000300  d :     0.005452
      dxz     :     0.003488
      dyz     :     0.001524
      dx2y2   :    -0.000582
      dxy     :     0.001322

 12 C s       :     2.900005  s :     2.900005
      pz      :     0.869804  p :     2.279748
      px      :     0.671778
      py      :     0.738166
      dz2     :    -0.005573  d :     0.011524
      dxz     :     0.040313
      dyz     :     0.015137
      dx2y2   :    -0.004860
      dxy     :    -0.033494
      f0      :     0.002757  f :     0.005041
      f+1     :    -0.000362
      f-1     :    -0.000022
      f+2     :     0.000520
      f-2     :     0.002423
      f+3     :    -0.002108
      f-3     :     0.001833

 13 N s       :     4.329441  s :     4.329441
      pz      :     1.247193  p :     3.699474
      px      :     1.237783
      py      :     1.214498
      dz2     :     0.001414  d :     0.054042
      dxz     :     0.017200
      dyz     :     0.005718
      dx2y2   :     0.020212
      dxy     :     0.009498
      f0      :     0.000123  f :    -0.000205
      f+1     :    -0.000270
      f-1     :    -0.000059
      f+2     :     0.000029
      f-2     :     0.000103
      f+3     :     0.000365
      f-3     :    -0.000496


SPIN
  0 C s       :    -0.013641  s :    -0.013641
      pz      :     0.076777  p :     0.073393
      px      :     0.001645
      py      :    -0.005029
      dz2     :    -0.000374  d :     0.008852
      dxz     :     0.001269
      dyz     :     0.012833
      dx2y2   :    -0.000611
      dxy     :    -0.004265
      f0      :     0.000445  f :    -0.000910
      f+1     :    -0.000048
      f-1     :    -0.000206
      f+2     :    -0.001617
      f-2     :     0.000772
      f+3     :    -0.000310
      f-3     :     0.000053

  1 C s       :     0.033727  s :     0.033727
      pz      :     0.343589  p :     0.404542
      px      :     0.034629
      py      :     0.026324
      dz2     :    -0.001860  d :     0.010983
      dxz     :     0.003178
      dyz     :     0.009874
      dx2y2   :    -0.000671
      dxy     :     0.000461
      f0      :     0.000630  f :     0.000670
      f+1     :    -0.000361
      f-1     :    -0.000424
      f+2     :    -0.000034
      f-2     :     0.000387
      f+3     :     0.000288
      f-3     :     0.000185

  2 C s       :    -0.017164  s :    -0.017164
      pz      :    -0.113781  p :    -0.144090
      px      :    -0.022436
      py      :    -0.007874
      dz2     :     0.000805  d :     0.025172
      dxz     :     0.024377
      dyz     :     0.000063
      dx2y2   :    -0.003599
      dxy     :     0.003526
      f0      :     0.000367  f :    -0.000858
      f+1     :     0.000292
      f-1     :     0.000063
      f+2     :     0.000126
      f-2     :    -0.001236
      f+3     :    -0.001093
      f-3     :     0.000623

  3 C s       :     0.033728  s :     0.033728
      pz      :     0.343576  p :     0.404527
      px      :     0.034626
      py      :     0.026324
      dz2     :    -0.001860  d :     0.010989
      dxz     :     0.003182
      dyz     :     0.009875
      dx2y2   :    -0.000671
      dxy     :     0.000462
      f0      :     0.000630  f :     0.000672
      f+1     :    -0.000362
      f-1     :    -0.000424
      f+2     :    -0.000033
      f-2     :     0.000388
      f+3     :     0.000288
      f-3     :     0.000185

  4 C s       :    -0.013645  s :    -0.013645
      pz      :     0.076774  p :     0.073388
      px      :     0.001643
      py      :    -0.005030
      dz2     :    -0.000374  d :     0.008863
      dxz     :     0.001267
      dyz     :     0.012839
      dx2y2   :    -0.000606
      dxy     :    -0.004263
      f0      :     0.000445  f :    -0.000907
      f+1     :    -0.000048
      f-1     :    -0.000206
      f+2     :    -0.001615
      f-2     :     0.000773
      f+3     :    -0.000310
      f-3     :     0.000053

  5 C s       :     0.004908  s :     0.004908
      pz      :    -0.036619  p :    -0.041384
      px      :     0.000466
      py      :    -0.005231
      dz2     :     0.000125  d :     0.008139
      dxz     :     0.009949
      dyz     :     0.002782
      dx2y2   :    -0.000896
      dxy     :    -0.003821
      f0      :     0.000122  f :    -0.001267
      f+1     :     0.000259
      f-1     :    -0.000093
      f+2     :    -0.000267
      f-2     :    -0.000925
      f+3     :    -0.000700
      f-3     :     0.000337

  6 H s       :     0.004404  s :     0.004404
      pz      :    -0.001053  p :    -0.000867
      px      :     0.000369
      py      :    -0.000182
      dz2     :     0.000038  d :     0.000000
      dxz     :    -0.000006
      dyz     :    -0.000117
      dx2y2   :    -0.000107
      dxy     :     0.000193

  7 C s       :    -0.001811  s :    -0.001811
      pz      :     0.011036  p :    -0.005189
      px      :    -0.008507
      py      :    -0.007718
      dz2     :    -0.000108  d :     0.003249
      dxz     :     0.005806
      dyz     :     0.000529
      dx2y2   :    -0.001129
      dxy     :    -0.001850
      f0      :     0.000119  f :    -0.000546
      f+1     :    -0.000028
      f-1     :    -0.000061
      f+2     :    -0.000237
      f-2     :     0.000075
      f+3     :    -0.000349
      f-3     :    -0.000065

  8 N s       :     0.000932  s :     0.000932
      pz      :     0.087546  p :     0.090857
      px      :     0.000615
      py      :     0.002696
      dz2     :    -0.000152  d :     0.001365
      dxz     :     0.001358
      dyz     :     0.000259
      dx2y2   :     0.000025
      dxy     :    -0.000126
      f0      :    -0.000125  f :    -0.000288
      f+1     :    -0.000050
      f-1     :    -0.000045
      f+2     :    -0.000017
      f-2     :    -0.000045
      f+3     :    -0.000015
      f-3     :     0.000009

  9 H s       :    -0.023011  s :    -0.023011
      pz      :     0.005793  p :     0.008110
      px      :     0.002235
      py      :     0.000082
      dz2     :     0.000144  d :     0.000379
      dxz     :     0.000409
      dyz     :     0.000071
      dx2y2   :    -0.000092
      dxy     :    -0.000153

 10 H s       :    -0.014614  s :    -0.014614
      pz      :    -0.004208  p :    -0.004659
      px      :     0.000018
      py      :    -0.000469
      dz2     :    -0.000020  d :    -0.001067
      dxz     :    -0.000449
      dyz     :    -0.000497
      dx2y2   :    -0.000073
      dxy     :    -0.000027

 11 H s       :    -0.023005  s :    -0.023005
      pz      :     0.005802  p :     0.008119
      px      :     0.002235
      py      :     0.000082
      dz2     :     0.000144  d :     0.000380
      dxz     :     0.000409
      dyz     :     0.000071
      dx2y2   :    -0.000092
      dxy     :    -0.000153

 12 C s       :    -0.001809  s :    -0.001809
      pz      :     0.011036  p :    -0.005188
      px      :    -0.008507
      py      :    -0.007718
      dz2     :    -0.000108  d :     0.003253
      dxz     :     0.005810
      dyz     :     0.000530
      dx2y2   :    -0.001129
      dxy     :    -0.001850
      f0      :     0.000119  f :    -0.000546
      f+1     :    -0.000028
      f-1     :    -0.000061
      f+2     :    -0.000237
      f-2     :     0.000075
      f+3     :    -0.000349
      f-3     :    -0.000065

 13 N s       :     0.000933  s :     0.000933
      pz      :     0.087543  p :     0.090855
      px      :     0.000616
      py      :     0.002696
      dz2     :    -0.000152  d :     0.001365
      dxz     :     0.001359
      dyz     :     0.000260
      dx2y2   :     0.000025
      dxy     :    -0.000126
      f0      :    -0.000125  f :    -0.000288
      f+1     :    -0.000050
      f-1     :    -0.000045
      f+2     :    -0.000017
      f-2     :    -0.000045
      f+3     :    -0.000015
      f-3     :     0.000009



                     *******************************
                     * LOEWDIN POPULATION ANALYSIS *
                     *******************************

-------------------------------------------
LOEWDIN ATOMIC CHARGES AND SPIN POPULATIONS
-------------------------------------------
   0 C :   -0.255664    0.101964
   1 C :    0.153766    0.198285
   2 C :    0.123723    0.057491
   3 C :    0.153761    0.198284
   4 C :   -0.255665    0.101965
   5 C :    0.140903    0.015113
   6 H :   -0.167042   -0.000691
   7 C :   -0.323317    0.047235
   8 N :    0.167887    0.074467
   9 H :   -0.200609    0.045261
  10 H :   -0.181708   -0.006334
  11 H :   -0.200608    0.045261
  12 C :   -0.323316    0.047234
  13 N :    0.167888    0.074465

----------------------------------------------------
LOEWDIN REDUCED ORBITAL CHARGES AND SPIN POPULATIONS
----------------------------------------------------
CHARGE
  0 C s       :     2.478680  s :     2.478680
      pz      :     0.708110  p :     2.378879
      px      :     0.833873
      py      :     0.836896
      dz2     :     0.084488  d :     0.924901
      dxz     :     0.120044
      dyz     :     0.142564
      dx2y2   :     0.265655
      dxy     :     0.312150
      f0      :     0.035352  f :     0.473203
      f+1     :     0.033489
      f-1     :     0.032245
      f+2     :     0.057379
      f-2     :     0.048883
      f+3     :     0.186490
      f-3     :     0.079365

  1 C s       :     2.490398  s :     2.490398
      pz      :     0.670369  p :     2.327222
      px      :     0.846148
      py      :     0.810705
      dz2     :     0.067909  d :     0.699979
      dxz     :     0.064576
      dyz     :     0.115220
      dx2y2   :     0.204038
      dxy     :     0.248235
      f0      :     0.025267  f :     0.328636
      f+1     :     0.023158
      f-1     :     0.026667
      f+2     :     0.049530
      f-2     :     0.021473
      f+3     :     0.127113
      f-3     :     0.055429

  2 C s       :     2.495231  s :     2.495231
      pz      :     0.606734  p :     2.298699
      px      :     0.866641
      py      :     0.825324
      dz2     :     0.069236  d :     0.752420
      dxz     :     0.182426
      dyz     :     0.033685
      dx2y2   :     0.294381
      dxy     :     0.172692
      f0      :     0.018378  f :     0.329928
      f+1     :     0.031165
      f-1     :     0.019375
      f+2     :     0.013258
      f-2     :     0.058764
      f+3     :     0.131829
      f-3     :     0.057158

  3 C s       :     2.490397  s :     2.490397
      pz      :     0.670369  p :     2.327223
      px      :     0.846147
      py      :     0.810707
      dz2     :     0.067909  d :     0.699981
      dxz     :     0.064574
      dyz     :     0.115224
      dx2y2   :     0.204047
      dxy     :     0.248227
      f0      :     0.025267  f :     0.328638
      f+1     :     0.023157
      f-1     :     0.026668
      f+2     :     0.049527
      f-2     :     0.021477
      f+3     :     0.127114
      f-3     :     0.055428

  4 C s       :     2.478680  s :     2.478680
      pz      :     0.708111  p :     2.378880
      px      :     0.833874
      py      :     0.836895
      dz2     :     0.084488  d :     0.924901
      dxz     :     0.120043
      dyz     :     0.142565
      dx2y2   :     0.265648
      dxy     :     0.312157
      f0      :     0.035352  f :     0.473204
      f+1     :     0.033489
      f-1     :     0.032245
      f+2     :     0.057380
      f-2     :     0.048882
      f+3     :     0.186490
      f-3     :     0.079366

  5 C s       :     2.483893  s :     2.483893
      pz      :     0.577959  p :     2.261301
      px      :     0.859801
      py      :     0.823541
      dz2     :     0.071234  d :     0.766628
      dxz     :     0.192439
      dyz     :     0.035802
      dx2y2   :     0.281222
      dxy     :     0.185931
      f0      :     0.021873  f :     0.347275
      f+1     :     0.033139
      f-1     :     0.019493
      f+2     :     0.020302
      f-2     :     0.059025
      f+3     :     0.130706
      f-3     :     0.062737

  6 H s       :     0.649009  s :     0.649009
      pz      :     0.074611  p :     0.298817
      px      :     0.083539
      py      :     0.140667
      dz2     :     0.024359  d :     0.219217
      dxz     :     0.008006
      dyz     :     0.057138
      dx2y2   :     0.047236
      dxy     :     0.082479

  7 C s       :     2.629829  s :     2.629829
      pz      :     0.703455  p :     2.506705
      px      :     1.010985
      py      :     0.792265
      dz2     :     0.087707  d :     0.868272
      dxz     :     0.228022
      dyz     :     0.074226
      dx2y2   :     0.244674
      dxy     :     0.233644
      f0      :     0.030609  f :     0.318511
      f+1     :     0.038920
      f-1     :     0.018107
      f+2     :     0.015244
      f-2     :     0.040903
      f+3     :     0.094854
      f-3     :     0.079874

  8 N s       :     3.142198  s :     3.142198
      pz      :     1.026151  p :     3.367078
      px      :     1.279796
      py      :     1.061132
      dz2     :     0.025138  d :     0.221756
      dxz     :     0.051342
      dyz     :     0.016754
      dx2y2   :     0.055716
      dxy     :     0.072807
      f0      :     0.012270  f :     0.101080
      f+1     :     0.011420
      f-1     :     0.005111
      f+2     :     0.005005
      f-2     :     0.015344
      f+3     :     0.026450
      f-3     :     0.025480

  9 H s       :     0.670739  s :     0.670739
      pz      :     0.099990  p :     0.315902
      px      :     0.123437
      py      :     0.092474
      dz2     :     0.022672  d :     0.213968
      dxz     :     0.051866
      dyz     :     0.015729
      dx2y2   :     0.071998
      dxy     :     0.051703

 10 H s       :     0.665576  s :     0.665576
      pz      :     0.081957  p :     0.300197
      px      :     0.078199
      py      :     0.140042
      dz2     :     0.022574  d :     0.215934
      dxz     :     0.007428
      dyz     :     0.058864
      dx2y2   :     0.044471
      dxy     :     0.082599

 11 H s       :     0.670739  s :     0.670739
      pz      :     0.099990  p :     0.315901
      px      :     0.123435
      py      :     0.092477
      dz2     :     0.022672  d :     0.213968
      dxz     :     0.051864
      dyz     :     0.015732
      dx2y2   :     0.072001
      dxy     :     0.051700

 12 C s       :     2.629829  s :     2.629829
      pz      :     0.703454  p :     2.506704
      px      :     1.011001
      py      :     0.792249
      dz2     :     0.087707  d :     0.868272
      dxz     :     0.228031
      dyz     :     0.074216
      dx2y2   :     0.244672
      dxy     :     0.233646
      f0      :     0.030609  f :     0.318511
      f+1     :     0.038922
      f-1     :     0.018105
      f+2     :     0.015247
      f-2     :     0.040900
      f+3     :     0.094855
      f-3     :     0.079874

 13 N s       :     3.142196  s :     3.142196
      pz      :     1.026149  p :     3.367080
      px      :     1.279811
      py      :     1.061119
      dz2     :     0.025138  d :     0.221756
      dxz     :     0.051344
      dyz     :     0.016752
      dx2y2   :     0.055717
      dxy     :     0.072805
      f0      :     0.012270  f :     0.101080
      f+1     :     0.011420
      f-1     :     0.005110
      f+2     :     0.005007
      f-2     :     0.015342
      f+3     :     0.026450
      f-3     :     0.025480


SPIN
  0 C s       :     0.001120  s :     0.001120
      pz      :     0.052645  p :     0.051358
      px      :     0.000658
      py      :    -0.001945
      dz2     :    -0.000453  d :     0.036356
      dxz     :    -0.001326
      dyz     :     0.037409
      dx2y2   :     0.000457
      dxy     :     0.000270
      f0      :     0.003396  f :     0.013129
      f+1     :    -0.000122
      f-1     :    -0.000187
      f+2     :     0.010115
      f-2     :    -0.000543
      f+3     :     0.000127
      f-3     :     0.000343

  1 C s       :     0.006179  s :     0.006179
      pz      :     0.173987  p :     0.182395
      px      :     0.004469
      py      :     0.003940
      dz2     :    -0.001451  d :     0.009258
      dxz     :    -0.001780
      dyz     :     0.015076
      dx2y2   :    -0.001428
      dxy     :    -0.001159
      f0      :     0.003043  f :     0.000452
      f+1     :    -0.000423
      f-1     :    -0.000333
      f+2     :     0.000887
      f-2     :    -0.001875
      f+3     :    -0.000353
      f-3     :    -0.000494

  2 C s       :    -0.003063  s :    -0.003063
      pz      :    -0.046552  p :    -0.056526
      px      :    -0.007049
      py      :    -0.002926
      dz2     :     0.000356  d :     0.093082
      dxz     :     0.087357
      dyz     :     0.001614
      dx2y2   :     0.001919
      dxy     :     0.001836
      f0      :     0.003059  f :     0.023998
      f+1     :    -0.000173
      f-1     :     0.000103
      f+2     :     0.002708
      f-2     :     0.016603
      f+3     :     0.000855
      f-3     :     0.000843

  3 C s       :     0.006179  s :     0.006179
      pz      :     0.173985  p :     0.182394
      px      :     0.004469
      py      :     0.003940
      dz2     :    -0.001451  d :     0.009259
      dxz     :    -0.001779
      dyz     :     0.015076
      dx2y2   :    -0.001428
      dxy     :    -0.001159
      f0      :     0.003043  f :     0.000452
      f+1     :    -0.000423
      f-1     :    -0.000333
      f+2     :     0.000887
      f-2     :    -0.001876
      f+3     :    -0.000353
      f-3     :    -0.000494

  4 C s       :     0.001120  s :     0.001120
[...]

  2 C s       :    -0.003005  s :    -0.003005
      pz      :    -0.045845  p :    -0.055686
      px      :    -0.006957
      py      :    -0.002885
      dz2     :     0.000348  d :     0.092770
      dxz     :     0.087109
      dyz     :     0.001614
      dx2y2   :     0.001879
      dxy     :     0.001820
      f0      :     0.003040  f :     0.023936
      f+1     :    -0.000177
      f-1     :     0.000100
      f+2     :     0.002663
      f-2     :     0.016642
      f+3     :     0.000834
      f-3     :     0.000835

  3 C s       :     0.006072  s :     0.006072
      pz      :     0.172777  p :     0.181044
      px      :     0.004385
      py      :     0.003882
      dz2     :    -0.001444  d :     0.009385
      dxz     :    -0.001612
      dyz     :     0.014996
      dx2y2   :    -0.001415
      dxy     :    -0.001140
      f0      :     0.003052  f :     0.000518
      f+1     :    -0.000418
      f-1     :    -0.000330
      f+2     :     0.000902
      f-2     :    -0.001856
      f+3     :    -0.000347
      f-3     :    -0.000486

  4 C s       :     0.001085  s :     0.001085
      pz      :     0.052234  p :     0.050943
      px      :     0.000641
      py      :    -0.001932
      dz2     :    -0.000448  d :     0.036020
      dxz     :    -0.001364
      dyz     :     0.037106
      dx2y2   :     0.000459
      dxy     :     0.000267
      f0      :     0.003409  f :     0.013035
      f+1     :    -0.000119
      f-1     :    -0.000187
      f+2     :     0.009966
      f-2     :    -0.000491
      f+3     :     0.000119
      f-3     :     0.000338

  5 C s       :    -0.001064  s :    -0.001064
      pz      :    -0.016031  p :    -0.019357
      px      :    -0.002381
      py      :    -0.000946
      dz2     :     0.000132  d :     0.033123
      dxz     :     0.032431
      dyz     :     0.000242
      dx2y2   :     0.000297
      dxy     :     0.000020
      f0      :     0.000903  f :     0.002912
      f+1     :    -0.000078
      f-1     :     0.000021
      f+2     :     0.001261
      f-2     :     0.000929
      f+3     :    -0.000215
      f-3     :     0.000091

  6 H s       :     0.000155  s :     0.000155
      pz      :    -0.001882  p :    -0.002263
      px      :    -0.000184
      py      :    -0.000196
      dz2     :    -0.000024  d :     0.001405
      dxz     :     0.002912
      dyz     :    -0.001235
      dx2y2   :    -0.000118
      dxy     :    -0.000130

  7 C s       :    -0.000649  s :    -0.000649
      pz      :     0.009446  p :     0.006286
      px      :    -0.001558
      py      :    -0.001602
      dz2     :    -0.000094  d :     0.038041
      dxz     :     0.033703
      dyz     :     0.003971
      dx2y2   :     0.000192
      dxy     :     0.000270
      f0      :     0.000852  f :     0.003849
      f+1     :    -0.000140
      f-1     :    -0.000044
      f+2     :     0.000976
      f-2     :     0.001555
      f+3     :     0.000318
      f-3     :     0.000332

  8 N s       :     0.000935  s :     0.000935
      pz      :     0.060202  p :     0.062166
      px      :     0.000244
      py      :     0.001720
      dz2     :     0.000013  d :     0.010005
      dxz     :     0.008493
      dyz     :     0.001776
      dx2y2   :    -0.000208
      dxy     :    -0.000070
      f0      :     0.000725  f :     0.001947
      f+1     :    -0.000059
      f-1     :    -0.000048
      f+2     :     0.000515
      f-2     :     0.000909
      f+3     :    -0.000113
      f-3     :     0.000016

  9 H s       :    -0.005737  s :    -0.005737
      pz      :     0.031745  p :     0.034143
      px      :     0.001768
      py      :     0.000629
      dz2     :     0.000019  d :     0.017588
      dxz     :     0.014530
      dyz     :     0.001918
      dx2y2   :     0.000574
      dxy     :     0.000546

 10 H s       :     0.001290  s :     0.001290
      pz      :    -0.006884  p :    -0.008048
      px      :    -0.000563
      py      :    -0.000600
      dz2     :    -0.000026  d :     0.000487
      dxz     :     0.005229
      dyz     :    -0.003968
      dx2y2   :    -0.000311
      dxy     :    -0.000436

 11 H s       :    -0.005737  s :    -0.005737
      pz      :     0.031745  p :     0.034143
      px      :     0.001768
      py      :     0.000630
      dz2     :     0.000019  d :     0.017587
      dxz     :     0.014530
      dyz     :     0.001918
      dx2y2   :     0.000573
      dxy     :     0.000546

 12 C s       :    -0.000649  s :    -0.000649
      pz      :     0.009445  p :     0.006286
      px      :    -0.001558
      py      :    -0.001602
      dz2     :    -0.000094  d :     0.038041
      dxz     :     0.033704
      dyz     :     0.003970
      dx2y2   :     0.000192
      dxy     :     0.000270
      f0      :     0.000852  f :     0.003849
      f+1     :    -0.000140
      f-1     :    -0.000044
      f+2     :     0.000976
      f-2     :     0.001555
      f+3     :     0.000318
      f-3     :     0.000332

 13 N s       :     0.000935  s :     0.000935
      pz      :     0.060201  p :     0.062165
      px      :     0.000244
      py      :     0.001720
      dz2     :     0.000013  d :     0.010005
      dxz     :     0.008493
      dyz     :     0.001776
      dx2y2   :    -0.000208
      dxy     :    -0.000070
      f0      :     0.000725  f :     0.001947
      f+1     :    -0.000059
      f-1     :    -0.000048
      f+2     :     0.000515
      f-2     :     0.000909
      f+3     :    -0.000113
      f-3     :     0.000016



                      *****************************
                      * MAYER POPULATION ANALYSIS *
                      *****************************

  NA   - Mulliken gross atomic population
  ZA   - Total nuclear charge
  QA   - Mulliken gross atomic charge
  VA   - Mayer's total valence
  BVA  - Mayer's bonded valence
  FA   - Mayer's free valence

  ATOM       NA         ZA         QA         VA         BVA        FA
  0 C      4.9642     6.0000     1.0358     2.2091     2.1907     0.0184
  1 C      6.7215     6.0000    -0.7215     3.2483     3.1208     0.1275
  2 C      6.3765     6.0000    -0.3765     3.3057     3.2907     0.0149
  3 C      6.7220     6.0000    -0.7220     3.2491     3.1215     0.1275
  4 C      4.9652     6.0000     1.0348     2.2114     2.1930     0.0184
  5 C      6.8473     6.0000    -0.8473     3.0895     3.0878     0.0018
  6 H      1.2241     1.0000    -0.2241     1.3613     1.3613     0.0000
  7 C      5.1973     6.0000     0.8027     2.3021     2.3004     0.0017
  8 N      8.0930     7.0000    -1.0930     1.5489     1.5407     0.0083
  9 H      1.0264     1.0000    -0.0264     1.1879     1.1874     0.0005
 10 H      0.5466     1.0000     0.4534     0.6222     0.6219     0.0003
 11 H      1.0264     1.0000    -0.0264     1.1880     1.1874     0.0005
 12 C      5.1965     6.0000     0.8035     2.3006     2.2989     0.0017
 13 N      8.0932     7.0000    -1.0932     1.5482     1.5400     0.0083

  Mayer bond orders larger than 0.100000
B(  0-C ,  1-C ) :   0.2101 B(  0-C ,  4-C ) :   0.2093 B(  0-C ,  5-C ) :   0.6397 
B(  0-C ,  6-H ) :  -0.1179 B(  0-C , 11-H ) :  -0.1452 B(  0-C , 12-C ) :   0.8860 
B(  0-C , 13-N ) :   0.2895 B(  1-C ,  2-C ) :   1.3406 B(  1-C ,  5-C ) :  -0.1060 
B(  1-C , 11-H ) :   1.2304 B(  1-C , 12-C ) :   0.2846 B(  2-C ,  3-C ) :   1.3407 
B(  2-C , 10-H ) :   0.6289 B(  3-C ,  4-C ) :   0.2113 B(  3-C ,  5-C ) :  -0.1053 
B(  3-C ,  7-C ) :   0.2842 B(  3-C ,  9-H ) :   1.2299 B(  4-C ,  5-C ) :   0.6413 
B(  4-C ,  6-H ) :  -0.1177 B(  4-C ,  7-C ) :   0.8866 B(  4-C ,  8-N ) :   0.2886 
B(  4-C ,  9-H ) :  -0.1451 B(  5-C ,  6-H ) :   1.4219 B(  5-C ,  8-N ) :   0.1088 
B(  5-C ,  9-H ) :   0.1026 B(  5-C , 11-H ) :   0.1029 B(  5-C , 13-N ) :   0.1091 
B(  7-C ,  8-N ) :   0.9039 B(  7-C , 12-C ) :   0.2303 B( 12-C , 13-N ) :   0.9021 


-------
TIMINGS
-------

Total SCF time: 0 days 0 hours 1 min 41 sec 

Total time                  ....     101.791 sec
Sum of individual times     ....      98.364 sec  ( 96.6%)

SCF preparation             ....       1.157 sec  (  1.1%)
Fock matrix formation       ....      87.785 sec  ( 86.2%)
  Startup                   ....       1.628 sec  (  1.9% of F)
  Split-RI-J                ....       3.628 sec  (  4.1% of F)
  Chain of spheres X        ....      53.145 sec  ( 60.5% of F)
  XC integration            ....      25.156 sec  ( 28.7% of F)
    XC Preparation          ....       0.000 sec  (  0.0% of XC)
    Basis function eval.    ....       1.159 sec  (  4.6% of XC)
    Density eval.           ....       9.239 sec  ( 36.7% of XC)
    XC-Functional eval.     ....       0.210 sec  (  0.8% of XC)
    XC-Potential eval.      ....      12.066 sec  ( 48.0% of XC)
  CPCM terms                ....       2.081 sec  (  2.4% of F)
Diagonalization             ....       0.000 sec  (  0.0%)
Density matrix formation    ....       2.038 sec  (  2.0%)
Total Energy calculation    ....       1.462 sec  (  1.4%)
Population analysis         ....       0.930 sec  (  0.9%)
Orbital Transformation      ....       0.662 sec  (  0.7%)
Orbital Orthonormalization  ....       0.000 sec  (  0.0%)
DIIS solution               ....       0.975 sec  (  1.0%)
SOSCF solution              ....       3.355 sec  (  3.3%)
Finished LeanSCF after 102.6 sec

Maximum memory used throughout the entire LEANSCF-calculation: 78.1 MB


-------------------------------------------------------------------------------
                          DFT DISPERSION CORRECTION                            
                                                                               
                              DFTD3 V3.1  Rev 1                                
                          USING Becke-Johnson damping                          
-------------------------------------------------------------------------------
The TPSSH functional is recognized
Active option DFTDOPT                   ...         4   

molecular C6(AA) [au] = 3291.946422 


            DFT-D V3
 parameters
 s6 scaling factor         :     1.0000 
 a1 scaling factor         :     0.4529 
 s8 scaling factor         :     2.2382 
 a2 scaling factor         :     4.6550 
 ad hoc parameters k1-k3   :    16.0000     1.3333    -4.0000 

 Edisp/kcal,au: -11.912489624001  -0.018983758566 
 E6   /kcal   :  -5.486000115 
 E8   /kcal   :  -6.426489509 
 % E8         :  53.947493024 

-------------------------   ----------------
Dispersion correction           -0.018983759
-------------------------   ----------------


-------------------------   --------------------
FINAL SINGLE POINT ENERGY      -417.023629620756
-------------------------   --------------------

                                *** OPTIMIZATION RUN DONE ***



           ************************************************************
           *        Program running with 8 parallel MPI-processes     *
           *              working on a common directory               *
           ************************************************************

------------------------------------------------------------------------------
                              ORCA PROPERTY CALCULATIONS
------------------------------------------------------------------------------

GBWName                                 ... cs_rporg_162_red_opt_08.gbw
Number of atoms                         ...     14
Number of basis functions               ...    612
Max core memory                         ...   3500 MB

Electric properties:
Dipole moment                           ... YES
Quadrupole moment                       ...  NO
Static polarizability (Dipole/Dipole)   ...  NO
Static polarizability (Dipole/Quad.)    ...  NO
Static polarizability (Quad./Quad.)     ...  NO
Static polarizability (Velocity)        ...  NO

Atomic electric properties:
Dipole moment                           ...  NO
Quadrupole moment                       ...  NO
Static polarizability                   ...  NO

Choice of electric origin               ... Center of mass
Position of electric origin             ...    -0.000004    -0.022488     0.000007

General magnetic properties:
Magnetizability                         ...  NO

EPR properties:
g-Tensor (aka g-matrix)                 ...  NO
Zero-Field splitting spin-orbit         ...  NO
Zero-field splitting spin-spin          ...  NO
Hyperfine couplings                     ...  NO (   0 nuclei)
Quadrupole couplings                    ...  NO (   0 nuclei)
Contact density                         ...  NO (   0 nuclei)

NMR properties:
Chemical shifts                         ...  NO (   0 nuclei)
Spin-rotation constants                 ...  NO (   0 nuclei)
Spin-spin couplings                     ...  NO (   0 nuclei,    0 pairs)

Choice of magnetic origin               ... GIAO
Position of magnetic origin             ...     0.000000     0.000000     0.000000

Properties with geometric perturbations:
SCF Hessian                             ...  NO
IR spectrum                             ...  NO
VCD spectrum                            ...  NO
X-ray spectroscopy properties:
SCF XES/XAS/RIXS spectra                ...  NO


-------------
DIPOLE MOMENT
-------------

Method             : SCF
Type of density    : Electron Density
Multiplicity       :   2
Irrep              :   0
Energy             :  -417.0046458621906709 Eh
Relativity type    : 
Basis              : AO
                                X                 Y                 Z
Electronic contribution:     -0.000083079      -3.132633318       0.000006492
Nuclear contribution   :      0.000112706       4.967759033       0.000000773
                        -----------------------------------------
Total Dipole Moment    :      0.000029627       1.835125715       0.000007265
                        -----------------------------------------
Magnitude (a.u.)       :      1.835125715
Magnitude (Debye)      :      4.664518872



--------------------
Rotational spectrum 
--------------------
 
Rotational constants in cm-1:             0.087597             0.030619             0.022688 
Rotational constants in MHz :          2626.105928           917.933798           680.181827 

Dipole components along the rotational axes: 
x,y,z [a.u.] :    -0.000014    -1.835126     0.000011 
x,y,z [Debye]:    -0.000036    -4.664519     0.000028 

 

Dipole moment calculation done in   0.8 sec 

Maximum memory used throughout the entire PROP-calculation: 41.4 MB

--------------------------------
SUGGESTED CITATIONS FOR THIS RUN
--------------------------------

Below you find a list of papers that are relevant to this ORCA run
We neither can nor want to force you to cite these papers, but we appreciate if you do
You receive ORCA, which is the product of decades of hard work by many enthusiastic individuals, for free
The only thing we kindly ask in return is that you cite our papers,
We deeply appreciate it, if you show your appreciation for ORCA by not just citing the generic ORCA reference.

Please note that relegating all ORCA citations to the supporting information does *not* help us.
SI sections are not indexed - citations you put there will not count into any citation statistics
But we need these citations in order to attract the funding resources that allow us to do what we are doing

Therefore, if you are a happy ORCA user, please consider citing a few of the papers listed below in the main body of your paper

In addition to the list printed below, the program has created the file cs_rporg_162_red_opt_08.bibtex that contains the list in bibtex format
You can import this file easily into all common literature databanks and citation aid programs


List of essential papers. We consider these as the minimum necessary citations

  1. Neese,F.
     Software update: the ORCA program system, version 5.0
     WIRES Comput. Molec. Sci., 2022 12(1)e1606
     doi.org/10.1002/wcms.1606

List of papers to cite with high priority. The work reported in these papers was absolutely
necessary for this run to complete.
Our perspective: the developers of density functionals and basis sets usually get cited in chemistry papers
Good! But without the algorithms to do something with them, the functionals or basis sets would not do anything.
Hence, in our opinion, the algorithm design and method developments papers are equally worthy of getting cited

  1. Neese,F.
     An improvement of the resolution of the identity approximation for the formation of the Coulomb matrix
     J. Comp. Chem., 2003 24(14)1740-1747
     doi.org/10.1002/jcc.10318
  2. Neese,F.; Wennmohs,F.; Hansen,A.; Becker,U.
     Efficient, approximate and parallel Hartree-Fock and hybrid DFT calculations. A 'chain-of-spheres' algorithm for the Hartree-Fock exchange
     Chem. Phys., 2009 356(1-3)98-109
     doi.org/10.1016/j.chemphys.2008.10.036
  3. Garcia-Rates,M.; Neese,F.
     Effect of the Solute Cavity on the Solvation Energy and its Derivatives within the Framework of the Gaussian Charge Scheme
     J. Comput. Chem., 2020 41 922-939
     doi.org/10.1002/jcc.26139
  4. Helmich-Paris,B.; de Souza,B.; Neese,F.; Izsák,R.
     An improved chain of spheres for exchange algorithm
     J. Chem. Phys., 2021 155 104109
     doi.org/doi: 10.1063/5.0058766.
  5. Neese,F.
     The SHARK Integral Generation and Digestion System
     J. Comp. Chem., 2022  1-16
     doi.org/10.1002/jcc.26942
  6. Grimme,S.; Antony,J.; Ehrlich,S.; Krieg,H.
     A consistent and accurate ab initio parametrization of density functional dispersion correction (DFT-D) for the 94 elements H-Pu
     J. Chem. Phys., 2010 132 154104-XXXX
     doi.org/10.1063/1.3382344
  7. Grimme,S.; Ehrlich,S.; Goerigk,L.
     Effect of the damping function in dispersion corrected density functional theory
     J. Comput. Chem., 2011 32(7)1456-1465
     doi.org/10.1002/jcc.21759

List of suggested additional citations. These are papers that are important in the 'surrounding' of 
of this run, or papers that preceded the highly important papers. If you like your results we are grateful for a citation.

  1. Izsak,R.; Neese,F.
     An overlap fitted chain of spheres exchange method
     J. Chem. Phys., 2011 135 144105
     doi.org/10.1063/1.3646921
  2. Izsak,R.; Hansen,A.; Neese,F.
     The resolution of identity and chain of spheres approximations for the LPNO-CCSD singles Fock term
     Molec. Phys., 2012 110 2413-2417
     doi.org/10.1080/00268976.2012.687466
  3. Neese,F.
     The ORCA program system
     WIRES Comput. Molec. Sci., 2012 2(1)73-78
     doi.org/10.1002/wcms.81
  4. Izsak,R.; Neese,F.; Klopper,W.
     Robust fitting techniques in the chain of spheres approximation to the Fock exchange: The role of the complementary space
     J. Chem. Phys., 2013 139 
     doi.org/10.1063/1.4819264
  5. Neese,F.
     Software update: the ORCA program system, version 4.0
     WIRES Comput. Molec. Sci., 2018 8(1)1-6
     doi.org/10.1002/wcms.1327
  6. Neese,F.; Wennmohs,F.; Becker,U.; Riplinger,C.
     The ORCA quantum chemistry program package
     J. Chem. Phys., 2020 152 Art. No. L224108
     doi.org/10.1063/5.0004608

List of optional additional citations

  1. Neese,F.
     Approximate second-order SCF convergence for spin unrestricted wavefunctions
     Chem. Phys. Lett., 2000 325(1-3)93-98
     doi.org/10.1016/s0009-2614(00)00662-x

Timings for individual modules:

Sum of individual times          ...     1168.860 sec (=  19.481 min)
Startup calculation              ...       42.262 sec (=   0.704 min)   3.6 %
SCF iterations                   ...      740.129 sec (=  12.335 min)  63.3 %
Property calculations            ...        2.823 sec (=   0.047 min)   0.2 %
SCF Gradient evaluation          ...      383.340 sec (=   6.389 min)  32.8 %
Geometry relaxation              ...        0.306 sec (=   0.005 min)   0.0 %
                             ****ORCA TERMINATED NORMALLY****
TOTAL RUN TIME: 0 days 0 hours 19 minutes 45 seconds 332 msec
