 vasp.6.4.2 20Jul23 (build Oct 03 2024 14:39:03) complex                        
  
 executed on             LinuxIFC date 2025.08.28  18:53:39
 running   90 mpi-ranks, on    3 nodes
 distrk:  each k-point on   90 cores,    1 groups
 distr:  one band on NCORE=  30 cores,    3 groups


--------------------------------------------------------------------------------------------------------


 INCAR:
   SYSTEM = 103_red
   ISTART = 1
   ICHARG = 2
   INIWAV = 1
   LHFCALC = .TRUE.
   HFSCREEN = 0.2
   NELM = 500
   ALGO = Damped
   ISPIN = 2
   EDIFF = 1E-05
   ISMEAR = 0
   SIGMA = 0.05
   PREC = accurate
   ENCUT = 500
   LREAL = auto  	
   LDIAG = .FALSE.
   LWAVE = .TRUE.
   LCHARG = .FALSE.
   LAECHG = .FALSE.
   LVHAR = .FALSE.
   LVTOT = .FALSE.
   EDIFFG = -0.02
   IBRION = 2
   NSW = 0
   ISIF = 2
   POTIM = 0.5
   IVDW = 12
   VDW_A1 = 0.383
   VDW_S8 = 2.310
   VDW_A2 = 5.685
   LPLANE = .TRUE.
   NCORE = 30
   LSCALU = .FALSE.
   NSIM = 4
   LSOL = .TRUE.
   EB_K = 35.6880
   LAMBDA_D_K = 3.04
   NELECT = 51
   TAU = 0

 POTCAR:    PAW_PBE C 08Apr2002                   
 POTCAR:    PAW_PBE H 15Jun2001                   
 -----------------------------------------------------------------------------
|                                                                             |
|           W    W    AA    RRRRR   N    N  II  N    N   GGGG   !!!           |
|           W    W   A  A   R    R  NN   N  II  NN   N  G    G  !!!           |
|           W    W  A    A  R    R  N N  N  II  N N  N  G       !!!           |
|           W WW W  AAAAAA  RRRRR   N  N N  II  N  N N  G  GGG   !            |
|           WW  WW  A    A  R   R   N   NN  II  N   NN  G    G                |
|           W    W  A    A  R    R  N    N  II  N    N   GGGG   !!!           |
|                                                                             |
|     You use a magnetic or noncollinear calculation, but did not specify     |
|     the initial magnetic moment with the MAGMOM tag. Note that a            |
|     default of 1 will be used for all atoms. This ferromagnetic setup       |
|     may break the symmetry of the crystal, in particular it may rule        |
|     out finding an antiferromagnetic solution. Thence, we recommend         |
|     setting the initial magnetic moment manually or verifying carefully     |
|     that this magnetic setup is desired.                                    |
|                                                                             |
 -----------------------------------------------------------------------------

 -----------------------------------------------------------------------------
|                                                                             |
|           W    W    AA    RRRRR   N    N  II  N    N   GGGG   !!!           |
|           W    W   A  A   R    R  NN   N  II  NN   N  G    G  !!!           |
|           W    W  A    A  R    R  N N  N  II  N N  N  G       !!!           |
|           W WW W  AAAAAA  RRRRR   N  N N  II  N  N N  G  GGG   !            |
|           WW  WW  A    A  R   R   N   NN  II  N   NN  G    G                |
|           W    W  A    A  R    R  N    N  II  N    N   GGGG   !!!           |
|                                                                             |
|     For optimal performance we recommend to set                             |
|       NCORE = 2 up to number-of-cores-per-socket                            |
|     NCORE specifies how many cores store one orbital (NPAR=cpu/NCORE).      |
|     This setting can greatly improve the performance of VASP for DFT.       |
|     The default, NCORE=1 might be grossly inefficient on modern             |
|     multi-core architectures or massively parallel machines. Do your        |
|     own testing! More info at https://www.vasp.at/wiki/index.php/NCORE      |
|     Unfortunately you need to use the default for GW and RPA                |
|     calculations (for HF NCORE is supported but not extensively tested      |
|     yet).                                                                   |
|                                                                             |
 -----------------------------------------------------------------------------

 POTCAR:    PAW_PBE C 08Apr2002                   
   SHA256 =  253f7b50bb8d59471dbedb8285d89021f4a42ed1a2c5d38a03a736e69125dd95 C/POTCAR              
   COPYR  = (c) Copyright 08Apr2002 Georg Kresse                                                    
   COPYR  = This file is part of the software VASP. Any use, copying, and all other rights are regul
   COPYR  = If you do not have a valid VASP license, you may not use, copy or distribute this file. 
   VRHFIN =C: s2p2                                                                                  
   LEXCH  = PE                                                                                      
   EATOM  =   147.1560 eV,   10.8157 Ry                                                             
                                                                                                    
   TITEL  = PAW_PBE C 08Apr2002                                                                     
   LULTRA =        F    use ultrasoft PP ?                                                          
   IUNSCR =        1    unscreen: 0-lin 1-nonlin 2-no                                               
   RPACOR =    1.200    partial core radius                                                         
   POMASS =   12.011; ZVAL   =    4.000    mass and valenz                                          
   RCORE  =    1.500    outmost cutoff radius                                                       
   RWIGS  =    1.630; RWIGS  =    0.863    wigner-seitz radius (au A)                               
   ENMAX  =  400.000; ENMIN  =  300.000 eV                                                          
   ICORE  =        2    local potential                                                             
   LCOR   =        T    correct aug charges                                                         
   LPAW   =        T    paw PP                                                                      
   EAUG   =  644.873                                                                                
   DEXC   =    0.000                                                                                
   RMAX   =    1.529    core radius for proj-oper                                                   
   RAUG   =    1.300    factor for augmentation sphere                                              
   RDEP   =    1.501    radius for radial grids                                                     
   RDEPT  =    1.300    core radius for aug-charge                                                  
                                                                                                    
   Atomic configuration                                                                             
    4 entries                                                                                       
     n  l   j            E        occ.                                                              
     1  0  0.50      -273.3789   2.0000                                                             
     2  0  0.50       -13.7508   2.0000                                                             
     2  1  0.50        -5.2854   2.0000                                                             
     3  2  1.50        -5.4423   0.0000                                                             
   Description                                                                                      
     l       E           TYP  RCUT    TYP  RCUT                                                     
     0    -13.7508458     23  1.200                                                                 
     0     -8.2022199     23  1.200                                                                 
     1     -5.2854383     23  1.500                                                                 
     1     34.0145650     23  1.500                                                                 
     2     -5.4423304      7  1.500                                                                 
  local pseudopotential read in
  partial core-charges read in
  partial kinetic energy density read in
  atomic valenz-charges read in
  non local Contribution for L=           0  read in
    real space projection operators read in
  non local Contribution for L=           0  read in
    real space projection operators read in
  non local Contribution for L=           1  read in
    real space projection operators read in
  non local Contribution for L=           1  read in
    real space projection operators read in
    PAW grid and wavefunctions read in
 
   number of l-projection  operators is LMAX  =           4
   number of lm-projection operators is LMMAX =           8
 
 POTCAR:    PAW_PBE H 15Jun2001                   
   SHA256 =  030f79b5d3ab3cf0e668861823c8fb652ff669f3e15e46930bd03bfd63a607b6 H/POTCAR              
   COPYR  = (c) Copyright 15Jun2001 Georg Kresse                                                    
   COPYR  = This file is part of the software VASP. Any use, copying, and all other rights are regul
   COPYR  = If you do not have a valid VASP license, you may not use, copy or distribute this file. 
   VRHFIN =H: ultrasoft test                                                                        
   LEXCH  = PE                                                                                      
   EATOM  =    12.4884 eV,    0.9179 Ry                                                             
                                                                                                    
   TITEL  = PAW_PBE H 15Jun2001                                                                     
   LULTRA =        F    use ultrasoft PP ?                                                          
   IUNSCR =        0    unscreen: 0-lin 1-nonlin 2-no                                               
   RPACOR =    0.000    partial core radius                                                         
   POMASS =    1.000; ZVAL   =    1.000    mass and valenz                                          
   RCORE  =    1.100    outmost cutoff radius                                                       
   RWIGS  =    0.700; RWIGS  =    0.370    wigner-seitz radius (au A)                               
   ENMAX  =  250.000; ENMIN  =  200.000 eV                                                          
   RCLOC  =    0.701    cutoff for local pot                                                        
   LCOR   =        T    correct aug charges                                                         
   LPAW   =        T    paw PP                                                                      
   EAUG   =  400.000                                                                                
   RMAX   =    1.123    core radius for proj-oper                                                   
   RAUG   =    1.200    factor for augmentation sphere                                              
   RDEP   =    1.112    radius for radial grids                                                     
   RDEPT  =    0.926    core radius for aug-charge                                                  
                                                                                                    
   Atomic configuration                                                                             
    2 entries                                                                                       
     n  l   j            E        occ.                                                              
     1  0  0.50        -6.4927   1.0000                                                             
     2  1  0.50        -3.4015   0.0000                                                             
   Description                                                                                      
     l       E           TYP  RCUT    TYP  RCUT                                                     
     0     -6.4927494     23  1.100                                                                 
     0      6.8029130     23  1.100                                                                 
     1     -4.0817478     23  1.100                                                                 
  local pseudopotential read in
  atomic valenz-charges read in
  non local Contribution for L=           0  read in
    real space projection operators read in
  non local Contribution for L=           0  read in
    real space projection operators read in
  non local Contribution for L=           1  read in
    real space projection operators read in
    PAW grid and wavefunctions read in
 
   number of l-projection  operators is LMAX  =           3
   number of lm-projection operators is LMMAX =           5
 
 Optimization of the real space projectors (new method)

 maximal supplied QI-value         = 25.13
 optimisation between [QCUT,QGAM] = [ 11.31, 22.87] = [ 35.82,146.48] Ry 
 Optimized for a Real-space Cutoff    1.03 Angstroem

   l    n(q)    QCUT    max X(q) W(low)/X(q) W(high)/X(q)  e(spline) 
   0      7    11.310   115.676    0.20E-03    0.90E-03    0.20E-06
   0      7    11.310    87.132    0.20E-03    0.89E-03    0.19E-06
   1      6    11.310     4.429    0.16E-03    0.28E-03    0.12E-06
   1      6    11.310     2.733    0.12E-03    0.21E-03    0.99E-07
 Optimization of the real space projectors (new method)

 maximal supplied QI-value         = 34.20
 optimisation between [QCUT,QGAM] = [ 11.29, 22.57] = [ 35.68,142.71] Ry 
 Optimized for a Real-space Cutoff    1.20 Angstroem

   l    n(q)    QCUT    max X(q) W(low)/X(q) W(high)/X(q)  e(spline) 
   0      8    11.287    19.460    0.22E-03    0.50E-03    0.19E-06
   0      8    11.287    12.209    0.21E-03    0.48E-03    0.18E-06
   1      8    11.287     4.655    0.21E-03    0.11E-04    0.26E-06
  PAW_PBE C 08Apr2002                   :
 energy of atom  1       EATOM= -147.1560
 kinetic energy error for atom=    0.0076 (will be added to EATOM!!)
  PAW_PBE H 15Jun2001                   :
 energy of atom  2       EATOM=  -12.4884
 kinetic energy error for atom=    0.0020 (will be added to EATOM!!)
 
 
 POSCAR: C H
  positions in direct lattice
  velocities in cartesian coordinates
 exchange correlation table for  LEXCH =        8
   RHO(1)=    0.500       N(1)  =     2000
   RHO(2)=  100.500       N(2)  =     4000
 


--------------------------------------------------------------------------------------------------------


 ion  position               nearest neighbor table
   1  0.495  0.474  0.500-  22 1.09   2 1.38   6 1.43
   2  0.461  0.470  0.500-  21 1.09   1 1.38   3 1.42
   3  0.439  0.499  0.500-   4 1.42   2 1.42  10 1.49
   4  0.453  0.531  0.500-  17 1.09   5 1.38   3 1.42
   5  0.487  0.535  0.500-  16 1.09   4 1.38   6 1.43
   6  0.509  0.507  0.500-   7 1.42   5 1.43   1 1.43
   7  0.544  0.514  0.500-  15 1.09   8 1.38   6 1.42
   8  0.570  0.490  0.500-  14 1.09   7 1.38   9 1.47
   9  0.605  0.498  0.500-  13 1.10  11 1.10  12 1.10   8 1.47
  10  0.402  0.494  0.500-  18 1.10  20 1.10  19 1.10   3 1.49
  11  0.618  0.487  0.522-   9 1.10
  12  0.618  0.487  0.478-   9 1.10
  13  0.610  0.525  0.500-   9 1.10
  14  0.563  0.463  0.500-   8 1.09
  15  0.552  0.540  0.500-   7 1.09
  16  0.498  0.560  0.500-   5 1.09
  17  0.437  0.553  0.500-   4 1.09
  18  0.389  0.517  0.505-  10 1.10
  19  0.394  0.484  0.475-  10 1.10
  20  0.395  0.474  0.518-  10 1.10
  21  0.450  0.445  0.500-   2 1.09
  22  0.511  0.452  0.500-   1 1.09
 
  LATTYP: Found a simple cubic cell.
 ALAT       =    40.0000000000
  
  Lattice vectors:
  
 A1 = (  40.0000000000,   0.0000000000,   0.0000000000)
 A2 = (   0.0000000000,  40.0000000000,   0.0000000000)
 A3 = (   0.0000000000,   0.0000000000,  40.0000000000)


Analysis of symmetry for initial positions (statically):
=====================================================================
 Subroutine PRICEL returns:
 Original cell was already a primitive cell.
 

 Routine SETGRP: Setting up the symmetry group for a 
 simple cubic supercell.


 Subroutine GETGRP returns: Found  1 space group operations
 (whereof  1 operations were pure point group operations)
 out of a pool of 48 trial point group operations.


The static configuration has the point symmetry C_1 .


Analysis of symmetry for dynamics (positions and initial velocities):
=====================================================================
 Subroutine PRICEL returns:
 Original cell was already a primitive cell.
 

 Routine SETGRP: Setting up the symmetry group for a 
 simple cubic supercell.


 Subroutine GETGRP returns: Found  1 space group operations
 (whereof  1 operations were pure point group operations)
 out of a pool of 48 trial point group operations.


The dynamic configuration has the point symmetry C_1 .


Analysis of constrained symmetry for selective dynamics:
=====================================================================
 Subroutine PRICEL returns:
 Original cell was already a primitive cell.
 

 Routine SETGRP: Setting up the symmetry group for a 
 simple cubic supercell.


 Subroutine GETGRP returns: Found  1 space group operations
 (whereof  1 operations were pure point group operations)
 out of a pool of 48 trial point group operations.


The constrained configuration has the point symmetry C_1 .


Analysis of structural, dynamic, and magnetic symmetry:
=====================================================================
 Subroutine PRICEL returns:
 Original cell was already a primitive cell.
 

 Routine SETGRP: Setting up the symmetry group for a 
 simple cubic supercell.


 Subroutine GETGRP returns: Found  1 space group operations
 (whereof  1 operations were pure point group operations)
 out of a pool of 48 trial point group operations.


The overall configuration has the point symmetry C_1 .


 Subroutine INISYM returns: Found  1 space group operations
 (whereof  1 operations are pure point group operations),
 and found     1 'primitive' translations


----------------------------------------------------------------------------------------

                                     Primitive cell                                     

  volume of cell :   64000.0000

  direct lattice vectors                    reciprocal lattice vectors
    40.000000000  0.000000000  0.000000000     0.025000000  0.000000000  0.000000000
     0.000000000 40.000000000  0.000000000     0.000000000  0.025000000  0.000000000
     0.000000000  0.000000000 40.000000000     0.000000000  0.000000000  0.025000000

  length of vectors
    40.000000000 40.000000000 40.000000000     0.025000000  0.025000000  0.025000000

  position of ions in fractional coordinates (direct lattice)
     0.495006320  0.474307743  0.500109017
     0.460852737  0.470362410  0.500178711
     0.439066380  0.498500161  0.500264679
     0.453172276  0.531022102  0.500207492
     0.487328564  0.535316711  0.500096755
     0.509367518  0.507145988  0.500068389
     0.544363043  0.513527720  0.500029861
     0.569562249  0.489803585  0.500022956
     0.605305833  0.498330791  0.499957845
     0.402215084  0.493683395  0.500027030
     0.617662459  0.486691318  0.521738771
     0.617604141  0.486608937  0.478186137
     0.609981639  0.525315846  0.499907060
     0.563139400  0.463248861  0.500075742
     0.551830896  0.539818378  0.499965771
     0.498156884  0.560342321  0.500087201
     0.436628756  0.552677830  0.500295457
     0.388690258  0.516977301  0.505016333
     0.394325572  0.484274159  0.475300679
     0.394660027  0.474399624  0.518112944
     0.450020341  0.445341626  0.500246778
     0.511059621  0.452304193  0.500105392

  ion indices of the primitive-cell ions
   primitive index   ion index
                 1           1
                 2           2
                 3           3
                 4           4
                 5           5
                 6           6
                 7           7
                 8           8
                 9           9
                10          10
                11          11
                12          12
                13          13
                14          14
                15          15
                16          16
                17          17
                18          18
                19          19
                20          20
                21          21
                22          22

----------------------------------------------------------------------------------------

 
 
 KPOINTS: K-Point Grid                            

Automatic generation of k-mesh.
 Grid dimensions read from file:
 generate k-points for:    1    1    1

 Generating k-lattice:

  Cartesian coordinates                     Fractional coordinates (reciprocal lattice)
     0.025000000  0.000000000  0.000000000     1.000000000  0.000000000  0.000000000
     0.000000000  0.025000000  0.000000000     0.000000000  1.000000000  0.000000000
     0.000000000  0.000000000  0.025000000     0.000000000  0.000000000  1.000000000

  Length of vectors
     0.025000000  0.025000000  0.025000000

  Shift w.r.t. Gamma in fractional coordinates (k-lattice)
     0.000000000  0.000000000  0.000000000

 
 Subroutine IBZKPT returns following result:
 ===========================================
 
 Found      1 irreducible k-points:
 
 Following reciprocal coordinates:
            Coordinates               Weight
  0.000000  0.000000  0.000000      1.000000
 
 Following cartesian coordinates:
            Coordinates               Weight
  0.000000  0.000000  0.000000      1.000000
 
 
 Subroutine IBZKPT_HF returns following result:
 ==============================================
 
 Found      1 k-points in 1st BZ
 the following      1 k-points will be used (e.g. in the exchange kernel)
 Following reciprocal coordinates:   # in IRBZ
  0.000000  0.000000  0.000000    1.00000000   1 t-inv F


--------------------------------------------------------------------------------------------------------




 Dimension of arrays:
   k-points           NKPTS =      1   k-points in BZ     NKDIM =      1   number of bands    NBANDS=     48
   number of dos      NEDOS =    301   number of ions     NIONS =     22
   non local maximal  LDIM  =      4   non local SUM 2l+1 LMDIM =      8
   total plane-waves  NPLWV = ******
   max r-space proj   IRMAX =   2915   max aug-charges    IRDMAX=   4885
   dimension x,y,z NGX =   294 NGY =  294 NGZ =  294
   dimension x,y,z NGXF=   588 NGYF=  588 NGZF=  588
   support grid    NGXF=   588 NGYF=  588 NGZF=  588
   ions per type =              10  12
   NGX,Y,Z   is equivalent  to a cutoff of  12.22, 12.22, 12.22 a.u.
   NGXF,Y,Z  is equivalent  to a cutoff of  24.44, 24.44, 24.44 a.u.

 SYSTEM =  103_red                                 
 POSCAR =  C H                                     

 Startparameter for this run:
   NWRITE =      2    write-flag & timer
   PREC   = accura    normal or accurate (medium, high low for compatibility)
   ISTART =      1    job   : 0-new  1-cont  2-samecut
   ICHARG =      2    charge: 1-file 2-atom 10-const
   ISPIN  =      2    spin polarized calculation?
   LNONCOLLINEAR =      F non collinear calculations
   LSORBIT =      F    spin-orbit coupling
   INIWAV =      1    electr: 0-lowe 1-rand  2-diag
   LASPH  =      F    aspherical Exc in radial PAW
 Electronic Relaxation 1
   ENCUT  =  500.0 eV  36.75 Ry    6.06 a.u.  72.93 72.93 72.93*2*pi/ulx,y,z
   ENINI  =  500.0     initial cutoff
   ENAUG  =  644.9 eV  augmentation charge cutoff
   NELM   =    500;   NELMIN=  2; NELMDL=  0     # of ELM steps 
   EDIFF  = 0.1E-04   stopping-criterion for ELM
   LREAL  =      T    real-space projection
   NLSPLINE    = F    spline interpolate recip. space projectors
   LCOMPAT=      F    compatible to vasp.4.4
   GGA_COMPAT  = T    GGA compatible to vasp.4.4-vasp.4.6
   LMAXPAW     = -100 max onsite density
   LMAXMIX     =    2 max onsite mixed and CHGCAR
   VOSKOWN=      0    Vosko Wilk Nusair interpolation
   ROPT   =   -0.00025  -0.00025
 Ionic relaxation
   EDIFFG = -.2E-01   stopping-criterion for IOM
   NSW    =      0    number of steps for IOM
   NBLOCK =      1;   KBLOCK =      1    inner block; outer block 
   IBRION =     -1    ionic relax: 0-MD 1-quasi-New 2-CG
   NFREE  =      1    steps in history (QN), initial steepest desc. (CG)
   ISIF   =      2    stress and relaxation
   IWAVPR =     10    prediction:  0-non 1-charg 2-wave 3-comb
   ISYM   =      3    0-nonsym 1-usesym 2-fastsym
   LCORR  =      T    Harris-Foulkes like correction to forces

   POTIM  = 0.5000    time-step for ionic-motion
   TEIN   =    0.0    initial temperature
   TEBEG  =    0.0;   TEEND  =   0.0 temperature during run
   SMASS  =  -3.00    Nose mass-parameter (am)
   estimated Nose-frequenzy (Omega)   =  0.10E-29 period in steps = 0.13E+47 mass=  -0.366E-25a.u.
   SCALEE = 1.0000    scale energy and forces
   NPACO  =    256;   APACO  = 10.0  distance and # of slots for P.C.
   PSTRESS=    0.0 pullay stress

  Mass of Ions in am
   POMASS =  12.01  1.00
  Ionic Valenz
   ZVAL   =   4.00  1.00
  Atomic Wigner-Seitz radii
   RWIGS  =  -1.00 -1.00
  virtual crystal weights 
   VCA    =   1.00  1.00
   NELECT =      51.0000    total number of electrons
   NUPDOWN=      -1.0000    fix difference up-down

 DOS related values:
   EMIN   =  10.00;   EMAX   =-10.00  energy-range for DOS
   EFERMI =   0.00;   METHOD = LEGACY      
   ISMEAR =     0;   SIGMA  =   0.05  broadening in eV -4-tet -1-fermi 0-gaus

 Electronic relaxation 2 (details)
   IALGO  =     53    algorithm
   LDIAG  =      F    sub-space diagonalisation (order eigenvalues)
   LSUBROT=      F    optimize rotation matrix (better conditioning)
   TURBO    =      0    0=normal 1=particle mesh
   IRESTART =      0    0=no restart 2=restart with 2 vectors
   NREBOOT  =      0    no. of reboots
   NMIN     =      0    reboot dimension
   EREF     =   0.00    reference energy to select bands
   IMIX   =      4    mixing-type and parameters
     AMIX     =   0.40;   BMIX     =  1.00
     AMIX_MAG =   1.60;   BMIX_MAG =  1.00
     AMIN     =   0.10
     WC   =   100.;   INIMIX=   1;  MIXPRE=   1;  MAXMIX= -45

 Intra band minimization:
   WEIMIN = 0.0000     energy-eigenvalue tresh-hold
   EBREAK =  0.52E-07  absolut break condition
   DEPER  =   0.30     relativ break condition  

   TIME   =   0.40     timestep for ELM

  volume/ion in A,a.u.               =    2909.09     19631.51
  Fermi-wavevector in a.u.,A,eV,Ry     =   0.151777  0.286816  0.313426  0.023036
  Thomas-Fermi vector in A             =   0.830723
 
 Write flags
   LWAVE        =      T    write WAVECAR
   LDOWNSAMPLE  =      F    k-point downsampling of WAVECAR
   LCHARG       =      F    write CHGCAR
   LVTOT        =      F    write LOCPOT, total local potential
   LVHAR        =      F    write LOCPOT, Hartree potential only
   LELF         =      F    write electronic localiz. function (ELF)
   LORBIT       =      0    0 simple, 1 ext, 2 COOP (PROOUT), +10 PAW based schemes


 Dipole corrections
   LMONO  =      F    monopole corrections only (constant potential shift)
   LDIPOL =      F    correct potential (dipole corrections)
   IDIPOL =      0    1-x, 2-y, 3-z, 4-all directions 
   EPSILON=  1.0000000 bulk dielectric constant

 Exchange correlation treatment:
   GGA     =    --    GGA type
   LEXCH   =     8    internal setting for exchange type
   LIBXC   =     F    Libxc                    
   VOSKOWN =     0    Vosko Wilk Nusair interpolation
   EXXOEP  =     0    0=HF, 1=EXX-LHF (local Hartree Fock) 2=EXX OEP
   LHFCALC =     T    Hartree Fock is set to
   LSYMGRAD=     F    symmetrize gradient (conserves proper symmetry)
   PRECFOCK=normal    Normal, Fast or Accurate (Low or Medium for compatibility)
   LRHFCALC=     F    long range Hartree Fock
   LRSCOR  =     F    long range correlation only (use DFT for short range part)
   LTHOMAS =     F    Thomas Fermi screening in HF
   LMODELHF=     F    short range full HF, long range fraction AEXX
   FOCKCORR=     1    mode to apply convergence corrections
   LFOCKACE=     T    use Adeptively-Compressed-Exchange operator
   ENCUT4O =  -1.0   cutoff for four orbital integrals eV
   LMAXFOCK=     4    L truncation for augmentation on plane wave grid
   LMAXFOCKAE=  -1    L truncation for all-electron charge restoration on plane wave grid
   NMAXFOCKAE=   1    number of basis functions for all-electron charge restoration
   LFOCKAEDFT=     F  apply the AE augmentation even for DFT
   NKREDX  =     1    reduce k-point grid by
   NKREDY  =     1    reduce k-point grid by
   NKREDZ  =     1    reduce k-point grid by
   SHIFTRED=     F    shift reduced grid of Gamma
   HFKIDENT=     F    idential grid for each k-point
   ODDONLY =     F    use only odd q-grid points
   EVENONLY=     F    use only even q-grid points
   HFALPHA =   -1.0000 decay constant for conv. correction
   MCALPHA =    0.0000 extent of test-charge in conv. correction in multipole expansion
   AEXX    =    0.2500 exact exchange contribution
   HFSCREEN=    0.2000 screening length (either q_TF or 0.3 A-1)
   HFSCREENC=   0.2000 screening length for correlation (either q_TF or 0.3 A-1)
   HFRCUT  =    0.0000 spherical cutoff for potential kernel
   ALDAX   =    0.7500 LDA exchange part
   AGGAX   =    0.7500 GGA exchange part
   ALDAC   =    1.0000 LDA correlation
   AGGAC   =    1.0000 GGA correlation
   ENCUTFOCK=  -1.0 apply spherical cutoff to Coloumb kernel
   NBANDSGWLOW=     1    first orbital included in HF term
   NBLOCK_FOCK=    64    blocking factor in FOCK_ACC

 Linear response parameters
   LEPSILON=     F    determine dielectric tensor
   LRPA    =     F    only Hartree local field effects (RPA)
   LNABLA  =     F    use nabla operator in PAW spheres
   LVEL    =     F    velocity operator in full k-point grid
   CSHIFT  =0.1000    complex shift for real part using Kramers Kronig
   OMEGAMAX=  -1.0    maximum frequency
   DEG_THRESHOLD= 0.2000000E-02 threshold for treating states as degnerate
   RTIME   =   -0.100 relaxation time in fs
  (WPLASMAI=    0.000 imaginary part of plasma frequency in eV, 0.658/RTIME)
   DFIELD  = 0.0000000 0.0000000 0.0000000 field for delta impulse in time
 
  Optional k-point grid parameters
   LKPOINTS_OPT  =     F    use optional k-point grid
   KPOINTS_OPT_MODE=     1    mode for optional k-point grid
 
 Orbital magnetization related:
   ORBITALMAG=     F  switch on orbital magnetization
   LCHIMAG   =     F  perturbation theory with respect to B field
   DQ        =  0.001000  dq finite difference perturbation B field
   LLRAUG    =     F  two centre corrections for induced B field
   LBONE     =     F  B-component reconstruction in AE one-centre
   LVGVCALC  =     T  calculate vGv susceptibility
   LVGVAPPL  =     F  apply vGv susceptibility instead of pGv for G=0

 Random number generation:
   RANDOM_GENERATOR = DEFAULT
   PCG_SEED         = not used
 Solvation model:
   LSOL    =     T         switch on solvation model
   EB_K    = 35.688000     relative permittivity of the bulk solvent
   SIGMA_K =  0.600000     width of the dielectric cavity
   NC_K    =  0.002500     cutoff charge density
   TAU     =  0.000000     cavity surface tension
   LAMBDA_D_K    =  3.040000     Debye length in Angstroms
   LRHOB     =     F     write boundcharge  density
   LRHOION     =     F     write ioniccharge density



--------------------------------------------------------------------------------------------------------


 Static calculation
 charge density and potential will be updated during run
 spin polarized calculation
 Conjugate gradient for all bands (Kresse, et al. variant)
 perform Loewdin sub-space diagonalisation
    ordering is kept fixed
    before iterative eigenvector-optimisation
 modified Broyden-mixing scheme, WC =      100.0
 initial mixing is a Kerker type mixing with AMIX =  0.4000 and BMIX =      1.0000
 Hartree-type preconditioning will be used
 using additional bands           22
 real space projection scheme for non local part
 use partial core corrections
 no Harris-corrections to forces 
 use gradient corrections 
 use of overlap-Matrix (Vanderbilt PP)
 Gauss-broadening in eV      SIGMA  =   0.05


--------------------------------------------------------------------------------------------------------


  energy-cutoff  :      500.00
  volume of cell :    64000.00
      direct lattice vectors                 reciprocal lattice vectors
    40.000000000  0.000000000  0.000000000     0.025000000  0.000000000  0.000000000
     0.000000000 40.000000000  0.000000000     0.000000000  0.025000000  0.000000000
     0.000000000  0.000000000 40.000000000     0.000000000  0.000000000  0.025000000

  length of vectors
    40.000000000 40.000000000 40.000000000     0.025000000  0.025000000  0.025000000


 
 old parameters found on file WAVECAR:
  energy-cutoff  :      500.00
  volume of cell :    64000.00
      direct lattice vectors                 reciprocal lattice vectors
    40.000000000  0.000000000  0.000000000     0.025000000  0.000000000  0.000000000
     0.000000000 40.000000000  0.000000000     0.000000000  0.025000000  0.000000000
     0.000000000  0.000000000 40.000000000     0.000000000  0.000000000  0.025000000

  length of vectors

 
 k-points in units of 2pi/SCALE and weight: K-Point Grid                            
   0.00000000  0.00000000  0.00000000       1.000
 
 k-points in reciprocal lattice and weights: K-Point Grid                            
   0.00000000  0.00000000  0.00000000       1.000
 
 position of ions in fractional coordinates (direct lattice) 
   0.49500632  0.47430774  0.50010902
   0.46085274  0.47036241  0.50017871
   0.43906638  0.49850016  0.50026468
   0.45317228  0.53102210  0.50020749
   0.48732856  0.53531671  0.50009676
   0.50936752  0.50714599  0.50006839
   0.54436304  0.51352772  0.50002986
   0.56956225  0.48980359  0.50002296
   0.60530583  0.49833079  0.49995785
   0.40221508  0.49368340  0.50002703
   0.61766246  0.48669132  0.52173877
   0.61760414  0.48660894  0.47818614
   0.60998164  0.52531585  0.49990706
   0.56313940  0.46324886  0.50007574
   0.55183090  0.53981838  0.49996577
   0.49815688  0.56034232  0.50008720
   0.43662876  0.55267783  0.50029546
   0.38869026  0.51697730  0.50501633
   0.39432557  0.48427416  0.47530068
   0.39466003  0.47439962  0.51811294
   0.45002034  0.44534163  0.50024678
   0.51105962  0.45230419  0.50010539
 
 position of ions in cartesian coordinates  (Angst):
  19.80025281 18.97230971 20.00436068
  18.43410949 18.81449639 20.00714843
  17.56265521 19.94000642 20.01058717
  18.12689106 21.24088408 20.00829967
  19.49314258 21.41266843 20.00387022
  20.37470074 20.28583953 20.00273556
  21.77452172 20.54110880 20.00119443
  22.78248995 19.59214341 20.00091825
  24.21223331 19.93323164 19.99831382
  16.08860334 19.74733582 20.00108118
  24.70649835 19.46765270 20.86955086
  24.70416566 19.46435748 19.12744547
  24.39926558 21.01263382 19.99628238
  22.52557601 18.52995445 20.00302968
  22.07323583 21.59273513 19.99863084
  19.92627537 22.41369285 20.00348805
  17.46515025 22.10711319 20.01181826
  15.54761030 20.67909205 20.20065331
  15.77302287 19.37096635 19.01202718
  15.78640107 18.97598497 20.72451776
  18.00081364 17.81366505 20.00987113
  20.44238486 18.09216772 20.00421568
 


--------------------------------------------------------------------------------------------------------


 k-point   1 :   0.0000 0.0000 0.0000  plane waves: 1624525

 maximum and minimum number of plane-waves per node :     54169    54136

 maximum number of plane-waves:   1624525
 maximum index in each direction: 
   IXMAX=   72   IYMAX=   72   IZMAX=   72
   IXMIN=  -72   IYMIN=  -72   IZMIN=  -72


 real space projection operators:
  total allocation   :       2420.06 KBytes
  max/ min on nodes  :        117.34         60.53


 parallel 3D FFT for wavefunctions:
    minimum data exchange during FFTs selected (reduces bandwidth)
 parallel 3D FFT for charge:
    minimum data exchange during FFTs selected (reduces bandwidth)


 FFT grid for exact exchange (Hartree Fock) 
  NGX =224; NGY =224; NGZ =224

 
 Radii for the augmentation spheres in the non-local exchange
 for species   1 augmentation radius   0.874 (default was   0.699)
       energy cutoff for augmentation   2000.0
 for species   2 augmentation radius   0.650 (default was   0.520)
       energy cutoff for augmentation   2000.0

 real space projection operators:
  total allocation   :        514.62 KBytes
  max/ min on nodes  :         21.52         11.81

 Maximum index for augmentation-charges in exchange           76
  SETUP_FOCK is finished

 total amount of memory used by VASP MPI-rank0   507201. kBytes
=======================================================================

   base      :      30000. kBytes
   nonlr-proj:       1421. kBytes
   fftplans  :     129164. kBytes
   grid      :     263386. kBytes
   one-center:          6. kBytes
   HF        :          4. kBytes
   wavefun   :      83220. kBytes
 
     INWAV:  cpu time      4.8814: real time      6.2238
 Broyden mixing: mesh for mixing (old mesh)
   NGX =145   NGY =145   NGZ =145
  (NGX  =588   NGY  =588   NGZ  =588)
  gives a total of ****** points

 initial charge density was supplied:
 charge density of overlapping atoms calculated
 number of electron      52.0000000 magnetization      22.0000000
 charge density for first step will be calculated from the start-wavefunctions


--------------------------------------------------------------------------------------------------------


 Maximum index for non-local projection operator          241
 Maximum index for augmentation-charges          329 (set IRDMAX)


--------------------------------------------------------------------------------------------------------


 initial charge from wavefunction
 First call to EWALD:  gamma=   0.044
 Maximum number of real-space cells 3x 3x 3
 Maximum number of reciprocal cells 3x 3x 3

    FEWALD:  cpu time      0.0024: real time      0.0024


--------------------------------------- Ionic step        1  -------------------------------------------




--------------------------------------- Iteration      1(   1)  ---------------------------------------


    POTLOK:  cpu time     88.8266: real time     89.1819
    SETDIJ:  cpu time      0.0662: real time      0.0664
    TRIAL :  cpu time     47.6123: real time     48.6081
    CORREC:  cpu time      0.0017: real time      0.0017
    CHARGE:  cpu time      0.8895: real time      0.8943
    --------------------------------------------
      LOOP:  cpu time    137.4422: real time    138.7992

 eigenvalue-minimisations  :     0
 total energy-change (2. order) :-0.1488712E+03  (-0.1252614E+00)
 number of electron      51.0000001 magnetization       1.0000001
 augmentation part        1.1751502 magnetization       0.0523374

 Free energy of the ion-electron system (eV)
  ---------------------------------------------------
  alpha Z        PSCENC =         0.19061315
  Ewald energy   TEWEN  =      5170.27134601
  -Hartree energ DENC   =     -6277.69629402
  -exchange      EXHF   =       110.99450130
  -V(xc)+E(xc)   XCENC  =       128.79120047
  PAW double counting   =      4236.82578822    -4241.67219813
  entropy T*S    EENTRO =        -0.00000000
  eigenvalues    EBANDS =      -730.34323745
  atomic energy  EATOM  =      1597.80208563
  ---------------------------------------------------
  free energy    TOTEN  =      -148.87118512 eV

  energy without entropy =     -148.87118512  energy(sigma->0) =     -148.87118512
  exchange ACFDT corr.  =        -0.00000000  see jH, gK, PRB 81, 115126


--------------------------------------------------------------------------------------------------------




--------------------------------------- Iteration      1(   2)  ---------------------------------------


    POTLOK:  cpu time     77.7472: real time     78.0251
    SETDIJ:  cpu time      0.0398: real time      0.0399
    TRIAL :  cpu time     47.7704: real time     48.7171
    CORREC:  cpu time      0.0027: real time      0.0027
    CHARGE:  cpu time      0.9291: real time      0.9359
    --------------------------------------------
      LOOP:  cpu time    126.5561: real time    127.7963

 eigenvalue-minimisations  :     0
 total energy-change (2. order) :-0.9490179E-01  (-0.6579777E-01)
 number of electron      51.0000001 magnetization       1.0000001
 augmentation part        1.1681873 magnetization       0.0521281

 Free energy of the ion-electron system (eV)
  ---------------------------------------------------
  alpha Z        PSCENC =         0.19061315
  Ewald energy   TEWEN  =      5170.27134601
  -Hartree energ DENC   =     -6276.54191723
  -exchange      EXHF   =       111.05021607
  -V(xc)+E(xc)   XCENC  =       128.76086155
  PAW double counting   =      4341.57144957    -4346.36569596
  entropy T*S    EENTRO =        -0.00000000
  eigenvalues    EBANDS =      -731.93011819
  atomic energy  EATOM  =      1597.80208563
  ---------------------------------------------------
  free energy    TOTEN  =      -148.96608691 eV

  energy without entropy =     -148.96608691  energy(sigma->0) =     -148.96608691
  exchange ACFDT corr.  =        -0.00000000  see jH, gK, PRB 81, 115126


--------------------------------------------------------------------------------------------------------




--------------------------------------- Iteration      1(   3)  ---------------------------------------


    POTLOK:  cpu time     76.3910: real time     76.6676
    SETDIJ:  cpu time      0.0398: real time      0.0399
    TRIAL :  cpu time     47.0670: real time     48.2205
    CORREC:  cpu time      0.0028: real time      0.0028
    CHARGE:  cpu time      0.8785: real time      0.8851
    --------------------------------------------
      LOOP:  cpu time    124.4040: real time    125.8458

 eigenvalue-minimisations  :     0
 total energy-change (2. order) :-0.4528369E-01  (-0.2114795E-01)
 number of electron      51.0000001 magnetization       1.0000001
 augmentation part        1.1647654 magnetization       0.0518837

 Free energy of the ion-electron system (eV)
  ---------------------------------------------------
  alpha Z        PSCENC =         0.19061315
  Ewald energy   TEWEN  =      5170.27134601
  -Hartree energ DENC   =     -6275.73307103
  -exchange      EXHF   =       111.10149646
  -V(xc)+E(xc)   XCENC  =       128.73311928
  PAW double counting   =      4453.08793461    -4457.83308166
  entropy T*S    EENTRO =        -0.00000000
  eigenvalues    EBANDS =      -732.98917862
  atomic energy  EATOM  =      1597.80208563
  ---------------------------------------------------
  free energy    TOTEN  =      -149.01137060 eV

  energy without entropy =     -149.01137060  energy(sigma->0) =     -149.01137060
  exchange ACFDT corr.  =         0.00000000  see jH, gK, PRB 81, 115126


--------------------------------------------------------------------------------------------------------




--------------------------------------- Iteration      1(   4)  ---------------------------------------


    POTLOK:  cpu time     73.5439: real time     73.8092
    SETDIJ:  cpu time      0.0401: real time      0.0403
    TRIAL :  cpu time     47.7928: real time     48.9167
    CORREC:  cpu time      0.0027: real time      0.0027
    CHARGE:  cpu time      0.9253: real time      0.9320
    --------------------------------------------
      LOOP:  cpu time    122.3559: real time    123.7581

 eigenvalue-minimisations  :     0
 total energy-change (2. order) :-0.1402546E-01  (-0.6390354E-02)
 number of electron      51.0000001 magnetization       1.0000001
 augmentation part        1.1636570 magnetization       0.0516905

 Free energy of the ion-electron system (eV)
  ---------------------------------------------------
  alpha Z        PSCENC =         0.19061315
  Ewald energy   TEWEN  =      5170.27134601
  -Hartree energ DENC   =     -6275.93686416
  -exchange      EXHF   =       111.15257483
  -V(xc)+E(xc)   XCENC  =       128.73640161
  PAW double counting   =      4529.67327832    -4534.39116746
  entropy T*S    EENTRO =        -0.00000000
  eigenvalues    EBANDS =      -732.82394760
  atomic energy  EATOM  =      1597.80208563
  ---------------------------------------------------
  free energy    TOTEN  =      -149.02539605 eV

  energy without entropy =     -149.02539605  energy(sigma->0) =     -149.02539605
  exchange ACFDT corr.  =        -0.00000000  see jH, gK, PRB 81, 115126


--------------------------------------------------------------------------------------------------------




--------------------------------------- Iteration      1(   5)  ---------------------------------------


    POTLOK:  cpu time     70.1398: real time     70.3926
    SETDIJ:  cpu time      0.0396: real time      0.0398
    TRIAL :  cpu time     47.1943: real time     48.3233
    CORREC:  cpu time      0.0017: real time      0.0017
    CHARGE:  cpu time      0.8866: real time      0.8926
    --------------------------------------------
      LOOP:  cpu time    118.3043: real time    119.6977

 eigenvalue-minimisations  :     0
 total energy-change (2. order) :-0.4206497E-02  (-0.2273118E-02)
 number of electron      51.0000001 magnetization       1.0000001
 augmentation part        1.1634882 magnetization       0.0515681

 Free energy of the ion-electron system (eV)
  ---------------------------------------------------
  alpha Z        PSCENC =         0.19061315
  Ewald energy   TEWEN  =      5170.27134601
  -Hartree energ DENC   =     -6276.42337076
  -exchange      EXHF   =       111.19502431
  -V(xc)+E(xc)   XCENC  =       128.75453393
  PAW double counting   =      4569.40994024    -4574.11696952
  entropy T*S    EENTRO =        -0.00000000
  eigenvalues    EBANDS =      -732.30809666
  atomic energy  EATOM  =      1597.80208563
  ---------------------------------------------------
  free energy    TOTEN  =      -149.02960255 eV

  energy without entropy =     -149.02960255  energy(sigma->0) =     -149.02960255
  exchange ACFDT corr.  =         0.00000000  see jH, gK, PRB 81, 115126


--------------------------------------------------------------------------------------------------------




--------------------------------------- Iteration      1(   6)  ---------------------------------------


    POTLOK:  cpu time     70.1744: real time     70.4200
    SETDIJ:  cpu time      0.0377: real time      0.0379
    TRIAL :  cpu time     47.1540: real time     48.2728
    CORREC:  cpu time      0.0038: real time      0.0038
    CHARGE:  cpu time      0.8749: real time      0.8813
    --------------------------------------------
      LOOP:  cpu time    118.2836: real time    119.6627

 eigenvalue-minimisations  :     0
 total energy-change (2. order) :-0.1585554E-02  (-0.1097800E-02)
 number of electron      51.0000001 magnetization       1.0000001
 augmentation part        1.1636015 magnetization       0.0515068

 Free energy of the ion-electron system (eV)
  ---------------------------------------------------
  alpha Z        PSCENC =         0.19061315
  Ewald energy   TEWEN  =      5170.27134601
  -Hartree energ DENC   =     -6276.64051295
  -exchange      EXHF   =       111.21867140
  -V(xc)+E(xc)   XCENC  =       128.76728813
  PAW double counting   =      4584.43264092    -4589.13681142
  entropy T*S    EENTRO =        -0.00000000
  eigenvalues    EBANDS =      -732.06285721
  atomic energy  EATOM  =      1597.80208563
  ---------------------------------------------------
  free energy    TOTEN  =      -149.03118810 eV

  energy without entropy =     -149.03118810  energy(sigma->0) =     -149.03118810
  exchange ACFDT corr.  =        -0.00000000  see jH, gK, PRB 81, 115126


--------------------------------------------------------------------------------------------------------




--------------------------------------- Iteration      1(   7)  ---------------------------------------


    POTLOK:  cpu time     69.0325: real time     69.2560
    SETDIJ:  cpu time      0.0372: real time      0.0373
    TRIAL :  cpu time     47.1457: real time     48.0337
    CORREC:  cpu time      0.0030: real time      0.0030
    CHARGE:  cpu time      0.8972: real time      0.9034
    --------------------------------------------
      LOOP:  cpu time    117.1400: real time    118.2638

 eigenvalue-minimisations  :     0
 total energy-change (2. order) :-0.8227442E-03  (-0.5875783E-03)
 number of electron      51.0000001 magnetization       1.0000001
 augmentation part        1.1637734 magnetization       0.0514739

 Free energy of the ion-electron system (eV)
  ---------------------------------------------------
  alpha Z        PSCENC =         0.19061315
  Ewald energy   TEWEN  =      5170.27134601
  -Hartree energ DENC   =     -6276.61565935
  -exchange      EXHF   =       111.22667149
  -V(xc)+E(xc)   XCENC  =       128.77142277
  PAW double counting   =      4586.05431328    -4590.75863410
  entropy T*S    EENTRO =        -0.00000000
  eigenvalues    EBANDS =      -732.07676213
  atomic energy  EATOM  =      1597.80208563
  ---------------------------------------------------
  free energy    TOTEN  =      -149.03201085 eV

  energy without entropy =     -149.03201085  energy(sigma->0) =     -149.03201085
  exchange ACFDT corr.  =        -0.00000000  see jH, gK, PRB 81, 115126


--------------------------------------------------------------------------------------------------------




--------------------------------------- Iteration      1(   8)  ---------------------------------------


    POTLOK:  cpu time     66.6121: real time     66.7904
    SETDIJ:  cpu time      0.0399: real time      0.0401
    TRIAL :  cpu time     46.8939: real time     48.1335
    CORREC:  cpu time      0.0034: real time      0.0034
    CHARGE:  cpu time      0.9207: real time      0.9267
    --------------------------------------------
      LOOP:  cpu time    114.4896: real time    115.9228

 eigenvalue-minimisations  :     0
 total energy-change (2. order) :-0.4545039E-03  (-0.3054220E-03)
 number of electron      51.0000001 magnetization       1.0000001
 augmentation part        1.1639169 magnetization       0.0514568

 Free energy of the ion-electron system (eV)
  ---------------------------------------------------
  alpha Z        PSCENC =         0.19061315
  Ewald energy   TEWEN  =      5170.27134601
  -Hartree energ DENC   =     -6276.55042765
  -exchange      EXHF   =       111.22786919
  -V(xc)+E(xc)   XCENC  =       128.77193466
  PAW double counting   =      4581.99612281    -4586.70159863
  entropy T*S    EENTRO =        -0.00000000
  eigenvalues    EBANDS =      -732.14306992
  atomic energy  EATOM  =      1597.80208563
  ---------------------------------------------------
  free energy    TOTEN  =      -149.03246535 eV

  energy without entropy =     -149.03246535  energy(sigma->0) =     -149.03246535
  exchange ACFDT corr.  =        -0.00000000  see jH, gK, PRB 81, 115126


--------------------------------------------------------------------------------------------------------




--------------------------------------- Iteration      1(   9)  ---------------------------------------


    POTLOK:  cpu time     63.5680: real time     63.7391
    SETDIJ:  cpu time      0.0369: real time      0.0370
    TRIAL :  cpu time     46.5976: real time     47.8427
    CORREC:  cpu time      0.0031: real time      0.0031
    CHARGE:  cpu time      0.8957: real time      0.9008
    --------------------------------------------
      LOOP:  cpu time    111.1224: real time    112.5494

 eigenvalue-minimisations  :     0
 total energy-change (2. order) :-0.2412470E-03  (-0.1562909E-03)
 number of electron      51.0000001 magnetization       1.0000001
 augmentation part        1.1640137 magnetization       0.0514454

 Free energy of the ion-electron system (eV)
  ---------------------------------------------------
  alpha Z        PSCENC =         0.19061315
  Ewald energy   TEWEN  =      5170.27134601
  -Hartree energ DENC   =     -6276.53289777
  -exchange      EXHF   =       111.22794047
  -V(xc)+E(xc)   XCENC  =       128.77233921
  PAW double counting   =      4576.92678899    -4581.63353439
  entropy T*S    EENTRO =        -0.00000000
  eigenvalues    EBANDS =      -732.16265247
  atomic energy  EATOM  =      1597.80208563
  ---------------------------------------------------
  free energy    TOTEN  =      -149.03270660 eV

  energy without entropy =     -149.03270660  energy(sigma->0) =     -149.03270660
  exchange ACFDT corr.  =        -0.00000000  see jH, gK, PRB 81, 115126


--------------------------------------------------------------------------------------------------------




--------------------------------------- Iteration      1(  10)  ---------------------------------------


    POTLOK:  cpu time     62.6620: real time     62.8361
    SETDIJ:  cpu time      0.0375: real time      0.0376
    TRIAL :  cpu time     47.3201: real time     48.4751
    CORREC:  cpu time      0.0027: real time      0.0027
    CHARGE:  cpu time      0.8887: real time      0.8949
    --------------------------------------------
      LOOP:  cpu time    110.9202: real time    112.2776

 eigenvalue-minimisations  :     0
 total energy-change (2. order) :-0.1268132E-03  (-0.8499676E-04)
 number of electron      51.0000001 magnetization       1.0000001
 augmentation part        1.1640686 magnetization       0.0514327

 Free energy of the ion-electron system (eV)
  ---------------------------------------------------
  alpha Z        PSCENC =         0.19061315
  Ewald energy   TEWEN  =      5170.27134601
  -Hartree energ DENC   =     -6276.53362293
  -exchange      EXHF   =       111.22796170
  -V(xc)+E(xc)   XCENC  =       128.77274481
  PAW double counting   =      4573.03694406    -4577.74464643
  entropy T*S    EENTRO =        -0.00000000
  eigenvalues    EBANDS =      -732.16064017
  atomic energy  EATOM  =      1597.80208563
  ---------------------------------------------------
  free energy    TOTEN  =      -149.03283341 eV

  energy without entropy =     -149.03283341  energy(sigma->0) =     -149.03283341
  exchange ACFDT corr.  =        -0.00000000  see jH, gK, PRB 81, 115126


--------------------------------------------------------------------------------------------------------




--------------------------------------- Iteration      1(  11)  ---------------------------------------


    POTLOK:  cpu time     62.0030: real time     62.1741
    SETDIJ:  cpu time      0.0370: real time      0.0371
    TRIAL :  cpu time     47.6107: real time     48.5343
    CORREC:  cpu time      0.0036: real time      0.0036
    CHARGE:  cpu time      0.8646: real time      0.8708
    --------------------------------------------
      LOOP:  cpu time    110.5388: real time    111.6465

 eigenvalue-minimisations  :     0
 total energy-change (2. order) :-0.7141567E-04  (-0.4977664E-04)
 number of electron      51.0000001 magnetization       1.0000001
 augmentation part        1.1641013 magnetization       0.0514207

 Free energy of the ion-electron system (eV)
  ---------------------------------------------------
  alpha Z        PSCENC =         0.19061315
  Ewald energy   TEWEN  =      5170.27134601
  -Hartree energ DENC   =     -6276.52863097
  -exchange      EXHF   =       111.22792242
  -V(xc)+E(xc)   XCENC  =       128.77284849
  PAW double counting   =      4570.67163475    -4575.37990350
  entropy T*S    EENTRO =        -0.00000000
  eigenvalues    EBANDS =      -732.16261150
  atomic energy  EATOM  =      1597.80208563
  ---------------------------------------------------
  free energy    TOTEN  =      -149.03290483 eV

  energy without entropy =     -149.03290483  energy(sigma->0) =     -149.03290483
  exchange ACFDT corr.  =        -0.00000000  see jH, gK, PRB 81, 115126


--------------------------------------------------------------------------------------------------------




--------------------------------------- Iteration      1(  12)  ---------------------------------------


    POTLOK:  cpu time     59.5460: real time     59.7099
    SETDIJ:  cpu time      0.0392: real time      0.0393
    TRIAL :  cpu time     47.3054: real time     48.2403
    CORREC:  cpu time      0.0027: real time      0.0027
    CHARGE:  cpu time      0.9036: real time      0.9094
    --------------------------------------------
      LOOP:  cpu time    107.8129: real time    108.9249

 eigenvalue-minimisations  :     0
 total energy-change (2. order) :-0.4313759E-04  (-0.3069088E-04)
 number of electron      51.0000001 magnetization       1.0000001
 augmentation part        1.1641247 magnetization       0.0514128

 Free energy of the ion-electron system (eV)
  ---------------------------------------------------
  alpha Z        PSCENC =         0.19061315
  Ewald energy   TEWEN  =      5170.27134601
  -Hartree energ DENC   =     -6276.52269442
  -exchange      EXHF   =       111.22804173
  -V(xc)+E(xc)   XCENC  =       128.77287614
  PAW double counting   =      4569.59290648    -4574.30145398
  entropy T*S    EENTRO =        -0.00000000
  eigenvalues    EBANDS =      -732.16611138
  atomic energy  EATOM  =      1597.80208563
  ---------------------------------------------------
  free energy    TOTEN  =      -149.03294797 eV

  energy without entropy =     -149.03294797  energy(sigma->0) =     -149.03294797
  exchange ACFDT corr.  =        -0.00000000  see jH, gK, PRB 81, 115126


--------------------------------------------------------------------------------------------------------




--------------------------------------- Iteration      1(  13)  ---------------------------------------


    POTLOK:  cpu time     57.2916: real time     57.4475
    SETDIJ:  cpu time      0.0399: real time      0.0400
    TRIAL :  cpu time     47.0058: real time     48.0634
    CORREC:  cpu time      0.0025: real time      0.0025
    CHARGE:  cpu time      0.9309: real time      0.9365
    --------------------------------------------
      LOOP:  cpu time    105.2865: real time    106.5133

 eigenvalue-minimisations  :     0
 total energy-change (2. order) :-0.2728529E-04  (-0.1964561E-04)
 number of electron      51.0000001 magnetization       1.0000001
 augmentation part        1.1641428 magnetization       0.0514083

 Free energy of the ion-electron system (eV)
  ---------------------------------------------------
  alpha Z        PSCENC =         0.19061315
  Ewald energy   TEWEN  =      5170.27134601
  -Hartree energ DENC   =     -6276.52141637
  -exchange      EXHF   =       111.22839627
  -V(xc)+E(xc)   XCENC  =       128.77301783
  PAW double counting   =      4569.31301188    -4574.02168926
  entropy T*S    EENTRO =        -0.00000000
  eigenvalues    EBANDS =      -732.16606359
  atomic energy  EATOM  =      1597.80208563
  ---------------------------------------------------
  free energy    TOTEN  =      -149.03297525 eV

  energy without entropy =     -149.03297525  energy(sigma->0) =     -149.03297525
  exchange ACFDT corr.  =        -0.00000000  see jH, gK, PRB 81, 115126


--------------------------------------------------------------------------------------------------------




--------------------------------------- Iteration      1(  14)  ---------------------------------------


    POTLOK:  cpu time     56.3389: real time     56.4978
    SETDIJ:  cpu time      0.0372: real time      0.0373
    TRIAL :  cpu time     47.2979: real time     48.2027
    CORREC:  cpu time      0.0024: real time      0.0024
    CHARGE:  cpu time      0.8942: real time      0.9006
    --------------------------------------------
      LOOP:  cpu time    104.5773: real time    105.6557

 eigenvalue-minimisations  :     0
 total energy-change (2. order) :-0.1778246E-04  (-0.1306116E-04)
 number of electron      51.0000001 magnetization       1.0000001
 augmentation part        1.1641560 magnetization       0.0514055

 Free energy of the ion-electron system (eV)
  ---------------------------------------------------
  alpha Z        PSCENC =         0.19061315
  Ewald energy   TEWEN  =      5170.27134601
  -Hartree energ DENC   =     -6276.52233305
  -exchange      EXHF   =       111.22880649
  -V(xc)+E(xc)   XCENC  =       128.77319295
  PAW double counting   =      4569.38207980    -4574.09081473
  entropy T*S    EENTRO =        -0.00000000
  eigenvalues    EBANDS =      -732.16461441
  atomic energy  EATOM  =      1597.80208563
  ---------------------------------------------------
  free energy    TOTEN  =      -149.03299303 eV

  energy without entropy =     -149.03299303  energy(sigma->0) =     -149.03299303
  exchange ACFDT corr.  =        -0.00000000  see jH, gK, PRB 81, 115126


--------------------------------------------------------------------------------------------------------




--------------------------------------- Iteration      1(  15)  ---------------------------------------


    POTLOK:  cpu time     55.4826: real time     55.6301
    SETDIJ:  cpu time      0.0375: real time      0.0376
    TRIAL :  cpu time     46.8940: real time     48.0957
    CORREC:  cpu time      0.0024: real time      0.0024
    CHARGE:  cpu time      0.8858: real time      0.8921
    --------------------------------------------
      LOOP:  cpu time    103.3194: real time    104.6807

 eigenvalue-minimisations  :     0
 total energy-change (2. order) :-0.1198622E-04  (-0.8996364E-05)
 number of electron      51.0000001 magnetization       1.0000001
 augmentation part        1.1641654 magnetization       0.0514036

 Free energy of the ion-electron system (eV)
  ---------------------------------------------------
  alpha Z        PSCENC =         0.19061315
  Ewald energy   TEWEN  =      5170.27134601
  -Hartree energ DENC   =     -6276.52300670
  -exchange      EXHF   =       111.22914603
  -V(xc)+E(xc)   XCENC  =       128.77332385
  PAW double counting   =      4569.54192007    -4574.25068018
  entropy T*S    EENTRO =        -0.00000000
  eigenvalues    EBANDS =      -732.16377960
  atomic energy  EATOM  =      1597.80208563
  ---------------------------------------------------
  free energy    TOTEN  =      -149.03300502 eV

  energy without entropy =     -149.03300502  energy(sigma->0) =     -149.03300502
  exchange ACFDT corr.  =        -0.00000000  see jH, gK, PRB 81, 115126


--------------------------------------------------------------------------------------------------------




--------------------------------------- Iteration      1(  16)  ---------------------------------------


    POTLOK:  cpu time     53.9750: real time     54.1231
    SETDIJ:  cpu time      0.0379: real time      0.0381
    TRIAL :  cpu time     47.0278: real time     48.0616
    CORREC:  cpu time      0.0025: real time      0.0025
    CHARGE:  cpu time      0.8820: real time      0.8871
    --------------------------------------------
      LOOP:  cpu time    101.9396: real time    103.1331

 eigenvalue-minimisations  :     0
 total energy-change (2. order) :-0.8342976E-05  (-0.6347823E-05)
 number of electron      51.0000001 magnetization       1.0000001
 augmentation part        1.1641722 magnetization       0.0514022

 Free energy of the ion-electron system (eV)
  ---------------------------------------------------
  alpha Z        PSCENC =         0.19061315
  Ewald energy   TEWEN  =      5170.27134601
  -Hartree energ DENC   =     -6276.52334243
  -exchange      EXHF   =       111.22940095
  -V(xc)+E(xc)   XCENC  =       128.77340951
  PAW double counting   =      4569.68685687    -4574.39562766
  entropy T*S    EENTRO =        -0.00000000
  eigenvalues    EBANDS =      -732.16348957
  atomic energy  EATOM  =      1597.80208563
  ---------------------------------------------------
  free energy    TOTEN  =      -149.03301336 eV

  energy without entropy =     -149.03301336  energy(sigma->0) =     -149.03301336
  exchange ACFDT corr.  =        -0.00000000  see jH, gK, PRB 81, 115126


--------------------------------------------------------------------------------------------------------


  average scaling for gradient   0.9697


 average (electrostatic) potential at core
  the test charge radii are     0.6991  0.5201
  (the norm of the test charge is              1.0000)
       1 -56.0507       2 -55.7755       3 -56.5612       4 -55.7681       5 -56.0421
       6 -56.5894       7 -56.3187       8 -56.6202       9 -55.1349      10 -55.0051
      11 -38.2152      12 -38.2147      13 -37.9665      14 -38.7882      15 -38.6609
      16 -38.5631      17 -38.4037      18 -37.8952      19 -38.1046      20 -38.0146
      21 -38.3992      22 -38.6239
 
 
 
 E-fermi :  -6.7290     XC(G=0):  -0.0275     alpha+bet : -0.0208

 Fermi energy:        -6.7290351557

 spin component 1

 k-point     1 :       0.0000    0.0000    0.0000
  band No.  band energies     occupation 
      1     -24.8838      1.00000
      2     -23.4660      1.00000
      3     -22.1664      1.00000
      4     -21.5400      1.00000
      5     -20.3606      1.00000
      6     -18.8464      1.00000
      7     -17.6927      1.00000
      8     -16.9895      1.00000
      9     -15.9788      1.00000
     10     -14.6975      1.00000
     11     -13.7657      1.00000
     12     -13.2358      1.00000
     13     -12.5095      1.00000
     14     -12.1283      1.00000
     15     -12.2099      1.00000
     16     -12.0810      1.00000
     17     -11.8812      1.00000
     18     -11.0540      1.00000
     19     -10.9119      1.00000
     20     -10.8349      1.00000
     21     -10.4373      1.00000
     22     -10.2164      1.00000
     23      -9.7329      1.00000
     24      -8.9588      1.00000
     25      -7.9359      1.00000
     26      -7.0219      1.00000
     27      -2.8397      0.00000
     28      -1.4745      0.00000
     29      -0.3084      0.00000
     30       0.0656      0.00000
     31      -0.0853      0.00000
     32       0.0279      0.00000
     33       0.0141      0.00000
     34       0.1144      0.00000
     35       0.0985      0.00000
     36       0.1998      0.00000
     37       0.1212      0.00000
     38       0.1421      0.00000
     39       0.1339      0.00000
     40       0.4387      0.00000
     41       0.2402      0.00000
     42       0.1890      0.00000
     43       0.1884      0.00000
     44       0.1911      0.00000
     45       0.1905      0.00000
     46       0.1925      0.00000
     47       0.1924      0.00000
     48       0.1925      0.00000
 Fermi energy:        -6.7290351557

 spin component 2

 k-point     1 :       0.0000    0.0000    0.0000
  band No.  band energies     occupation 
      1     -24.7036      1.00000
      2     -23.1785      1.00000
      3     -21.8879      1.00000
      4     -21.4941      1.00000
      5     -20.3199      1.00000
      6     -18.6703      1.00000
      7     -17.6004      1.00000
      8     -16.8314      1.00000
      9     -15.8443      1.00000
     10     -14.6358      1.00000
     11     -13.7065      1.00000
     12     -13.1649      1.00000
     13     -12.4400      1.00000
     14     -12.1917      1.00000
     15     -12.0226      1.00000
     16     -11.7648      1.00000
     17     -11.4863      1.00000
     18     -10.9810      1.00000
     19     -10.8107      1.00000
     20     -10.5235      1.00000
     21     -10.4015      1.00000
     22     -10.1804      1.00000
     23      -9.6811      1.00000
     24      -8.2927      1.00000
     25      -7.8126      1.00000
     26      -5.3778      0.00000
     27      -1.9828      0.00000
     28      -1.2062      0.00000
     29       0.2083      0.00000
     30      -0.2967      0.00000
     31      -0.0706      0.00000
     32       0.0266      0.00000
     33       0.0144      0.00000
     34       0.0602      0.00000
     35       0.0966      0.00000
     36       0.0977      0.00000
     37       0.1210      0.00000
     38       0.1408      0.00000
     39       0.1354      0.00000
     40       0.1555      0.00000
     41       0.8684      0.00000
     42       0.1890      0.00000
     43       0.1890      0.00000
     44       0.1913      0.00000
     45       0.1924      0.00000
     46       0.1925      0.00000
     47       0.1924      0.00000
     48       0.1905      0.00000


--------------------------------------------------------------------------------------------------------


 soft charge-density along one line, spin component           1
         0         1         2         3         4         5         6         7         8         9
 total charge-density along one line
 
 soft charge-density along one line, spin component           2
         0         1         2         3         4         5         6         7         8         9
 total charge-density along one line
 
 pseudopotential strength for first ion, spin component:           1
 10.053  13.369   0.002   0.000  -0.000  -0.008  -0.000   0.001
 13.369  17.778   0.003   0.000  -0.000  -0.010  -0.000   0.001
  0.002   0.003  -4.259   0.000  -0.001   8.303  -0.000   0.003
  0.000   0.000   0.000  -4.271   0.000  -0.000   8.328  -0.000
 -0.000  -0.000  -0.001   0.000  -4.259   0.003  -0.000   8.303
 -0.008  -0.010   8.303  -0.000   0.003 -18.306   0.000  -0.005
 -0.000  -0.000  -0.000   8.328  -0.000   0.000 -18.358   0.000
  0.001   0.001   0.003  -0.000   8.303  -0.005   0.000 -18.304
 pseudopotential strength for first ion, spin component:           2
 10.041  13.353   0.002   0.000  -0.000  -0.008  -0.000   0.001
 13.353  17.756   0.003   0.000  -0.000  -0.010  -0.000   0.001
  0.002   0.003  -4.259   0.000  -0.002   8.305  -0.000   0.003
  0.000   0.000   0.000  -4.257   0.000  -0.000   8.305  -0.000
 -0.000  -0.000  -0.002   0.000  -4.259   0.003  -0.000   8.304
 -0.008  -0.010   8.305  -0.000   0.003 -18.315   0.000  -0.005
 -0.000  -0.000  -0.000   8.305  -0.000   0.000 -18.323   0.000
  0.001   0.001   0.003  -0.000   8.304  -0.005   0.000 -18.312
 total augmentation occupancy for first ion, spin component:           1
  8.658  -3.879   0.129   0.001  -0.224   0.032   0.000  -0.042
 -3.879   1.775  -0.108  -0.000   0.135  -0.021  -0.000   0.024
  0.129  -0.108   1.782  -0.000   0.014   0.164  -0.000   0.008
  0.001  -0.000  -0.000   1.078  -0.001  -0.000   0.069  -0.000
 -0.224   0.135   0.014  -0.001   1.890   0.008  -0.000   0.177
  0.032  -0.021   0.164  -0.000   0.008   0.016  -0.000   0.002
  0.000  -0.000  -0.000   0.069  -0.000  -0.000   0.005  -0.000
 -0.042   0.024   0.008  -0.000   0.177   0.002  -0.000   0.018
 total augmentation occupancy for first ion, spin component:           2
 -0.003   0.005   0.005  -0.000   0.005   0.001  -0.000   0.001
  0.005  -0.004  -0.006   0.000  -0.005  -0.001   0.000  -0.001
  0.005  -0.006  -0.001  -0.000  -0.002   0.000  -0.000   0.000
 -0.000   0.000  -0.000   0.110  -0.000  -0.000   0.003  -0.000
  0.005  -0.005  -0.002  -0.000   0.002   0.000  -0.000   0.000
  0.001  -0.001   0.000  -0.000   0.000   0.000  -0.000   0.000
 -0.000   0.000  -0.000   0.003  -0.000  -0.000   0.000   0.000
  0.001  -0.001   0.000  -0.000   0.000   0.000   0.000  -0.000


------------------------ aborting loop because EDIFF is reached ----------------------------------------


    FORLOC:  cpu time      0.1310: real time      0.1314
    FORHF :  cpu time     30.5540: real time     30.6678
    FORNL :  cpu time      2.4346: real time      2.4438
    STRESS:  cpu time      7.3880: real time      7.4162
    FORCOR:  cpu time      3.8207: real time      3.8306
    OFIELD:  cpu time      0.0178: real time      0.0179
 WARNING: Using user supplied parameters
     VDW_A1 = 0.383
     VDW_A2 = 5.685
     VDW_S8 = 2.31
     because the xc functional is not supported. Required parameters not
     defined in the INCAR file will be replaced with PBE defaults ones.


 ---------------------------------------------------------------------------------------------

         DFTD3 V3.0 Rev 1        
 IVDW         = 12
 DF unknown   
 parameters
 VDW_S6       =    1.0000
 VDW_S8       =    2.3100
 VDW_A1       =    0.3830
 VDW_A2       =    5.6850
 k1-k3        =   16.0000    1.3333   -4.0000
 VDW_RADIUS   =   50.2022 A
 VDW_CNRADIUS =   21.1671 A
 Edisp (eV)   -0.39848

 E6    (eV) :    -0.2065
 E8    (eV) :    -0.1919
 % E8        : 48.17
    FORVDW:  cpu time      0.0038: real time      0.0038

  FORCE on cell =-STRESS in cart. coord.  units (eV):
  Direction    XX          YY          ZZ          XY          YZ          ZX
  --------------------------------------------------------------------------------------
  Alpha Z     0.19061     0.19061     0.19061
  Ewald    3749.91186  1691.21561  -270.85657     5.22691    -0.27145    -3.18149
  Hartree  3636.28702  1899.79539   740.44133     9.51236    -0.04612    -1.85844
  E(xc)    -138.50634  -138.78278  -140.69633     0.00085    -0.00084    -0.00475
  Local   -7854.89239 -4052.13280  -993.72548   -15.97050     0.29049     4.87076
  n-local   -61.20310   -64.73924   -55.84889     0.10870     0.00575     0.02322
  augment    -2.06575    -2.15479    -2.18433     0.00534     0.00005     0.00076
  Kinetic   715.56156   713.40813   765.83830     0.93549     0.01154     0.16103
  Fock      -45.43538   -45.21639   -40.61855     0.08745    -0.00378     0.00226
  vdW        -0.25809    -0.06792    -0.00299    -0.00274    -0.00006    -0.00022
  -------------------------------------------------------------------------------------
  Total      -0.41000     1.51582     2.53708    -0.09615    -0.01442     0.01313
  in kB      -0.01026     0.03795     0.06351    -0.00241    -0.00036     0.00033
  external pressure =        0.03 kB  Pullay stress =        0.00 kB


 VOLUME and BASIS-vectors are now :
 -----------------------------------------------------------------------------
  energy-cutoff  :      500.00
  volume of cell :    64000.00
      direct lattice vectors                 reciprocal lattice vectors
    40.000000000  0.000000000  0.000000000     0.025000000  0.000000000  0.000000000
     0.000000000 40.000000000  0.000000000     0.000000000  0.025000000  0.000000000
     0.000000000  0.000000000 40.000000000     0.000000000  0.000000000  0.025000000

  length of vectors
    40.000000000 40.000000000 40.000000000     0.025000000  0.025000000  0.025000000


 FORCES acting on ions:
    Electron-Ion                     Ewald-Force                    Non-Local-Force
 -----------------------------------------------------------------------------------------------
   -.620E+02 0.163E+03 0.957E-01   0.617E+02 -.165E+03 -.996E-01   -.621E+00 0.217E+01 0.140E-01
   0.711E+02 0.181E+03 -.161E+00   -.720E+02 -.183E+03 0.203E+00   0.745E+00 0.212E+01 -.133E-01
   0.116E+03 0.114E+02 -.209E+01   -.117E+03 -.114E+02 0.220E+01   0.128E+01 0.122E+00 -.595E-01
   0.109E+03 -.166E+03 -.448E+00   -.111E+03 0.168E+03 0.497E+00   0.134E+01 -.191E+01 -.225E-01
   -.287E+02 -.188E+03 0.318E+00   0.282E+02 0.190E+03 -.327E+00   -.330E+00 -.219E+01 0.203E-01
   -.518E+02 -.182E+02 0.238E+00   0.510E+02 0.180E+02 -.236E+00   0.131E+00 0.238E+00 0.137E-01
   -.863E+02 -.950E+02 0.118E+00   0.865E+02 0.968E+02 -.111E+00   -.561E+00 -.185E+01 -.726E-02
   -.884E+02 0.912E+02 -.219E-01   0.897E+02 -.921E+02 0.221E-01   -.115E+01 0.142E+01 0.457E-02
   -.166E+03 -.839E+01 0.261E+00   0.169E+03 0.101E+02 -.269E+00   -.196E+01 -.135E+01 0.429E-02
   0.189E+03 0.211E+02 -.848E+00   -.192E+03 -.209E+02 0.130E+01   0.197E+01 -.234E+00 -.410E+00
   -.516E+02 0.253E+02 -.498E+02   0.543E+02 -.274E+02 0.540E+02   -.246E+01 0.223E+01 -.419E+01
   -.515E+02 0.255E+02 0.499E+02   0.542E+02 -.276E+02 -.541E+02   -.245E+01 0.224E+01 0.419E+01
   -.406E+02 -.621E+02 0.160E+00   0.419E+02 0.675E+02 -.171E+00   -.104E+01 -.546E+01 0.102E-01
   -.995E+01 0.757E+02 -.120E+00   0.875E+01 -.811E+02 0.131E+00   0.130E+01 0.570E+01 -.114E-01
   -.327E+02 -.769E+02 0.192E+00   0.343E+02 0.822E+02 -.202E+00   -.161E+01 -.557E+01 0.141E-01
   -.215E+02 -.855E+02 0.366E-01   0.235E+02 0.907E+02 -.365E-01   -.226E+01 -.537E+01 0.206E-02
   0.486E+02 -.741E+02 -.233E+00   -.521E+02 0.786E+02 0.255E+00   0.349E+01 -.462E+01 -.179E-01
   0.619E+02 -.491E+02 -.122E+02   -.649E+02 0.536E+02 0.132E+02   0.281E+01 -.466E+01 -.100E+01
   0.479E+02 0.244E+02 0.591E+02   -.497E+02 -.261E+02 -.638E+02   0.160E+01 0.182E+01 0.475E+01
   0.477E+02 0.468E+02 -.437E+02   -.495E+02 -.504E+02 0.473E+02   0.157E+01 0.380E+01 -.356E+01
   0.306E+02 0.831E+02 -.152E+00   -.328E+02 -.882E+02 0.169E+00   0.227E+01 0.532E+01 -.136E-01
   -.344E+02 0.778E+02 -.790E-03   0.374E+02 -.823E+02 0.206E-02   -.335E+01 0.477E+01 0.958E-03
 -----------------------------------------------------------------------------------------------
   -.753E+00 0.138E+01 0.297E+00   -.142E-13 0.000E+00 -.809E-15   0.718E+00 -.126E+01 -.282E+00
 
 
 POSITION                                       TOTAL-FORCE (eV/Angst)
 -----------------------------------------------------------------------------------
     19.80025     18.97231     20.00436        -0.186224      0.097894     -0.002884
     18.43411     18.81450     20.00715         0.069094      0.162816     -0.000455
     17.56266     19.94001     20.01059         0.216888      0.012600      0.004207
     18.12689     21.24088     20.00830         0.091736     -0.117106     -0.000651
     19.49314     21.41267     20.00387        -0.111087     -0.146140     -0.001045
     20.37470     20.28584     20.00274         0.096099      0.020037      0.004864
     21.77452     20.54111     20.00119        -0.162123     -0.071958     -0.007719
     22.78249     19.59214     20.00092        -0.158170      0.085572      0.002775
     24.21223     19.93323     19.99831         0.088569     -0.082394     -0.002141
     16.08860     19.74734     20.00108        -0.004525     -0.059284     -0.043727
     24.70650     19.46765     20.86955        -0.133245      0.113953     -0.153703
     24.70417     19.46436     19.12745        -0.133550      0.116171      0.154504
     24.39927     21.01263     19.99628        -0.043252     -0.233260     -0.000563
     22.52558     18.52995     20.00303         0.066745      0.226582     -0.000803
     22.07324     21.59274     19.99863        -0.055718     -0.218708      0.002881
     19.92628     22.41369     20.00349        -0.103854     -0.218714     -0.000199
     17.46515     22.10711     20.01182         0.144843     -0.174798      0.001699
     15.54761     20.67909     20.20065         0.143257     -0.198279     -0.029301
     15.77302     19.37097     19.01203         0.101877      0.093938      0.186806
     15.78640     18.97598     20.72452         0.095118      0.170505     -0.116081
     18.00081     17.81367     20.00987         0.112461      0.210011      0.001364
     20.44238     18.09217     20.00422        -0.134941      0.210560      0.000172
 -----------------------------------------------------------------------------------
    total drift:                               -0.180425     -0.010652      0.000581


--------------------------------------------------------------------------------------------------------



  FREE ENERGIE OF THE ION-ELECTRON SYSTEM (eV)
  ---------------------------------------------------
  free  energy   TOTEN  =      -149.43149152 eV

  energy  without entropy=     -149.43149152  energy(sigma->0) =     -149.43149152
 


--------------------------------------------------------------------------------------------------------


    POTLOK:  cpu time     52.6710: real time     52.8147


--------------------------------------------------------------------------------------------------------


 writing wavefunctions
     LOOP+:  cpu time   1948.3551: real time   1970.6310
    4ORBIT:  cpu time      0.0000: real time      0.0000

 total amount of memory used by VASP MPI-rank0  1208721. kBytes
=======================================================================

   base      :      30000. kBytes
   nonlr-proj:       3158. kBytes
   fftplans  :     129164. kBytes
   grid      :     263386. kBytes
   one-center:          6. kBytes
   HF        :          4. kBytes
   wavefun   :      83220. kBytes
   fock_wrk  :     699783. kBytes
 
  
  
 General timing and accounting informations for this job:
 ========================================================
  
                  Total CPU time used (sec):     1975.562
                            User time (sec):     1865.466
                          System time (sec):      110.096
                         Elapsed time (sec):     2002.420
  
                   Maximum memory used (kb):     2028836.
                   Average memory used (kb):          N/A
  
                          Minor page faults:       858109
                          Major page faults:           18
                 Voluntary context switches:        63171
