
                                 *****************
                                 * O   R   C   A *
                                 *****************

                                            #,                                       
                                            ###                                      
                                            ####                                     
                                            #####                                    
                                            ######                                   
                                           ########,                                 
                                     ,,################,,,,,                         
                               ,,#################################,,                 
                          ,,##########################################,,             
                       ,#########################################, ''#####,          
                    ,#############################################,,   '####,        
                  ,##################################################,,,,####,       
                ,###########''''           ''''###############################       
              ,#####''   ,,,,##########,,,,          '''####'''          '####       
            ,##' ,,,,###########################,,,                        '##       
           ' ,,###''''                  '''############,,,                           
         ,,##''                                '''############,,,,        ,,,,,,###''
      ,#''                                            '''#######################'''  
     '                                                          ''''####''''         
             ,#######,   #######,   ,#######,      ##                                
            ,#'     '#,  ##    ##  ,#'     '#,    #''#        ,####,   ,####,        
            ##       ##  ##   ,#'  ##            #'  '#       #'       #'  '#        
            ##       ##  #######   ##           ,######,      #####,   #    #        
            '#,     ,#'  ##    ##  '#,     ,#' ,#      #,     #,   #   #,  ,#        
             '#######'   ##     ##  '#######'  #'      '#     '####' # '####'        



                #########################################################
                #                        -***-                          #
                #          Department of theory and spectroscopy        #
                #                                                       #
                #                      Frank Neese                      #
                #                                                       #
                #     Directorship, Architecture, Infrastructure        #
                #                    SHARK, DRIVERS                     #
                #        Core code/Algorithms in most modules           #
                #                                                       #
                #        Max Planck Institute fuer Kohlenforschung      #
                #                Kaiser Wilhelm Platz 1                 #
                #                 D-45470 Muelheim/Ruhr                 #
                #                      Germany                          #
                #                                                       #
                #                  All rights reserved                  #
                #                        -***-                          #
                #########################################################


                         Program Version 6.0.0  -   RELEASE  -


 With contributions from (in alphabetic order):
   Daniel Aravena         : Magnetic Suceptibility
   Michael Atanasov       : Ab Initio Ligand Field Theory (pilot matlab implementation)
   Alexander A. Auer      : GIAO ZORA, VPT2 properties, NMR spectrum
   Ute Becker             : All parallelization in ORCA, NUMFREQ, NUMCALC
   Giovanni Bistoni       : ED, misc. LED, open-shell LED, HFLD
   Martin Brehm           : Molecular dynamics
   Dmytro Bykov           : pre 5.0 version of the SCF Hessian
   Marcos Casanova-Páez   : Triplet and SCS-CIS(D). UHF-(DLPNO)-IP/EA/STEOM-CCSD. UHF-CVS-IP/STEOM-CCSD
   Vijay G. Chilkuri      : MRCI spin determinant printing, contributions to CSF-ICE
   Pauline Colinet        : FMM embedding
   Dipayan Datta          : RHF DLPNO-CCSD density
   Achintya Kumar Dutta   : EOM-CC, STEOM-CC
   Nicolas Foglia         : Exact transition moments, OPA infrastructure, MCD improvements
   Dmitry Ganyushin       : Spin-Orbit,Spin-Spin,Magnetic field MRCI
   Miquel Garcia          : C-PCM and meta-GGA Hessian, CCSD/C-PCM, Gaussian charge scheme
   Tiago L. C. Gouveia    : GS-ROHF, GS-ROCIS
   Yang Guo               : DLPNO-NEVPT2, F12-NEVPT2, CIM, IAO-localization
   Andreas Hansen         : Spin unrestricted coupled pair/coupled cluster methods
   Ingolf Harden          : AUTO-CI MPn and infrastructure 
   Benjamin Helmich-Paris : MC-RPA, TRAH-(SCF,CASSCF), AVAS, COSX integrals, SCF dyn. polar.
   Lee Huntington         : MR-EOM, pCC
   Robert Izsak           : Overlap fitted RIJCOSX, COSX-SCS-MP3, EOM
   Riya Kayal             : Wick's Theorem for AUTO-CI, AUTO-CI UHF-CCSDT
   Emily Kempfer          : AUTO-CI, RHF CISDT and CCSDT
   Christian Kollmar      : KDIIS, OOCD, Brueckner-CCSD(T), CCSD density, CASPT2, CASPT2-K, improved NEVPT2
   Axel Koslowski         : Symmetry handling
   Simone Kossmann        : Meta GGA functionals, TD-DFT gradient, OOMP2, (MP2 Hessian; deprecated post 5.0)
   Lucas Lang             : DCDCAS
   Marvin Lechner         : AUTO-CI (C++ implementation), FIC-MRCC
   Spencer Leger          : CASSCF response
   Dagmar Lenk            : GEPOL surface, SMD, ORCA-2-JSON
   Dimitrios Liakos       : Extrapolation schemes; Compound Job, initial MDCI parallelization
   Dimitrios Manganas     : Further ROCIS development; embedding schemes. LFT, Crystal Embedding
   Dimitrios Pantazis     : SARC Basis sets
   Anastasios Papadopoulos: AUTO-CI, single reference methods and gradients
   Taras Petrenko         : pre 6.0 DFT Hessian and TD-DFT gradient, (ASA, deprecated), ECA, 1-Electron XAS/XES, NRVS
   Peter Pinski           : DLPNO-MP2, DLPNO-MP2 Gradient
   Christoph Reimann      : Effective Core Potentials
   Marius Retegan         : Local ZFS, SOC
   Christoph Riplinger    : Optimizer, TS searches, QM/MM, DLPNO-CCSD(T), (RO)-DLPNO pert. Triples
   Michael Roemelt        : Original ROCIS implementation
   Masaaki Saitow         : Open-shell DLPNO-CCSD energy and density
   Barbara Sandhoefer     : DKH picture change effects
   Kantharuban Sivalingam : CASSCF convergence/infrastructure, NEVPT2 and variants, FIC-MRCI
   Bernardo de Souza      : ESD, SOC TD-DFT
   Georgi Stoychev        : AutoAux, RI-MP2 NMR, DLPNO-MP2 response, X2C
   Van Anh Tran           : RI-MP2 g-tensors
   Willem Van den Heuvel  : Paramagnetic NMR
   Zikuan Wang            : NOTCH, Electric field optimization 
   Frank Wennmohs         : Technical directorship and infrastructure
   Hang Xu                : AUTO-CI-Response properties 


 We gratefully acknowledge several colleagues who have allowed us to
 interface, adapt or use parts of their codes:
   Stefan Grimme, W. Hujo, H. Kruse, P. Pracht,  : VdW corrections, initial TS optimization,
                  C. Bannwarth, S. Ehlert,         DFT functionals, gCP, sTDA/sTD-DF
                  L. Wittmann, M. Mueller
   Ed Valeev, F. Pavosevic, A. Kumar             : LibInt (2-el integral package), F12 methods
   Garnet Chan, S. Sharma, J. Yang, R. Olivares  : DMRG
   Ulf Ekstrom                                   : XCFun DFT Library
   Mihaly Kallay                                 : mrcc  (arbitrary order and MRCC methods)
   Frank Weinhold                                : gennbo (NPA and NBO analysis)
   Simon Mueller                                 : openCOSMO-RS
   Christopher J. Cramer and Donald G. Truhlar   : smd solvation model
   Lars Goerigk                                  : TD-DFT with DH, B97 family of functionals
   V. Asgeirsson, H. Jonsson                     : NEB implementation
   FAccTs GmbH                                   : IRC, NEB, NEB-TS, DLPNO-Multilevel, CI-OPT
                                                   MM, QMMM, 2- and 3-layer-ONIOM, Crystal-QMMM,
                                                   LR-CPCM, SF, NACMEs, symmetry and pop. for TD-DFT,
                                                   nearIR, NL-DFT gradient (VV10), updates on ESD,
                                                   ML-optimized integration grids, MBIS, APM,
                                                   GOAT, DOCKER, SOLVATOR, interface openCOSMO-RS
   S Lehtola, MJT Oliveira, MAL Marques          : LibXC Library
   Liviu Ungur et al                             : ANISO software


 Your calculation uses the libint2 library for the computation of 2-el integrals
 For citations please refer to: http://libint.valeyev.net

 Your ORCA version has been built with support for libXC version: 6.2.2
 For citations please refer to: https://libxc.gitlab.io

 This ORCA versions uses:
   CBLAS   interface :  Fast vector & matrix operations
   LAPACKE interface :  Fast linear algebra routines
   SCALAPACK package :  Parallel linear algebra routines
   Shared memory     :  Shared parallel matrices
   BLAS/LAPACK       :  OpenBLAS 0.3.27  USE64BITINT DYNAMIC_ARCH NO_AFFINITY SkylakeX SINGLE_THREADED
        Core in use  :  SkylakeX
   Copyright (c) 2011-2014, The OpenBLAS Project


NOTE: MaxCore=3000 MB was set to SCF,MP2,MDCI,CIPSI,MRCI and CIS
      => If you want to overwrite this, your respective input block should be placed after the MaxCore statement
Your calculation utilizes the atom-pairwise dispersion correction
with the Becke-Johnson damping scheme (D3BJ)


Warning: RI is on but no J-basis has been assigned. Assigning Def2/J (nothing to worry about!)
================================================================================

----- Orbital basis set information -----
Your calculation utilizes the basis: def2-SV(P)
   F. Weigend and R. Ahlrichs, Phys. Chem. Chem. Phys. 7, 3297 (2005).

----- AuxJ basis set information -----
Your calculation utilizes the auxiliary basis: def2/J
   F. Weigend, Phys. Chem. Chem. Phys. 8, 1057 (2006).

================================================================================
                                        WARNINGS
                       Please study these warnings very carefully!
================================================================================


WARNING: your system is open-shell and RHF/RKS was chosen
  ===> : WILL SWITCH to UHF/UKS


WARNING: Geometry Optimization
  ===> : Switching off AutoStart
         For restart on a previous wavefunction, please use MOREAD

================================================================================
                                       INPUT FILE
================================================================================
NAME = cs_rporg_016_ox_opt_01.inp
|  1> !PBE0 def2-SV(p) Opt Freq d3 TightSCF SlowConv RIJCOSX defgrid2
|  2>  
|  3> %pal
|  4> nprocs 4
|  5> end
|  6>  
|  7> %scf
|  8> MaxIter 1500
|  9> end
| 10>  
| 11> %maxcore 3000
| 12>  
| 13> 
| 14>  
| 15> * xyz 1 2
| 16> C    -1.2081014    0.6404365    0.0039720 
| 17> C    -0.0180421    1.3711864    0.0040863 
| 18> C     1.2149467    0.7440125   -0.0993567 
| 19> C     1.2080997   -0.6404235   -0.0038991 
| 20> C     0.0180471   -1.3711824   -0.0040422 
| 21> C    -1.2149468   -0.7440023    0.0994599 
| 22> H    -2.1345220   -1.3064644    0.1095729 
| 23> H     0.0418960   -2.4445280   -0.1631680 
| 24> H     2.1510390   -1.1506237    0.1675234 
| 25> H     2.1345222    1.3064738   -0.1094991 
| 26> H    -0.0418768    2.4445130    0.1630137 
| 27> H    -2.1510626    1.1506692   -0.1675449
| 28> *
| 29> 
| 30>                          ****END OF INPUT****
================================================================================

                       *****************************
                       * Geometry Optimization Run *
                       *****************************

Geometry optimization settings:
Update method            Update   .... BFGS
Choice of coordinates    CoordSys .... (2022) Redundant Internals
Initial Hessian          InHess   .... Almloef's Model
Max. no of cycles        MaxIter  .... 50

Convergence Tolerances:
Energy Change            TolE     ....  5.0000e-06 Eh
Max. Gradient            TolMAXG  ....  3.0000e-04 Eh/bohr
RMS Gradient             TolRMSG  ....  1.0000e-04 Eh/bohr
Max. Displacement        TolMAXD  ....  4.0000e-03 bohr
RMS Displacement         TolRMSD  ....  2.0000e-03 bohr
Strict Convergence                .... False

------------------------------------------------------------------------------
                        ORCA OPTIMIZATION COORDINATE SETUP
------------------------------------------------------------------------------

The optimization will be done in redundant internal coordinates (2022)
Making redundant internal coordinates   ...  (2022 redundants) done
Evaluating the initial hessian          ...  (Almloef) done
Evaluating the coordinates              ...  done
Calculating the B-matrix                .... done
Calculating the G-matrix                .... done
Diagonalizing the G-matrix              .... done
The first mode is                       ....   24
The number of degrees of freedom        ....   30

    -----------------------------------------------------------------
                    Redundant Internal Coordinates


    -----------------------------------------------------------------
         Definition                    Initial Value    Approx d2E/dq
    -----------------------------------------------------------------
      1. B(C   1,C   0)                  1.3965         0.610034   
      2. B(C   2,C   1)                  1.3872         0.631269   
      3. B(C   3,C   2)                  1.3877         0.630006   
      4. B(C   4,C   3)                  1.3965         0.610037   
      5. B(C   5,C   4)                  1.3872         0.631242   
      6. B(C   5,C   0)                  1.3877         0.629994   
      7. B(H   6,C   5)                  1.0780         0.376329   
      8. B(H   7,C   4)                  1.0853         0.366319   
      9. B(H   8,C   3)                  1.0857         0.365784   
     10. B(H   9,C   2)                  1.0780         0.376329   
     11. B(H  10,C   1)                  1.0853         0.366384   
     12. B(H  11,C   0)                  1.0858         0.365718   
     13. A(C   1,C   0,H  11)          119.6164         0.352866   
     14. A(C   1,C   0,C   5)          121.7504         0.434049   
     15. A(C   5,C   0,H  11)          118.3845         0.354796   
     16. A(C   0,C   1,H  10)          119.9205         0.352974   
     17. A(C   2,C   1,H  10)          118.5270         0.355027   
     18. A(C   0,C   1,C   2)          121.3895         0.434207   
     19. A(C   3,C   2,H   9)          121.6937         0.356523   
     20. A(C   1,C   2,C   3)          116.2013         0.436733   
     21. A(C   1,C   2,H   9)          121.5347         0.356644   
     22. A(C   4,C   3,H   8)          119.6176         0.352877   
     23. A(C   2,C   3,C   4)          121.7509         0.434051   
     24. A(C   2,C   3,H   8)          118.3833         0.354807   
     25. A(C   5,C   4,H   7)          118.5282         0.355013   
     26. A(C   3,C   4,C   5)          121.3886         0.434204   
     27. A(C   3,C   4,H   7)          119.9195         0.352964   
     28. A(C   0,C   5,H   6)          121.6935         0.356522   
     29. A(C   0,C   5,C   4)          116.2010         0.436729   
     30. A(C   4,C   5,H   6)          121.5343         0.356642   
     31. D(H  10,C   1,C   0,C   5)   -165.6314         0.025702   
     32. D(H  10,C   1,C   0,H  11)     20.1908         0.025702   
     33. D(C   2,C   1,C   0,H  11)   -164.5193         0.025702   
     34. D(C   2,C   1,C   0,C   5)      9.6585         0.025702   
     35. D(H   9,C   2,C   1,C   0)    179.3747         0.027637   
     36. D(C   3,C   2,C   1,C   0)     -9.1478         0.027637   
     37. D(C   3,C   2,C   1,H  10)    166.2059         0.027637   
     38. D(H   9,C   2,C   1,H  10)     -5.2716         0.027637   
     39. D(H   8,C   3,C   2,H   9)      6.3955         0.027520   
     40. D(H   8,C   3,C   2,C   1)   -165.0673         0.027520   
     41. D(C   4,C   3,C   2,H   9)   -179.3521         0.027520   
     42. D(C   4,C   3,C   2,C   1)      9.1850         0.027520   
     43. D(H   7,C   4,C   3,C   2)    165.6210         0.025702   
     44. D(C   5,C   4,C   3,H   8)    164.5217         0.025702   
     45. D(C   5,C   4,C   3,C   2)     -9.6613         0.025702   
     46. D(H   7,C   4,C   3,H   8)    -20.1959         0.025702   
     47. D(H   6,C   5,C   4,H   7)      5.2787         0.027635   
     48. D(C   0,C   5,C   4,H   7)   -166.1930         0.027635   
     49. D(C   0,C   5,C   4,C   3)      9.1532         0.027635   
     50. D(H   6,C   5,C   0,H  11)     -6.3976         0.027519   
     51. D(H   6,C   5,C   0,C   1)    179.3554         0.027519   
     52. D(H   6,C   5,C   4,C   3)   -179.3752         0.027635   
     53. D(C   4,C   5,C   0,H  11)    165.0594         0.027519   
     54. D(C   4,C   5,C   0,C   1)     -9.1877         0.027519   
    -----------------------------------------------------------------

Number of atoms                         .... 12
Number of degrees of freedom            .... 54


         *************************************************************
         *                GEOMETRY OPTIMIZATION CYCLE   1            *
         *************************************************************
---------------------------------
CARTESIAN COORDINATES (ANGSTROEM)
---------------------------------
  C     -1.208101    0.640436    0.003972
  C     -0.018042    1.371186    0.004086
  C      1.214947    0.744012   -0.099357
  C      1.208100   -0.640424   -0.003899
  C      0.018047   -1.371182   -0.004042
  C     -1.214947   -0.744002    0.099460
  H     -2.134522   -1.306464    0.109573
  H      0.041896   -2.444528   -0.163168
  H      2.151039   -1.150624    0.167523
  H      2.134522    1.306474   -0.109499
  H     -0.041877    2.444513    0.163014
  H     -2.151063    1.150669   -0.167545

----------------------------
CARTESIAN COORDINATES (A.U.)
----------------------------
  NO LB      ZA    FRAG     MASS         X           Y           Z
   0 C     6.0000    0    12.011   -2.282981    1.210250    0.007506
   1 C     6.0000    0    12.011   -0.034095    2.591167    0.007722
   2 C     6.0000    0    12.011    2.295917    1.405980   -0.187757
   3 C     6.0000    0    12.011    2.282978   -1.210225   -0.007368
   4 C     6.0000    0    12.011    0.034104   -2.591159   -0.007639
   5 C     6.0000    0    12.011   -2.295917   -1.405961    0.187952
   6 H     1.0000    0     1.008   -4.033662   -2.468860    0.207063
   7 H     1.0000    0     1.008    0.079172   -4.619488   -0.308343
   8 H     1.0000    0     1.008    4.064875   -2.174364    0.316573
   9 H     1.0000    0     1.008    4.033662    2.468878   -0.206923
  10 H     1.0000    0     1.008   -0.079136    4.619460    0.308051
  11 H     1.0000    0     1.008   -4.064919    2.174450   -0.316614

--------------------------------
INTERNAL COORDINATES (ANGSTROEM)
--------------------------------
 C      0   0   0     0.000000000000     0.00000000     0.00000000
 C      1   0   0     1.396508706357     0.00000000     0.00000000
 C      2   1   0     1.387194628023   121.38945071     0.00000000
 C      3   2   1     1.387739915439   116.20125417   350.85219282
 C      4   3   2     1.396507708956   121.75092152     9.18503890
 C      5   4   3     1.387206372526   121.38864772   350.33867467
 H      6   5   4     1.078000201837   121.53430918   180.62482618
 H      5   4   3     1.085338918171   119.91954620   165.62103894
 H      4   3   2     1.085736819432   118.38332066   194.93269785
 H      3   2   1     1.078000316547   121.53469807   179.37467287
 H      2   1   3     1.085290745221   119.92048851   184.71010248
 H      1   2   3     1.085786019361   119.61643042   195.48067110

---------------------------
INTERNAL COORDINATES (A.U.)
---------------------------
 C      0   0   0     0.000000000000     0.00000000     0.00000000
 C      1   0   0     2.639018998651     0.00000000     0.00000000
 C      2   1   0     2.621417941410   121.38945071     0.00000000
 C      3   2   1     2.622448385291   116.20125417   350.85219282
 C      4   3   2     2.639017113837   121.75092152     9.18503890
 C      5   4   3     2.621440135305   121.38864772   350.33867467
 H      6   5   4     2.037125153784   121.53430918   180.62482618
 H      5   4   3     2.050993317829   119.91954620   165.62103894
 H      4   3   2     2.051745242242   118.38332066   194.93269785
 H      3   2   1     2.037125370554   121.53469807   179.37467287
 H      2   1   3     2.050902284147   119.92048851   184.71010248
 H      1   2   3     2.051838216633   119.61643042   195.48067110

---------------------
BASIS SET INFORMATION
---------------------
There are 2 groups of distinct atoms

 Group   1 Type C   : 7s4p1d contracted to 3s2p1d pattern {511/31/1}
 Group   2 Type H   : 4s contracted to 2s pattern {31}

Atom   0C    basis set group =>   1
Atom   1C    basis set group =>   1
Atom   2C    basis set group =>   1
Atom   3C    basis set group =>   1
Atom   4C    basis set group =>   1
Atom   5C    basis set group =>   1
Atom   6H    basis set group =>   2
Atom   7H    basis set group =>   2
Atom   8H    basis set group =>   2
Atom   9H    basis set group =>   2
Atom  10H    basis set group =>   2
Atom  11H    basis set group =>   2
---------------------------------
AUXILIARY/J BASIS SET INFORMATION
---------------------------------
There are 2 groups of distinct atoms

 Group   1 Type C   : 12s5p4d2f1g contracted to 6s4p3d1f1g pattern {711111/2111/211/2/1}
 Group   2 Type H   : 5s2p1d contracted to 3s1p1d pattern {311/2/1}

Atom   0C    basis set group =>   1
Atom   1C    basis set group =>   1
Atom   2C    basis set group =>   1
Atom   3C    basis set group =>   1
Atom   4C    basis set group =>   1
Atom   5C    basis set group =>   1
Atom   6H    basis set group =>   2
Atom   7H    basis set group =>   2
Atom   8H    basis set group =>   2
Atom   9H    basis set group =>   2
Atom  10H    basis set group =>   2
Atom  11H    basis set group =>   2


           ************************************************************
           *        Program running with 4 parallel MPI-processes     *
           *              working on a common directory               *
           ************************************************************
------------------------------------------------------------------------------
                             ORCA STARTUP CALCULATIONS
                           -- RI-GTO INTEGRALS CHOSEN --
------------------------------------------------------------------------------
------------------------------------------------------------------------------
                   ___                                                        
                  /   \      - P O W E R E D   B Y -                         
                 /     \                                                     
                 |  |  |   _    _      __       _____    __    __             
                 |  |  |  | |  | |    /  \     |  _  \  |  |  /  |          
                  \  \/   | |  | |   /    \    | | | |  |  | /  /          
                 / \  \   | |__| |  /  /\  \   | |_| |  |  |/  /          
                |  |  |   |  __  | /  /__\  \  |    /   |      \           
                |  |  |   | |  | | |   __   |  |    \   |  |\   \          
                \     /   | |  | | |  |  |  |  | |\  \  |  | \   \       
                 \___/    |_|  |_| |__|  |__|  |_| \__\ |__|  \__/        
                                                                              
                      - O R C A' S   B I G   F R I E N D -                    
                                      &                                       
                       - I N T E G R A L  F E E D E R -                       
                                                                              
 v1 FN, 2020, v2 2021, v3 2022-2024                                           
------------------------------------------------------------------------------


----------------------
SHARK INTEGRAL PACKAGE
----------------------

Number of atoms                             ...     12
Number of basis functions                   ...     96
Number of shells                            ...     48
Maximum angular momentum                    ...      2
Integral batch strategy                     ... SHARK/LIBINT Hybrid
RI-J (if used) integral strategy            ... SPLIT-RIJ (Revised 2003 algorithm where possible)
Printlevel                                  ...      1
Contraction scheme used                     ... SEGMENTED contraction
Prescreening option                         ... SCHWARTZ
   Thresh                                   ... 2.500e-11
   Tcut                                     ... 2.500e-12
   Tpresel                                  ... 2.500e-12 
Coulomb Range Separation                    ... NOT USED
Exchange Range Separation                   ... NOT USED
Multipole approximations                    ... NOT USED
Finite Nucleus Model                        ... NOT USED
CABS basis                                  ... NOT available
Auxiliary Coulomb fitting basis             ... AVAILABLE
   # of basis functions in Aux-J            ...    360
   # of shells in Aux-J                     ...    120
   Maximum angular momentum in Aux-J        ...      4
Auxiliary J/K fitting basis                 ... NOT available
Auxiliary Correlation fitting basis         ... NOT available
Auxiliary 'external' fitting basis          ... NOT available

Checking pre-screening integrals            ... done (  0.0 sec) Dimension = 48
Check shell pair data                       ... done (  0.0 sec)
Shell pair information
Shell pair cut-off parameter TPreSel        ...   2.5e-12
Total number of shell pairs                 ...      1176
Shell pairs after pre-screening             ...      1167
Total number of primitive shell pairs       ...      4752
Primitive shell pairs kept                  ...      3684
          la=0 lb=0:    456 shell pairs
          la=1 lb=0:    360 shell pairs
          la=1 lb=1:     78 shell pairs
          la=2 lb=0:    180 shell pairs
          la=2 lb=1:     72 shell pairs
          la=2 lb=2:     21 shell pairs

Calculating one electron integrals          ... done (  0.0 sec)
Calculating RI/J V-Matrix + Cholesky decomp.... done (  0.1 sec)
Calculating Nuclear repulsion               ... done (  0.0 sec) ENN=    204.222250418061 Eh

Diagonalization of the overlap matrix:
Smallest eigenvalue                        ... 4.275e-04
Time for diagonalization                   ...    0.001 sec
Threshold for overlap eigenvalues          ... 1.000e-07
Number of eigenvalues below threshold      ... 0
Time for construction of square roots      ...    0.032 sec
Total time needed                          ...    0.077 sec

-------------------
DFT GRID GENERATION
-------------------

General Integration Accuracy     IntAcc      ... 4.388
Radial Grid Type                 RadialGrid  ... OptM3 with GC (2021)
Angular Grid (max. ang.)         AngularGrid ... 4 (Lebedev-302)
Angular grid pruning method      GridPruning ... 4 (adaptive)
Weight generation scheme         WeightScheme... mBecke (2022)
Basis function cutoff            BFCut       ... 1.0000e-11
Integration weight cutoff        WCut        ... 1.0000e-14
Partially contracted basis set               ... off
Rotationally invariant grid construction     ... off
Angular grids for H and He will be reduced by one unit

Total number of grid points                  ...    55524
Total number of batches                      ...      874
Average number of points per batch           ...       63
Average number of grid points per atom       ...     4627

--------------------
COSX GRID GENERATION
--------------------

GRIDX 1
-------
General Integration Accuracy     IntAcc      ... 3.816
Radial Grid Type                 RadialGrid  ... OptM3 with GC (2021)
Angular Grid (max. ang.)         AngularGrid ... 1 (Lebedev-50)
Angular grid pruning method      GridPruning ... 4 (adaptive)
Weight generation scheme         WeightScheme... mBecke (2022)
Basis function cutoff            BFCut       ... 1.0000e-11
Integration weight cutoff        WCut        ... 1.0000e-14
Partially contracted basis set               ... on
Rotationally invariant grid construction     ... off
Angular grids for H and He will be reduced by one unit

Total number of grid points                  ...     7140
Total number of batches                      ...       60
Average number of points per batch           ...      119
Average number of grid points per atom       ...      595
UseSFitting                                  ... on

GRIDX 2
-------
General Integration Accuracy     IntAcc      ... 4.020
Radial Grid Type                 RadialGrid  ... OptM3 with GC (2021)
Angular Grid (max. ang.)         AngularGrid ... 2 (Lebedev-110)
Angular grid pruning method      GridPruning ... 4 (adaptive)
Weight generation scheme         WeightScheme... mBecke (2022)
Basis function cutoff            BFCut       ... 1.0000e-11
Integration weight cutoff        WCut        ... 1.0000e-14
Partially contracted basis set               ... on
Rotationally invariant grid construction     ... off
Angular grids for H and He will be reduced by one unit

Total number of grid points                  ...    15474
Total number of batches                      ...      126
Average number of points per batch           ...      122
Average number of grid points per atom       ...     1290
UseSFitting                                  ... on

GRIDX 3
-------
General Integration Accuracy     IntAcc      ... 4.338
Radial Grid Type                 RadialGrid  ... OptM3 with GC (2021)
Angular Grid (max. ang.)         AngularGrid ... 3 (Lebedev-194)
Angular grid pruning method      GridPruning ... 4 (adaptive)
Weight generation scheme         WeightScheme... mBecke (2022)
Basis function cutoff            BFCut       ... 1.0000e-11
Integration weight cutoff        WCut        ... 1.0000e-14
Partially contracted basis set               ... on
Rotationally invariant grid construction     ... off
Angular grids for H and He will be reduced by one unit

Total number of grid points                  ...    34062
Total number of batches                      ...      272
Average number of points per batch           ...      125
Average number of grid points per atom       ...     2838
UseSFitting                                  ... on
Initializing property integral containers    ... done (  0.1 sec)

SHARK setup successfully completed in   1.8 seconds

Maximum memory used throughout the entire STARTUP-calculation: 15.4 MB


           ************************************************************
           *        Program running with 4 parallel MPI-processes     *
           *              working on a common directory               *
           ************************************************************
-------------------------------------------------------------------------------
                                 ORCA GUESS
                   Start orbitals & Density for SCF / CASSCF
-------------------------------------------------------------------------------

------------
SCF SETTINGS
------------
Hamiltonian:
 Density Functional     Method          .... DFT(GTOs)
 Exchange Functional    Exchange        .... PBE
   PBE kappa parameter   XKappa         ....  0.804000
   PBE mue parameter    XMuePBE         ....  0.219520
 Correlation Functional Correlation     .... PBE
   PBE beta parameter  CBetaPBE         ....  0.066725
 LDA part of GGA corr.  LDAOpt          .... PW91-LDA
 Gradients option       PostSCFGGA      .... off
 Hybrid DFT is turned on
   Fraction HF Exchange ScalHFX         ....  0.250000
   Scaling of DF-GGA-X  ScalDFX         ....  0.750000
   Scaling of DF-GGA-C  ScalDFC         ....  1.000000
   Scaling of DF-LDA-C  ScalLDAC        ....  1.000000
   Perturbative correction              ....  0.000000
   NL short-range parameter             ....  6.900000
 RI-approximation to the Coulomb term is turned on
   Number of AuxJ basis functions       .... 360
   RIJ-COSX (HFX calculated with COS-X)).... on


General Settings:
 Integral files         IntName         .... cs_rporg_016_ox_opt_01
 Hartree-Fock type      HFTyp           .... UHF
 Total Charge           Charge          ....    1
 Multiplicity           Mult            ....    2
 Number of Electrons    NEL             ....   41
 Basis Dimension        Dim             ....   96
 Nuclear Repulsion      ENuc            ....    204.2222504181 Eh

Convergence Acceleration:
 AO-DIIS                CNVDIIS         .... on
   Start iteration      DIISMaxIt       ....     0
   Startup error        DIISStart       ....  0.200000
   # of expansion vecs  DIISMaxEq       ....     5
   Bias factor          DIISBfac        ....   1.050
   Max. coefficient     DIISMaxC        ....  10.000
 MO-DIIS                CNVKDIIS        .... off
 Trust-Rad. Augm. Hess. CNVTRAH         .... auto
   Auto Start mean grad. ratio tolernc. ....  1.125000
   Auto Start start iteration           ....    50
   Auto Start num. interpolation iter.  ....    10
   Max. Number of Micro iterations      ....    24
   Max. Number of Macro iterations      .... Maxiter - #DIIS iter
   Number of Davidson start vectors     ....     2
   Converg. threshold    (grad. norm)   ....   1.000e-05
   Grad. Scal. Fac. for Micro threshold ....   0.100
   Minimum threshold for Micro iter.    ....   1.000e-02
   NR start threshold (gradient norm)   ....   1.000e-04
   Initial trust radius                 ....   0.400
   Minimum AH scaling param. (alpha)    ....   1.000
   Maximum AH scaling param. (alpha)    .... 1000.000
   Quad. conv. algorithm                .... NR
   White noise on init. David. guess    .... on
   Maximum white noise                  ....   0.010
   Pseudo random numbers                .... off
   Inactive MOs                         .... canonical
   Orbital update algorithm             .... Taylor
   Preconditioner                       .... Diag
   Full preconditioner red. dimension   ....   250
 SOSCF                  CNVSOSCF        .... on
   Start iteration      SOSCFMaxIt      ....   150
   Startup grad/error   SOSCFStart      ....  0.001000
   Hessian update       SOSCFHessUp     .... L-BFGS
 Level Shifting         CNVShift        .... on
   Level shift para.    LevelShift      ....    0.2500
   Turn off err/grad.   ShiftErr        ....    0.0000
 Zerner damping         CNVZerner       .... off
 Static damping         CNVDamp         .... on
   Fraction old density DampFac         ....    0.8500
   Max. Damping (<1)    DampMax         ....    0.9800
   Min. Damping (>=0)   DampMin         ....    0.0000
   Turn off err/grad.   DampErr         ....    0.0300

SCF Procedure:
 Maximum # iterations   MaxIter         ....  1500
 SCF integral mode      SCFMode         .... Direct
   Integral package                     .... SHARK and LIBINT hybrid scheme
 Reset frequency        DirectResetFreq ....    20
 Integral Threshold     Thresh          ....  2.500e-11 Eh
 Primitive CutOff       TCut            ....  2.500e-12 Eh

Convergence Tolerance:
 Convergence Check Mode ConvCheckMode   .... Total+1el-Energy
 Convergence forced     ConvForced      .... 0
 Energy Change          TolE            ....  1.000e-08 Eh
 1-El. energy change                    ....  1.000e-05 Eh
 Orbital Gradient       TolG            ....  1.000e-05
 Orbital Rotation angle TolX            ....  1.000e-05
 DIIS Error             TolErr          ....  5.000e-07

------------------------------
INITIAL GUESS: MODEL POTENTIAL
------------------------------
Loading Hartree-Fock densities                     ... done
Calculating cut-offs                               ... done
Initializing the effective Hamiltonian             ... done
Setting up the integral package (SHARK)            ... done
Starting the Coulomb interaction                   ... done (   0.1 sec)
Making the grid                                    ... done (   0.1 sec)
Mapping shells                                     ... done
Starting the XC term evaluation                    ... done (   0.1 sec)
  promolecular density results
     # of electrons  =     41.996012346
     EX              =    -32.436785891
     EC              =     -1.370103777
     EX+EC           =    -33.806889668
Transforming the Hamiltonian                       ... done (   0.0 sec)
Diagonalizing the Hamiltonian                      ... done (   0.0 sec)
Back transforming the eigenvectors                 ... done (   0.0 sec)
Now organizing SCF variables                       ... done
                      ------------------
                      INITIAL GUESS DONE (   0.4 sec)
                      ------------------
             **** ENERGY FILE WAS UPDATED (cs_rporg_016_ox_opt_01.en.tmp) ****
Finished Guess after   0.9 sec
Maximum memory used throughout the entire GUESS-calculation: 8.4 MB


           ************************************************************
           *        Program running with 4 parallel MPI-processes     *
           *              working on a common directory               *
           ************************************************************

-------------------------------------------------------------------------------------------
                                      ORCA LEAN-SCF
                              memory conserving SCF solver
-------------------------------------------------------------------------------------------

----------------------------------------D-I-I-S--------------------------------------------
Iteration    Energy (Eh)           Delta-E    RMSDP     MaxDP     DIISErr   Damp  Time(sec)
-------------------------------------------------------------------------------------------
               ***  Starting incremental Fock matrix formation  ***
    1    -231.3961815595381779     0.00e+00  7.64e-04  1.06e-02  4.34e-02  0.850   1.7
Warning: op=1 Small HOMO/LUMO gap (   0.067) - skipping pre-diagonalization
         Will do a full diagonalization
    2    -231.4063946093623656    -1.02e-02  7.36e-04  9.84e-03  3.49e-02  0.850   2.4
                               ***Turning on AO-DIIS***
    3    -231.4138238431080197    -7.43e-03  5.16e-04  5.54e-03  2.63e-02  0.850   2.8
    4    -231.4190972137941742    -5.27e-03  2.76e-03  2.83e-02  2.16e-02  0.000   2.8
    5    -231.4427306778158311    -2.36e-02  2.24e-04  2.72e-03  2.62e-03  0.000   2.6
    6    -231.4429765705964712    -2.46e-04  1.10e-04  2.49e-03  2.13e-03  0.000   2.8
    7    -231.4430452210347369    -6.87e-05  7.53e-05  1.59e-03  1.27e-03  0.000   2.9
                              *** Initializing SOSCF ***
---------------------------------------S-O-S-C-F--------------------------------------
Iteration    Energy (Eh)           Delta-E    RMSDP     MaxDP     MaxGrad    Time(sec)
--------------------------------------------------------------------------------------
    8    -231.4430816537980888    -3.64e-05  4.88e-05  1.03e-03  5.81e-04     2.9
               *** Restarting incremental Fock matrix formation ***
    9    -231.4430778448458170     3.81e-06  2.90e-05  4.98e-04  5.25e-04     2.4
   10    -231.4430809950386845    -3.15e-06  2.84e-05  5.86e-04  2.24e-04     2.6
   11    -231.4430818111958672    -8.16e-07  8.17e-06  1.39e-04  1.53e-04     2.6
   12    -231.4430820476597717    -2.36e-07  3.26e-06  6.96e-05  6.77e-05     2.2
   13    -231.4430820745816106    -2.69e-08  1.40e-06  1.56e-05  1.36e-05     2.3
   14    -231.4430820783474871    -3.77e-09  6.86e-07  1.12e-05  6.41e-06     2.2
                 **** Energy Check signals convergence ****

               *****************************************************
               *                     SUCCESS                       *
               *           SCF CONVERGED AFTER  14 CYCLES          *
               *****************************************************

Recomputing exchange energy using gridx3       ... done (    0.773 sec)
Old exchange energy                            :     -8.229141592 Eh
New exchange energy                            :     -8.229185713 Eh
Exchange energy change after final integration :     -0.000044121 Eh
Total energy after final integration           :   -231.443126199 Eh
             **** ENERGY FILE WAS UPDATED (cs_rporg_016_ox_opt_01.en.tmp) ****

----------------
TOTAL SCF ENERGY
----------------

Total Energy       :       -231.44312619889931 Eh           -6297.88764 eV

Components:
Nuclear Repulsion  :        204.22225041806129 Eh            5557.16995 eV
Electronic Energy  :       -435.66533249640878 Eh          -11855.05640 eV
One Electron Energy:       -705.29594907873388 Eh          -19192.07848 eV
Two Electron Energy:        269.63061658232510 Eh            7337.02208 eV

Virial components:
Potential Energy   :       -461.01099325603570 Eh          -12544.74689 eV
Kinetic Energy     :        229.56786705713637 Eh            6246.85925 eV
Virial Ratio       :          2.00816864819019

DFT components:
N(Alpha)           :       21.000019395175 electrons
N(Beta)            :       20.000022908382 electrons
N(Total)           :       41.000042303557 electrons
E(X)               :      -24.597991103742 Eh       
E(C)               :       -1.341922193157 Eh       
E(XC)              :      -25.939913296900 Eh       

---------------
SCF CONVERGENCE
---------------

  Last Energy change         ...    3.7659e-09  Tolerance :   1.0000e-08
  Last MAX-Density change    ...    1.1152e-05  Tolerance :   1.0000e-07
  Last RMS-Density change    ...    6.8647e-07  Tolerance :   5.0000e-09
  Last DIIS Error            ...    5.8135e-04  Tolerance :   5.0000e-07
  Last Orbital Gradient      ...    6.4108e-06  Tolerance :   1.0000e-05
  Last Orbital Rotation      ...    5.1526e-05  Tolerance :   1.0000e-05


----------------------
UHF SPIN CONTAMINATION
----------------------

Warning: in a DFT calculation there is little theoretical justification to 
         calculate <S**2> as in Hartree-Fock theory. We will do it anyways
         but you should keep in mind that the values have only limited relevance

Expectation value of <S**2>     :     0.769596
Ideal value S*(S+1) for S=0.5   :     0.750000
Deviation                       :     0.019596

----------------
ORBITAL ENERGIES
----------------
                 SPIN UP ORBITALS
  NO   OCC          E(Eh)            E(eV) 
   0   1.0000     -10.491580      -285.4904 
   1   1.0000     -10.491555      -285.4897 
   2   1.0000     -10.489405      -285.4312 
   3   1.0000     -10.489375      -285.4304 
   4   1.0000     -10.458399      -284.5875 
   5   1.0000     -10.458370      -284.5867 
   6   1.0000      -1.127684       -30.6858 
   7   1.0000      -1.013920       -27.5902 
   8   1.0000      -1.002290       -27.2737 
   9   1.0000      -0.855159       -23.2701 
  10   1.0000      -0.854554       -23.2536 
  11   1.0000      -0.771519       -20.9941 
  12   1.0000      -0.708971       -19.2921 
  13   1.0000      -0.698046       -18.9948 
  14   1.0000      -0.668112       -18.1802 
  15   1.0000      -0.665747       -18.1159 
  16   1.0000      -0.629298       -17.1241 
  17   1.0000      -0.594053       -16.1650 
  18   1.0000      -0.591127       -16.0854 
  19   1.0000      -0.516774       -14.0621 
  20   1.0000      -0.499770       -13.5994 
  21   0.0000      -0.259125        -7.0512 
  22   0.0000      -0.231124        -6.2892 
  23   0.0000      -0.115679        -3.1478 
  24   0.0000      -0.076052        -2.0695 
  25   0.0000      -0.062781        -1.7084 
  26   0.0000      -0.058239        -1.5848 
  27   0.0000      -0.030140        -0.8202 
  28   0.0000      -0.015275        -0.4157 
  29   0.0000       0.003154         0.0858 
  30   0.0000       0.077309         2.1037 
  31   0.0000       0.090369         2.4591 

                 SPIN DOWN ORBITALS
  NO   OCC          E(Eh)            E(eV) 
   0   1.0000     -10.486298      -285.3467 
   1   1.0000     -10.486279      -285.3462 
   2   1.0000     -10.484612      -285.3008 
   3   1.0000     -10.484585      -285.3001 
   4   1.0000     -10.460084      -284.6334 
   5   1.0000     -10.460055      -284.6326 
   6   1.0000      -1.115494       -30.3541 
   7   1.0000      -0.999080       -27.1864 
   8   1.0000      -0.992598       -27.0100 
   9   1.0000      -0.848420       -23.0867 
  10   1.0000      -0.843934       -22.9646 
  11   1.0000      -0.767526       -20.8855 
  12   1.0000      -0.702893       -19.1267 
  13   1.0000      -0.692900       -18.8548 
  14   1.0000      -0.667682       -18.1685 
  15   1.0000      -0.658931       -17.9304 
  16   1.0000      -0.592114       -16.1122 
  17   1.0000      -0.590789       -16.0762 
  18   1.0000      -0.586523       -15.9601 
  19   1.0000      -0.494134       -13.4461 
  20   0.0000      -0.404996       -11.0205 
  21   0.0000      -0.218450        -5.9443 
  22   0.0000      -0.214413        -5.8345 
  23   0.0000      -0.110851        -3.0164 
  24   0.0000      -0.060229        -1.6389 
  25   0.0000      -0.057751        -1.5715 
  26   0.0000      -0.056526        -1.5382 
  27   0.0000      -0.023898        -0.6503 
  28   0.0000      -0.014295        -0.3890 
  29   0.0000       0.006509         0.1771 
  30   0.0000       0.085532         2.3275 
*Only the first 10 virtual orbitals were printed.

                    ********************************
                    * MULLIKEN POPULATION ANALYSIS *
                    ********************************

--------------------------------------------
MULLIKEN ATOMIC CHARGES AND SPIN POPULATIONS
--------------------------------------------
   0 C :   -0.012094    0.351645
   1 C :   -0.017853    0.317143
   2 C :   -0.060948   -0.151516
   3 C :   -0.012076    0.351662
   4 C :   -0.017858    0.317155
   5 C :   -0.060952   -0.151517
   6 H :    0.182793    0.004209
   7 H :    0.203448   -0.009957
   8 H :    0.204652   -0.011537
   9 H :    0.182791    0.004209
  10 H :    0.203416   -0.009958
  11 H :    0.204681   -0.011536
Sum of atomic charges         :    1.0000000
Sum of atomic spin populations:    1.0000000

-----------------------------------------------------
MULLIKEN REDUCED ORBITAL CHARGES AND SPIN POPULATIONS
-----------------------------------------------------
CHARGE
  0 C s       :     3.199658  s :     3.199658
      pz      :     0.783776  p :     2.773419
      px      :     0.991583
      py      :     0.998060
      dz2     :     0.003352  d :     0.039017
      dxz     :     0.003543
      dyz     :     0.006173
      dx2y2   :     0.011541
      dxy     :     0.014408

  1 C s       :     3.201827  s :     3.201827
      pz      :     0.793967  p :     2.777228
      px      :     0.982895
      py      :     1.000365
      dz2     :     0.003378  d :     0.038799
      dxz     :     0.006526
      dyz     :     0.002938
      dx2y2   :     0.014798
      dxy     :     0.011158

  2 C s       :     3.204493  s :     3.204493
      pz      :     0.937296  p :     2.819945
      px      :     0.941868
      py      :     0.940781
      dz2     :     0.003627  d :     0.036511
      dxz     :     0.003471
      dyz     :     0.003463
      dx2y2   :     0.012171
      dxy     :     0.013779

  3 C s       :     3.199672  s :     3.199672
      pz      :     0.783758  p :     2.773386
      px      :     0.991565
      py      :     0.998063
      dz2     :     0.003352  d :     0.039018
      dxz     :     0.003542
      dyz     :     0.006173
      dx2y2   :     0.011541
      dxy     :     0.014409

  4 C s       :     3.201812  s :     3.201812
      pz      :     0.793972  p :     2.777247
      px      :     0.982891
      py      :     1.000384
      dz2     :     0.003377  d :     0.038798
      dxz     :     0.006526
      dyz     :     0.002939
      dx2y2   :     0.014797
      dxy     :     0.011159

  5 C s       :     3.204512  s :     3.204512
      pz      :     0.937292  p :     2.819930
      px      :     0.941869
      py      :     0.940769
      dz2     :     0.003627  d :     0.036510
      dxz     :     0.003471
      dyz     :     0.003463
      dx2y2   :     0.012170
      dxy     :     0.013779

  6 H s       :     0.817207  s :     0.817207

  7 H s       :     0.796552  s :     0.796552

  8 H s       :     0.795348  s :     0.795348

  9 H s       :     0.817209  s :     0.817209

 10 H s       :     0.796584  s :     0.796584

 11 H s       :     0.795319  s :     0.795319


SPIN
  0 C s       :     0.040701  s :     0.040701
      pz      :     0.281738  p :     0.310239
      px      :     0.006737
      py      :     0.021764
      dz2     :    -0.000973  d :     0.000705
      dxz     :     0.001101
      dyz     :    -0.000054
      dx2y2   :     0.000263
      dxy     :     0.000368

  1 C s       :     0.035897  s :     0.035897
      pz      :     0.256178  p :     0.280320
      px      :     0.005577
      py      :     0.018565
      dz2     :    -0.000893  d :     0.000925
      dxz     :     0.001071
      dyz     :     0.000131
      dx2y2   :     0.000521
      dxy     :     0.000095

  2 C s       :    -0.029111  s :    -0.029111
      pz      :    -0.098681  p :    -0.125772
      px      :    -0.013865
      py      :    -0.013226
      dz2     :     0.000252  d :     0.003367
      dxz     :     0.000826
      dyz     :     0.002262
      dx2y2   :     0.000045
      dxy     :    -0.000018

  3 C s       :     0.040703  s :     0.040703
      pz      :     0.281765  p :     0.310254
      px      :     0.006734
      py      :     0.021755
      dz2     :    -0.000973  d :     0.000705
      dxz     :     0.001101
      dyz     :    -0.000054
      dx2y2   :     0.000263
      dxy     :     0.000368

  4 C s       :     0.035898  s :     0.035898
      pz      :     0.256167  p :     0.280331
      px      :     0.005579
      py      :     0.018585
      dz2     :    -0.000893  d :     0.000925
      dxz     :     0.001071
      dyz     :     0.000131
      dx2y2   :     0.000521
      dxy     :     0.000095

  5 C s       :    -0.029111  s :    -0.029111
      pz      :    -0.098683  p :    -0.125774
      px      :    -0.013865
      py      :    -0.013225
      dz2     :     0.000252  d :     0.003367
      dxz     :     0.000826
      dyz     :     0.002262
      dx2y2   :     0.000045
      dxy     :    -0.000018

  6 H s       :     0.004209  s :     0.004209

  7 H s       :    -0.009957  s :    -0.009957

  8 H s       :    -0.011537  s :    -0.011537

  9 H s       :     0.004209  s :     0.004209

 10 H s       :    -0.009958  s :    -0.009958

 11 H s       :    -0.011536  s :    -0.011536



                     *******************************
                     * LOEWDIN POPULATION ANALYSIS *
                     *******************************

-------------------------------------------
LOEWDIN ATOMIC CHARGES AND SPIN POPULATIONS
-------------------------------------------
   0 C :    0.027945    0.304029
   1 C :    0.019635    0.277855
   2 C :   -0.092708   -0.077304
   3 C :    0.027953    0.304043
   4 C :    0.019645    0.277867
   5 C :   -0.092706   -0.077305
   6 H :    0.176494    0.001715
   7 H :    0.184078   -0.002805
   8 H :    0.184547   -0.003502
   9 H :    0.176495    0.001715
  10 H :    0.184069   -0.002806
  11 H :    0.184554   -0.003502

----------------------------------------------------
LOEWDIN REDUCED ORBITAL CHARGES AND SPIN POPULATIONS
----------------------------------------------------
CHARGE
  0 C s       :     2.913904  s :     2.913904
      pz      :     0.777754  p :     2.964788
      px      :     1.093857
      py      :     1.093176
      dz2     :     0.007070  d :     0.093363
      dxz     :     0.006044
      dyz     :     0.011799
      dx2y2   :     0.031404
      dxy     :     0.037046

  1 C s       :     2.913033  s :     2.913033
      pz      :     0.788839  p :     2.974225
      px      :     1.087830
      py      :     1.097556
      dz2     :     0.007116  d :     0.093108
      dxz     :     0.013129
      dyz     :     0.004248
      dx2y2   :     0.037958
      dxy     :     0.030657

  2 C s       :     2.899190  s :     2.899190
      pz      :     0.942315  p :     3.102674
      px      :     1.088435
      py      :     1.071924
      dz2     :     0.007608  d :     0.090843
      dxz     :     0.005687
      dyz     :     0.006817
      dx2y2   :     0.034182
      dxy     :     0.036548

  3 C s       :     2.913895  s :     2.913895
      pz      :     0.777735  p :     2.964787
      px      :     1.093863
      py      :     1.093189
      dz2     :     0.007071  d :     0.093365
      dxz     :     0.006044
      dyz     :     0.011799
      dx2y2   :     0.031405
      dxy     :     0.037047

  4 C s       :     2.913043  s :     2.913043
      pz      :     0.788849  p :     2.974207
      px      :     1.087823
      py      :     1.097534
      dz2     :     0.007115  d :     0.093105
      dxz     :     0.013129
      dyz     :     0.004250
      dx2y2   :     0.037954
      dxy     :     0.030658

  5 C s       :     2.899196  s :     2.899196
      pz      :     0.942313  p :     3.102669
      px      :     1.088433
      py      :     1.071922
      dz2     :     0.007608  d :     0.090842
      dxz     :     0.005687
      dyz     :     0.006818
      dx2y2   :     0.034181
      dxy     :     0.036547

  6 H s       :     0.823506  s :     0.823506

  7 H s       :     0.815922  s :     0.815922

  8 H s       :     0.815453  s :     0.815453

  9 H s       :     0.823505  s :     0.823505

 10 H s       :     0.815931  s :     0.815931

 11 H s       :     0.815446  s :     0.815446


SPIN
  0 C s       :     0.009475  s :     0.009475
      pz      :     0.266742  p :     0.292673
      px      :     0.007967
      py      :     0.017964
      dz2     :    -0.001014  d :     0.001881
      dxz     :     0.001821
      dyz     :    -0.000036
      dx2y2   :     0.000395
      dxy     :     0.000714

  1 C s       :     0.008356  s :     0.008356
      pz      :     0.243312  p :     0.267116
      px      :     0.007292
      py      :     0.016512
      dz2     :    -0.000927  d :     0.002383
      dxz     :     0.002053
      dyz     :     0.000118
      dx2y2   :     0.001099
      dxy     :     0.000040

  2 C s       :    -0.004890  s :    -0.004890
      pz      :    -0.079196  p :    -0.080547
      px      :    -0.001480
      py      :     0.000129
      dz2     :     0.000373  d :     0.008133
      dxz     :     0.002060
      dyz     :     0.004972
      dx2y2   :     0.000511
      dxy     :     0.000216

  3 C s       :     0.009475  s :     0.009475
      pz      :     0.266767  p :     0.292687
      px      :     0.007963
      py      :     0.017957
      dz2     :    -0.001014  d :     0.001881
      dxz     :     0.001821
      dyz     :    -0.000035
      dx2y2   :     0.000396
      dxy     :     0.000714

  4 C s       :     0.008357  s :     0.008357
      pz      :     0.243300  p :     0.267127
      px      :     0.007294
      py      :     0.016532
      dz2     :    -0.000927  d :     0.002383
      dxz     :     0.002053
      dyz     :     0.000118
      dx2y2   :     0.001099
      dxy     :     0.000039

  5 C s       :    -0.004890  s :    -0.004890
      pz      :    -0.079198  p :    -0.080548
      px      :    -0.001480
      py      :     0.000130
      dz2     :     0.000373  d :     0.008132
      dxz     :     0.002060
      dyz     :     0.004972
      dx2y2   :     0.000512
      dxy     :     0.000216

  6 H s       :     0.001715  s :     0.001715

  7 H s       :    -0.002805  s :    -0.002805

  8 H s       :    -0.003502  s :    -0.003502

  9 H s       :     0.001715  s :     0.001715

 10 H s       :    -0.002806  s :    -0.002806

 11 H s       :    -0.003502  s :    -0.003502



                      *****************************
                      * MAYER POPULATION ANALYSIS *
                      *****************************

  NA   - Mulliken gross atomic population
  ZA   - Total nuclear charge
  QA   - Mulliken gross atomic charge
  VA   - Mayer's total valence
  BVA  - Mayer's bonded valence
  FA   - Mayer's free valence

  ATOM       NA         ZA         QA         VA         BVA        FA
  0 C      6.0121     6.0000    -0.0121     3.7940     3.6991     0.0949
  1 C      6.0179     6.0000    -0.0179     3.8021     3.7228     0.0794
  2 C      6.0609     6.0000    -0.0609     3.8687     3.8577     0.0110
  3 C      6.0121     6.0000    -0.0121     3.7940     3.6991     0.0950
  4 C      6.0179     6.0000    -0.0179     3.8021     3.7227     0.0794
  5 C      6.0610     6.0000    -0.0610     3.8687     3.8577     0.0110
  6 H      0.8172     1.0000     0.1828     0.9413     0.9413     0.0000
  7 H      0.7966     1.0000     0.2034     0.9327     0.9326     0.0001
  8 H      0.7953     1.0000     0.2047     0.9321     0.9319     0.0001
  9 H      0.8172     1.0000     0.1828     0.9413     0.9413     0.0000
 10 H      0.7966     1.0000     0.2034     0.9327     0.9326     0.0001
 11 H      0.7953     1.0000     0.2047     0.9321     0.9319     0.0001

  Mayer bond orders larger than 0.100000
B(  0-C ,  1-C ) :   1.2011 B(  0-C ,  4-C ) :   0.1178 B(  0-C ,  5-C ) :   1.3960 
B(  0-C , 11-H ) :   0.9293 B(  1-C ,  2-C ) :   1.4212 B(  1-C ,  3-C ) :   0.1178 
B(  1-C , 10-H ) :   0.9308 B(  2-C ,  3-C ) :   1.3960 B(  2-C ,  9-H ) :   0.9497 
B(  3-C ,  4-C ) :   1.2011 B(  3-C ,  8-H ) :   0.9293 B(  4-C ,  5-C ) :   1.4212 
B(  4-C ,  7-H ) :   0.9308 B(  5-C ,  6-H ) :   0.9497 

-------
TIMINGS
-------

Total SCF time: 0 days 0 hours 0 min 38 sec 

Total time                  ....      38.195 sec
Sum of individual times     ....      36.640 sec  ( 95.9%)

SCF preparation             ....       0.749 sec  (  2.0%)
Fock matrix formation       ....      22.181 sec  ( 58.1%)
  Startup                   ....       2.844 sec  ( 12.8% of F)
  Split-RI-J                ....       2.665 sec  ( 12.0% of F)
  Chain of spheres X        ....       7.442 sec  ( 33.6% of F)
  XC integration            ....       4.169 sec  ( 18.8% of F)
    XC Preparation          ....       0.000 sec  (  0.0% of XC)
    Basis function eval.    ....       0.504 sec  ( 12.1% of XC)
    Density eval.           ....       0.361 sec  (  8.7% of XC)
    XC-Functional eval.     ....       0.207 sec  (  5.0% of XC)
    XC-Potential eval.      ....       0.583 sec  ( 14.0% of XC)
Diagonalization             ....       0.000 sec  (  0.0%)
Density matrix formation    ....       4.646 sec  ( 12.2%)
Total Energy calculation    ....       1.853 sec  (  4.9%)
Population analysis         ....       0.505 sec  (  1.3%)
Orbital Transformation      ....       0.506 sec  (  1.3%)
Orbital Orthonormalization  ....       0.000 sec  (  0.0%)
DIIS solution               ....       4.176 sec  ( 10.9%)
SOSCF solution              ....       2.024 sec  (  5.3%)
Finished LeanSCF after  38.6 sec

Maximum memory used throughout the entire LEANSCF-calculation: 11.5 MB


           ************************************************************
           *        Program running with 4 parallel MPI-processes     *
           *              working on a common directory               *
           ************************************************************

------------------------------------------------------------------------------
                         ORCA PROPERTY INTEGRAL CALCULATIONS
------------------------------------------------------------------------------

GBWName                                   ... cs_rporg_016_ox_opt_01.gbw
Number of atoms                           ...     12
Number of basis functions                 ...     96
Max core memory                           ...   3000 MB

Dipole integrals                          ... YES
Quadrupole integrals                      ...  NO
Linear momentum integrals                 ...  NO
Angular momentum integrals                ...  NO
Higher moments length integrals           ...  NO
Higher moments velocity integrals         ...  NO
Kinetic energy integrals                  ...  NO
GIAO right hand sides                     ...  NO
GIAO dipole derivative integrals          ...  NO
SOC integrals                             ...  NO
EPR diamagnetic integrals (GIAO)          ...  NO
EPR gauge integrals                       ...  NO
Field gradient integrals                  ...  NO (   0 nuclei)
Spin-dipole/Fermi contact integrals       ...  NO (   0 nuclei)
Contact density integrals                 ...  NO (   0 nuclei)
Nucleus-orbit integrals                   ...  NO (   0 nuclei)
Geometric perturbations                   ...  NO (  12 nuclei)

Choice of electric origin   ... Center of mass
Position of electric origin ... (  0.0000,  0.0000,  0.0001) 
Choice of magnetic origin   ... GIAO
Position of magnetic origin ... (  0.0000,  0.0000,  0.0000) 

Calculating integrals                     ... Electric Dipole (Length)     done (  0.0 sec)

Property integrals calculated in   0.1 sec

Maximum memory used throughout the entire PROPINT-calculation: 7.3 MB


-------------------------------------------------------------------------------
                          DFT DISPERSION CORRECTION                            
                                                                               
                              DFTD3 V3.1  Rev 1                                
                          USING Becke-Johnson damping                          
-------------------------------------------------------------------------------
The PBE0 functional is recognized
Active option DFTDOPT                   ...         4   

molecular C6(AA) [au] = 1657.394370 


            DFT-D V3
 parameters
 s6 scaling factor         :     1.0000 
 a1 scaling factor         :     0.4145 
 s8 scaling factor         :     1.2177 
 a2 scaling factor         :     4.8593 
 ad hoc parameters k1-k3   :    16.0000     1.3333    -4.0000 

 Edisp/kcal,au: -5.889360940743  -0.009385293061 
 E6   /kcal   :  -3.658978622 
 E8   /kcal   :  -2.230382319 
 % E8         :  37.871380970 

-------------------------   ----------------
Dispersion correction           -0.009385293
-------------------------   ----------------


-------------------------   --------------------
FINAL SINGLE POINT ENERGY      -231.452511491960
-------------------------   --------------------



           ************************************************************
           *        Program running with 4 parallel MPI-processes     *
           *              working on a common directory               *
           ************************************************************
------------------------------------------------------------------------------
                         ORCA SCF GRADIENT CALCULATION
------------------------------------------------------------------------------

Nuc. rep. gradient        (SHARK) ... done (  0.0 sec)
HCore & Overlap gradient  (SHARK) ... done (  0.0 sec)
Split-RIJ-J gradient      (SHARK) ... done (  0.3 sec)
COSX-gradient                     ... done (  3.4 sec)
XC gradient                       ... done (  0.8 sec)
Dispersion correction             ... done (  0.1 sec)

-------------------
DISPERSION GRADIENT
-------------------

   1   C   :   -0.000155242    0.000081235    0.000001899
   2   C   :   -0.000001325    0.000175845   -0.000001201
   3   C   :    0.000158313    0.000097004   -0.000007764
   4   C   :    0.000155241   -0.000081234   -0.000001894
   5   C   :    0.000001327   -0.000175847    0.000001202
   6   C   :   -0.000158313   -0.000097004    0.000007771
   7   H   :   -0.000124226   -0.000076021    0.000007262
   8   H   :    0.000002574   -0.000148019   -0.000008758
   9   H   :    0.000130676   -0.000069928    0.000008869
  10   H   :    0.000124225    0.000076021   -0.000007259
  11   H   :   -0.000002573    0.000148018    0.000008746
  12   H   :   -0.000130676    0.000069930   -0.000008873

Difference to translation invariance:
           :   -0.0000000000    0.0000000000   -0.0000000000

Difference to rotation invariance:
           :   -0.0000000000    0.0000000000    0.0000000000

Norm of the Dispersion gradient    ...    0.0005682645
RMS gradient                       ...    0.0000947108
MAX gradient                       ...    0.0001758471

------------------
CARTESIAN GRADIENT
------------------

   1   C   :    0.028600858    0.017718297   -0.000121852
   2   C   :   -0.031286639   -0.015730421    0.000964921
   3   C   :    0.008785441    0.002494063   -0.002584646
   4   C   :   -0.028577181   -0.017729531    0.000126614
   5   C   :    0.031292422    0.015753473   -0.000955446
   6   C   :   -0.008789241   -0.002490148    0.002587320
   7   H   :    0.008948932    0.005260902    0.001064136
   8   H   :   -0.002477479    0.008465927   -0.001868662
   9   H   :   -0.006524159    0.005941878    0.002211149
  10   H   :   -0.008949086   -0.005261102   -0.001064267
  11   H   :    0.002481423   -0.008499941    0.001859301
  12   H   :    0.006494709   -0.005923397   -0.002218569

Difference to translation invariance:
           :   -0.0000000000   -0.0000000000   -0.0000000000

Difference to rotation invariance:
           :   -0.0000530218    0.0000011649   -0.0000618161

Norm of the Cartesian gradient     ...    0.0737877854
RMS gradient                       ...    0.0122979642
MAX gradient                       ...    0.0312924220

-------
TIMINGS
-------

Total SCF gradient time     ....        4.631 sec

Densities                   ....       0.000 sec  (  0.0%)
One electron gradient       ....       0.017 sec  (  0.4%)
RI-J Coulomb gradient       ....       0.334 sec  (  7.2%)
COSX gradient               ....       3.411 sec  ( 73.7%)
XC gradient                 ....       0.753 sec  ( 16.3%)

Maximum memory used throughout the entire SCFGRAD-calculation: 27.1 MB
------------------------------------------------------------------------------
                         ORCA GEOMETRY RELAXATION STEP
------------------------------------------------------------------------------

Reading the OPT-File                    .... done
Getting information on internals        .... done
Copying old internal coords+grads       .... done
Making the new internal coordinates     .... (2022 redundants) done
Validating the new internal coordinates .... (2022 redundants) done
Calculating the B-matrix                .... done
Calculating the G,G- and P matrices     .... done
Transforming gradient to internals      .... done
Projecting the internal gradient        .... done
Number of atoms                         ....  12
Number of internal coordinates          ....  54
Current Energy                          ....  -231.452511492 Eh
Current gradient norm                   ....     0.073787785 Eh/bohr
Maximum allowed component of the step   ....  0.300
Current trust radius                    ....  0.300
Evaluating the initial hessian          ....  (Almloef) done
Projecting the Hessian                  .... done
Forming the augmented Hessian           .... done
Diagonalizing the augmented Hessian     .... done
Last element of RFO vector              ....  0.978538045
Lowest eigenvalues of augmented Hessian:
 -0.007354527  0.026392704  0.027153816  0.027159048  0.027457481
Length of the computed step             ....  0.210585822
The final length of the internal step   ....  0.210585822
Converting the step to Cartesian space:
 Initial RMS(Int)=    0.0286571007
Transforming coordinates:
 Iter   0:  RMS(Cart)=    0.0347087796 RMS(Int)=    0.0285294517
done
Storing new coordinates                 .... done

                                .--------------------.
          ----------------------|Geometry convergence|-------------------------
          Item                value                   Tolerance       Converged
          ---------------------------------------------------------------------
          RMS gradient        0.0081077299            0.0001000000      NO
          MAX gradient        0.0374471386            0.0003000000      NO
          RMS step            0.0286571007            0.0020000000      NO
          MAX step            0.0652529301            0.0040000000      NO
          ........................................................
          Max(Bonds)      0.0321      Max(Angles)    0.48
          Max(Dihed)        3.74      Max(Improp)    0.00
          ---------------------------------------------------------------------

The optimization has not yet converged - more geometry cycles are needed


    ---------------------------------------------------------------------------
                         Redundant Internal Coordinates
                            (Angstroem and degrees)

        Definition                    Value    dE/dq     Step     New-Value
    ----------------------------------------------------------------------------
     1. B(C   1,C   0)                1.3965 -0.037446  0.0321    1.4286   
     2. B(C   2,C   1)                1.3872 -0.004902  0.0041    1.3913   
     3. B(C   3,C   2)                1.3877 -0.007462  0.0062    1.3939   
     4. B(C   4,C   3)                1.3965 -0.037447  0.0321    1.4286   
     5. B(C   5,C   4)                1.3872 -0.004892  0.0041    1.3913   
     6. B(C   5,C   0)                1.3877 -0.007457  0.0062    1.3939   
     7. B(H   6,C   5)                1.0780 -0.010369  0.0143    1.0923   
     8. B(H   7,C   4)                1.0853 -0.008153  0.0115    1.0969   
     9. B(H   8,C   3)                1.0857 -0.008109  0.0115    1.0972   
    10. B(H   9,C   2)                1.0780 -0.010369  0.0143    1.0923   
    11. B(H  10,C   1)                1.0853 -0.008188  0.0116    1.0969   
    12. B(H  11,C   0)                1.0858 -0.008074  0.0115    1.0972   
    13. A(C   1,C   0,H  11)          119.62  0.001190   -0.19    119.42   
    14. A(C   1,C   0,C   5)          121.75  0.001493   -0.14    121.61   
    15. A(C   5,C   0,H  11)          118.38 -0.002728    0.44    118.82   
    16. A(C   0,C   1,H  10)          119.92  0.001560   -0.26    119.66   
    17. A(C   2,C   1,H  10)          118.53 -0.002732    0.42    118.95   
    18. A(C   0,C   1,C   2)          121.39  0.001152   -0.11    121.28   
    19. A(C   3,C   2,H   9)          121.69  0.001541   -0.18    121.51   
    20. A(C   1,C   2,C   3)          116.20 -0.002784    0.48    116.68   
    21. A(C   1,C   2,H   9)          121.53  0.001153   -0.12    121.41   
    22. A(C   4,C   3,H   8)          119.62  0.001191   -0.19    119.42   
    23. A(C   2,C   3,C   4)          121.75  0.001497   -0.14    121.61   
    24. A(C   2,C   3,H   8)          118.38 -0.002733    0.44    118.82   
    25. A(C   5,C   4,H   7)          118.53 -0.002726    0.42    118.95   
    26. A(C   3,C   4,C   5)          121.39  0.001147   -0.10    121.28   
    27. A(C   3,C   4,H   7)          119.92  0.001559   -0.26    119.66   
    28. A(C   0,C   5,H   6)          121.69  0.001541   -0.18    121.51   
    29. A(C   0,C   5,C   4)          116.20 -0.002785    0.48    116.68   
    30. A(C   4,C   5,H   6)          121.53  0.001153   -0.12    121.41   
    31. D(H  10,C   1,C   0,C   5)   -165.63  0.001703   -2.53   -168.16   
    32. D(H  10,C   1,C   0,H  11)     20.19  0.002384   -3.74     16.45   
    33. D(C   2,C   1,C   0,H  11)   -164.52  0.001961   -2.95   -167.47   
    34. D(C   2,C   1,C   0,C   5)      9.66  0.001280   -1.74      7.92   
    35. D(H   9,C   2,C   1,C   0)    179.37 -0.000289    0.30    179.67   
    36. D(C   3,C   2,C   1,C   0)     -9.15 -0.000841    1.60     -7.55   
    37. D(C   3,C   2,C   1,H  10)    166.21 -0.001064    2.34    168.54   
    38. D(H   9,C   2,C   1,H  10)     -5.27 -0.000513    1.04     -4.23   
    39. D(H   8,C   3,C   2,H   9)      6.40  0.000746   -1.46      4.94   
    40. D(H   8,C   3,C   2,C   1)   -165.07  0.001335   -2.76   -167.83   
    41. D(C   4,C   3,C   2,H   9)   -179.35  0.000292   -0.30   -179.65   
    42. D(C   4,C   3,C   2,C   1)      9.19  0.000880   -1.61      7.58   
    43. D(H   7,C   4,C   3,C   2)    165.62 -0.001706    2.53    168.15   
    44. D(C   5,C   4,C   3,H   8)    164.52 -0.001959    2.95    167.47   
    45. D(C   5,C   4,C   3,C   2)     -9.66 -0.001280    1.74     -7.92   
    46. D(H   7,C   4,C   3,H   8)    -20.20 -0.002385    3.74    -16.46   
    47. D(H   6,C   5,C   4,H   7)      5.28  0.000515   -1.04      4.23   
    48. D(C   0,C   5,C   4,H   7)   -166.19  0.001069   -2.34   -168.54   
    49. D(C   0,C   5,C   4,C   3)      9.15  0.000842   -1.60      7.56   
    50. D(H   6,C   5,C   0,H  11)     -6.40 -0.000746    1.46     -4.94   
    51. D(H   6,C   5,C   0,C   1)    179.36 -0.000290    0.30    179.65   
    52. D(H   6,C   5,C   4,C   3)   -179.38  0.000288   -0.30   -179.67   
    53. D(C   4,C   5,C   0,H  11)    165.06 -0.001338    2.77    167.83   
    54. D(C   4,C   5,C   0,C   1)     -9.19 -0.000881    1.61     -7.58   
    ----------------------------------------------------------------------------

Geometry step timings:
Preparation and reading OPT file:      0.004 s ( 9.864 %)
Internal coordinates            :      0.000 s ( 0.059 %)
B/P matrices and projection     :      0.000 s ( 0.815 %)
Hessian update/contruction      :      0.027 s (60.316 %)
Making the step                 :      0.000 s ( 0.698 %)
Converting the step to Cartesian:      0.000 s ( 0.140 %)
Storing new data                :      0.007 s (16.025 %)
Checking convergence            :      0.000 s ( 0.011 %)
Final printing                  :      0.005 s (12.044 %)
Total time                      :      0.044 s

Time for energy+gradient        :     55.913 s
Time for complete geometry iter :     58.438 s

         *************************************************************
         *                GEOMETRY OPTIMIZATION CYCLE   2            *
         *************************************************************
---------------------------------
CARTESIAN COORDINATES (ANGSTROEM)
---------------------------------
  C     -1.225368    0.638635    0.002921
  C     -0.007832    1.385976    0.002057
  C      1.228179    0.753005   -0.082920
  C      1.225365   -0.638628   -0.002879
  C      0.007829   -1.385968   -0.002045
  C     -1.228181   -0.752997    0.082972
  H     -2.160211   -1.322561    0.089160
  H      0.039001   -2.474377   -0.134520
  H      2.179330   -1.162289    0.137335
  H      2.160210    1.322568   -0.089099
  H     -0.038997    2.474396    0.134444
  H     -2.179326    1.162306   -0.137307

----------------------------
CARTESIAN COORDINATES (A.U.)
----------------------------
  NO LB      ZA    FRAG     MASS         X           Y           Z
   0 C     6.0000    0    12.011   -2.315609    1.206846    0.005520
   1 C     6.0000    0    12.011   -0.014800    2.619115    0.003888
   2 C     6.0000    0    12.011    2.320922    1.422973   -0.156697
   3 C     6.0000    0    12.011    2.315604   -1.206832   -0.005440
   4 C     6.0000    0    12.011    0.014796   -2.619100   -0.003865
   5 C     6.0000    0    12.011   -2.320926   -1.422958    0.156795
   6 H     1.0000    0     1.008   -4.082207   -2.499279    0.168488
   7 H     1.0000    0     1.008    0.073701   -4.675894   -0.254207
   8 H     1.0000    0     1.008    4.118336   -2.196408    0.259525
   9 H     1.0000    0     1.008    4.082205    2.499292   -0.168373
  10 H     1.0000    0     1.008   -0.073694    4.675931    0.254062
  11 H     1.0000    0     1.008   -4.118329    2.196441   -0.259472

--------------------------------
INTERNAL COORDINATES (ANGSTROEM)
--------------------------------
 C      0   0   0     0.000000000000     0.00000000     0.00000000
 C      1   0   0     1.428604797917     0.00000000     0.00000000
 C      2   1   0     1.391257154494   121.27780893     0.00000000
 C      3   2   1     1.393935656205   116.67383415   352.45183209
 C      4   3   2     1.428604309376   121.60200486     7.57588972
 C      5   4   3     1.391259437162   121.27767993   352.07507199
 H      6   5   4     1.092300720324   121.41069942   180.33084301
 H      5   4   3     1.096884211689   119.65615647   168.14687728
 H      4   3   2     1.097237214951   118.81927783   192.15910868
 H      3   2   1     1.092301121245   121.41080485   179.67110382
 H      2   1   3     1.096884469905   119.65667421   183.92615918
 H      1   2   3     1.097237838906   119.42077146   192.53394463

---------------------------
INTERNAL COORDINATES (A.U.)
---------------------------
 C      0   0   0     0.000000000000     0.00000000     0.00000000
 C      1   0   0     2.699671821670     0.00000000     0.00000000
 C      2   1   0     2.629095003853   121.27780893     0.00000000
 C      3   2   1     2.634156638536   116.67383415   352.45183209
 C      4   3   2     2.699670898460   121.60200486     7.57588972
 C      5   4   3     2.629099317470   121.27767993   352.07507199
 H      6   5   4     2.064149217296   121.41069942   180.33084301
 H      5   4   3     2.072810760714   119.65615647   168.14687728
 H      4   3   2     2.073477840204   118.81927783   192.15910868
 H      3   2   1     2.064149974927   121.41080485   179.67110382
 H      2   1   3     2.072811248672   119.65667421   183.92615918
 H      1   2   3     2.073479019308   119.42077146   192.53394463



           ************************************************************
           *        Program running with 4 parallel MPI-processes     *
           *              working on a common directory               *
           ************************************************************
------------------------------------------------------------------------------
                   ___                                                        
                  /   \      - P O W E R E D   B Y -                         
                 /     \                                                     
                 |  |  |   _    _      __       _____    __    __             
                 |  |  |  | |  | |    /  \     |  _  \  |  |  /  |          
                  \  \/   | |  | |   /    \    | | | |  |  | /  /          
                 / \  \   | |__| |  /  /\  \   | |_| |  |  |/  /          
                |  |  |   |  __  | /  /__\  \  |    /   |      \           
                |  |  |   | |  | | |   __   |  |    \   |  |\   \          
                \     /   | |  | | |  |  |  |  | |\  \  |  | \   \       
                 \___/    |_|  |_| |__|  |__|  |_| \__\ |__|  \__/        
                                                                              
                      - O R C A' S   B I G   F R I E N D -                    
                                      &                                       
                       - I N T E G R A L  F E E D E R -                       
[...]
     14       0.000015   0.000001  -0.000040   0.000130  -0.000113  -0.000158
     15       0.002269   0.049576   0.018770   0.055445  -0.179997  -0.248240
     16       0.090972   0.018374  -0.100627  -0.174494   0.100834   0.214695
     17      -0.000050  -0.000032   0.000040  -0.000048   0.000113   0.000108
     18       0.292850   0.006486  -0.279970  -0.019207   0.024874   0.041999
     19      -0.396407   0.108577   0.400012  -0.056714  -0.310243  -0.345834
     20       0.000114   0.000157  -0.000019   0.000092  -0.000024  -0.000159
     21       0.487721  -0.091958  -0.472533  -0.183518  -0.276103  -0.315802
     22      -0.031096  -0.065160   0.023417  -0.039939  -0.147690  -0.151190
     23      -0.000086   0.000180   0.000156  -0.000013   0.000257   0.000409
     24      -0.019826  -0.324942  -0.051490  -0.283043  -0.221771  -0.133806
     25      -0.035238  -0.594133   0.070948  -0.491408  -0.405635   0.075550
     26       0.000046   0.000249   0.000144   0.000226   0.000137  -0.000873
     27      -0.292750  -0.006452  -0.279868  -0.019277   0.024803  -0.041960
     28       0.396272  -0.108740   0.399819  -0.056627  -0.310087   0.345703
     29      -0.000121  -0.000155  -0.000025   0.000089  -0.000016   0.000153
     30      -0.487902   0.091866  -0.472674  -0.183715  -0.276285   0.315911
     31       0.031115   0.065099   0.023407  -0.039939  -0.147710   0.151219
     32       0.000085  -0.000181   0.000160  -0.000014   0.000257  -0.000411
     33       0.019975   0.324972  -0.051440  -0.283352  -0.221865   0.133806
     34       0.035522   0.594183   0.071011  -0.491976  -0.405803  -0.075554
     35      -0.000042  -0.000250   0.000141   0.000227   0.000138   0.000872
                 30         31         32         33         34         35    
      0      -0.048999   0.049615  -0.001327   0.028795   0.001784  -0.016666
      1       0.026747  -0.027063  -0.003223  -0.015763   0.002821   0.009097
      2      -0.000047   0.000046   0.000002   0.000028  -0.000001  -0.000016
      3       0.002259  -0.003340  -0.000551  -0.000613   0.005515  -0.004162
      4      -0.022920   0.010411   0.044121  -0.038125  -0.044986   0.043462
      5      -0.000000  -0.000001  -0.000003  -0.000000  -0.000005   0.000008
      6       0.019076   0.013917  -0.036108   0.030517  -0.041497   0.039696
      7       0.010129   0.004726  -0.022982   0.020677  -0.020259   0.020763
      8      -0.000019  -0.000010   0.000036  -0.000033   0.000044  -0.000045
      9      -0.042797  -0.054554   0.001208   0.029119   0.001755   0.017765
     10       0.023361   0.029759   0.003157  -0.015937   0.002969  -0.009682
     11      -0.000041  -0.000051  -0.000002   0.000028  -0.000001   0.000017
     12       0.001840   0.003570   0.000364  -0.000842   0.005512   0.004160
     13      -0.021399  -0.013775  -0.042556  -0.036204  -0.046271  -0.045148
     14      -0.000000   0.000001   0.000003  -0.000000  -0.000005  -0.000008
     15       0.020576  -0.010947   0.037478   0.032317  -0.040067  -0.038619
     16       0.010598  -0.003083   0.023640   0.021567  -0.019373  -0.020009
     17      -0.000020   0.000007  -0.000037  -0.000035   0.000042   0.000044
     18      -0.233958   0.112616  -0.438239  -0.378850   0.419997   0.403941
     19      -0.134374   0.062413  -0.255734  -0.222096   0.241934   0.233376
     20       0.000245  -0.000134   0.000447   0.000396  -0.000443  -0.000422
     21      -0.013027  -0.010517  -0.022394  -0.017826  -0.026103  -0.024405
     22       0.250175   0.162167   0.487801   0.409964   0.508116   0.486966
     23       0.000003   0.000021  -0.000003   0.000004   0.000014   0.000009
     24       0.490893   0.618456   0.002716  -0.325056  -0.002914  -0.186610
     25      -0.267893  -0.337496  -0.005282   0.177424  -0.002421   0.101809
     26       0.000487   0.000601   0.000002  -0.000321  -0.000001  -0.000168
     27      -0.218362  -0.146707   0.423890  -0.359969   0.436533  -0.416821
     28      -0.125688  -0.082100   0.247477  -0.211237   0.251581  -0.240952
     29       0.000228   0.000170  -0.000434   0.000378  -0.000462   0.000438
     30      -0.014209   0.008534   0.023278  -0.018924  -0.025433   0.023557
     31       0.268062  -0.123100  -0.504960   0.430870   0.493266  -0.467946
     32       0.000004  -0.000020   0.000006   0.000001   0.000011  -0.000006
     33       0.561157  -0.561661  -0.001928  -0.320829  -0.003752   0.174442
     34      -0.306242   0.306505   0.004987   0.175120  -0.001832  -0.095185
     35       0.000557  -0.000546  -0.000001  -0.000317  -0.000002   0.000156


-----------
IR SPECTRUM
-----------

 Mode   freq       eps      Int      T**2         TX        TY        TZ
       cm**-1   L/(mol*cm) km/mol    a.u.
----------------------------------------------------------------------------
  6:    293.97   0.000655    3.31  0.000695  ( 0.000213 -0.000117  0.026368)
  7:    319.50   0.000000    0.00  0.000000  ( 0.000007  0.000008 -0.000001)
  8:    346.93   0.000000    0.00  0.000000  ( 0.000035  0.000078  0.000162)
  9:    426.14   0.000000    0.00  0.000000  (-0.000001  0.000000 -0.000008)
 10:    601.23   0.000000    0.00  0.000000  (-0.000003  0.000001  0.000000)
 11:    681.10   0.016541   83.59  0.007579  (-0.000028 -0.000031 -0.087056)
 12:    798.41   0.000000    0.00  0.000000  (-0.000000 -0.000000  0.000000)
 13:    906.94   0.000000    0.00  0.000000  (-0.000001  0.000001  0.000048)
 14:    976.32   0.004932   24.92  0.001576  ( 0.034853 -0.019015 -0.000049)
 15:    992.49   0.000000    0.00  0.000000  ( 0.000002 -0.000003  0.000001)
 16:    999.46   0.000000    0.00  0.000000  (-0.000021  0.000012  0.000005)
 17:   1005.72   0.001075    5.43  0.000334  (-0.000264  0.000172  0.018259)
 18:   1007.12   0.000114    0.58  0.000035  ( 0.005140 -0.002821  0.001002)
 19:   1029.12   0.000000    0.00  0.000000  ( 0.000016  0.000018  0.000064)
 20:   1044.97   0.000000    0.00  0.000000  ( 0.000001 -0.000001  0.000034)
 21:   1080.35   0.002624   13.26  0.000758  (-0.013198 -0.024160  0.000006)
 22:   1188.09   0.000329    1.66  0.000086  ( 0.004400  0.008185 -0.000002)
 23:   1206.27   0.000000    0.00  0.000000  ( 0.000012 -0.000008  0.000000)
 24:   1374.59   0.000000    0.00  0.000000  ( 0.000003  0.000009 -0.000000)
 25:   1380.77   0.000000    0.00  0.000000  ( 0.000008  0.000009  0.000000)
 26:   1452.31   0.026630  134.58  0.005722  (-0.067718  0.033710  0.000034)
 27:   1457.66   0.004808   24.30  0.001029  ( 0.007923  0.031089 -0.000005)
 28:   1565.54   0.014189   71.70  0.002828  (-0.025153 -0.046857  0.000019)
 29:   1715.02   0.000000    0.00  0.000000  (-0.000002  0.000001 -0.000000)
 30:   3219.75   0.000500    2.53  0.000049  ( 0.006080 -0.003397  0.000031)
 31:   3224.48   0.000001    0.00  0.000000  ( 0.000202 -0.000117  0.000002)
 32:   3232.05   0.000002    0.01  0.000000  (-0.000180 -0.000359  0.000000)
 33:   3235.71   0.003792   19.16  0.000366  (-0.016918  0.008917 -0.000006)
 34:   3243.10   0.005787   29.25  0.000557  ( 0.011151  0.020797 -0.000017)
 35:   3245.94   0.000001    0.01  0.000000  (-0.000304  0.000218 -0.000000)

* The epsilon (eps) is given for a Dirac delta lineshape.
** The dipole moment derivative (T) already includes vibrational overlap.

The first frequency considered to be a vibration is 6
The total number of vibrations considered is 30


--------------------------
THERMOCHEMISTRY AT 298.15K
--------------------------

Temperature         ...   298.15 K
Pressure            ...     1.00 atm
Total Mass          ...    78.11 AMU
Quasi RRHO          ...     True
Cut-Off Frequency   ...     1.00 cm^-1

Throughout the following assumptions are being made:
  (1) The electronic state is orbitally nondegenerate
      but the spin degeneracy is treated
  (2) There are no thermally accessible electronically excited states
  (3) Hindered rotations indicated by low frequency modes are not
      treated as such but are treated as vibrations and this may
      cause some error
  (4) All equations used are the standard statistical mechanics
      equations for an ideal gas
  (5) All vibrations are strictly harmonic

freq.     293.97  E(vib)   ...       0.27 
freq.     319.50  E(vib)   ...       0.25 
freq.     346.93  E(vib)   ...       0.23 
freq.     426.14  E(vib)   ...       0.18 
freq.     601.23  E(vib)   ...       0.10 
freq.     681.10  E(vib)   ...       0.08 
freq.     798.41  E(vib)   ...       0.05 
freq.     906.94  E(vib)   ...       0.03 
freq.     976.32  E(vib)   ...       0.03 
freq.     992.49  E(vib)   ...       0.02 
freq.     999.46  E(vib)   ...       0.02 
freq.    1005.72  E(vib)   ...       0.02 
freq.    1007.12  E(vib)   ...       0.02 
freq.    1029.12  E(vib)   ...       0.02 
freq.    1044.97  E(vib)   ...       0.02 
freq.    1080.35  E(vib)   ...       0.02 
freq.    1188.09  E(vib)   ...       0.01 
freq.    1206.27  E(vib)   ...       0.01 
freq.    1374.59  E(vib)   ...       0.01 
freq.    1380.77  E(vib)   ...       0.01 
freq.    1452.31  E(vib)   ...       0.00 
freq.    1457.66  E(vib)   ...       0.00 
freq.    1565.54  E(vib)   ...       0.00 
freq.    1715.02  E(vib)   ...       0.00 
freq.    3219.75  E(vib)   ...       0.00 
freq.    3224.48  E(vib)   ...       0.00 
freq.    3232.05  E(vib)   ...       0.00 
freq.    3235.71  E(vib)   ...       0.00 
freq.    3243.10  E(vib)   ...       0.00 
freq.    3245.94  E(vib)   ...       0.00 

------------
INNER ENERGY
------------

The inner energy is: U= E(el) + E(ZPE) + E(vib) + E(rot) + E(trans)
    E(el)   - is the total energy from the electronic structure calculation
              = E(kin-el) + E(nuc-el) + E(el-el) + E(nuc-nuc)
    E(ZPE)  - the the zero temperature vibrational energy from the frequency calculation
    E(vib)  - the the finite temperature correction to E(ZPE) due to population
              of excited vibrational states
    E(rot)  - is the rotational thermal energy
    E(trans)- is the translational thermal energy

Summary of contributions to the inner energy U:
Electronic energy                ...   -231.46055201 Eh
Zero point energy                ...      0.09853320 Eh      61.83 kcal/mol
Thermal vibrational correction   ...      0.00223061 Eh       1.40 kcal/mol
Thermal rotational correction    ...      0.00141627 Eh       0.89 kcal/mol
Thermal translational correction ...      0.00141627 Eh       0.89 kcal/mol
-----------------------------------------------------------------------
Total thermal energy                   -231.35695566 Eh


Summary of corrections to the electronic energy:
(perhaps to be used in another calculation)
Total thermal correction                  0.00506315 Eh       3.18 kcal/mol
Non-thermal (ZPE) correction              0.09853320 Eh      61.83 kcal/mol
-----------------------------------------------------------------------
Total correction                          0.10359635 Eh      65.01 kcal/mol


--------
ENTHALPY
--------

The enthalpy is H = U + kB*T
                kB is Boltzmann's constant
Total thermal energy              ...   -231.35695566 Eh 
Thermal Enthalpy correction       ...      0.00094421 Eh       0.59 kcal/mol
-----------------------------------------------------------------------
Total Enthalpy                    ...   -231.35601145 Eh


Note: Rotational entropy computed according to Herzberg 
Infrared and Raman Spectra, Chapter V,1, Van Nostrand Reinhold, 1945 
Point Group:  Ci, Symmetry Number:   1  
Rotational constants in cm-1:     0.193350     0.179303     0.093031 

Vibrational entropy computed according to the QRRHO of S. Grimme
Chem.Eur.J. 2012 18 9955 using a reference frequency of 100.0 cm-1


-------
ENTROPY
-------

The entropy contributions are T*S = T*(S(el)+S(vib)+S(rot)+S(trans))
     S(el)   - electronic entropy
     S(vib)  - vibrational entropy
     S(rot)  - rotational entropy
     S(trans)- translational entropy
The entropies will be listed as multiplied by the temperature to get
units of energy

Electronic entropy                ...      0.00065446 Eh      0.41 kcal/mol
Vibrational entropy               ...      0.00324045 Eh      2.03 kcal/mol
Rotational entropy                ...      0.01221908 Eh      7.67 kcal/mol
Translational entropy             ...      0.01852142 Eh     11.62 kcal/mol
-----------------------------------------------------------------------
Final entropy term                ...      0.03463541 Eh     21.73 kcal/mol

In case the symmetry of your molecule has not been determined correctly
or in case you have a reason to use a different symmetry number we print 
out the resulting rotational entropy values for sn=1,12:

 non-linear molecules -----------------------------------
|  sn= 1 | S(rot)=       0.01221908 Eh      7.67 kcal/mol|
|  sn= 2 | S(rot)=       0.01156462 Eh      7.26 kcal/mol|
|  sn= 3 | S(rot)=       0.01118179 Eh      7.02 kcal/mol|
|  sn= 4 | S(rot)=       0.01091017 Eh      6.85 kcal/mol|
|  sn= 5 | S(rot)=       0.01069948 Eh      6.71 kcal/mol|
|  sn= 6 | S(rot)=       0.01052733 Eh      6.61 kcal/mol|
|  sn= 7 | S(rot)=       0.01038179 Eh      6.51 kcal/mol|
|  sn= 8 | S(rot)=       0.01025571 Eh      6.44 kcal/mol|
|  sn= 9 | S(rot)=       0.01014450 Eh      6.37 kcal/mol|
|  sn=10 | S(rot)=       0.01004502 Eh      6.30 kcal/mol|
|  sn=11 | S(rot)=       0.00995503 Eh      6.25 kcal/mol|
|  sn=12 | S(rot)=       0.00987288 Eh      6.20 kcal/mol|
 linear molecules ---------------------------------------
|  Dinfh | S(rot)=       0.00756807 Eh      4.75 kcal/mol|
|  Cinfv | S(rot)=       0.00822253 Eh      5.16 kcal/mol|
 --------------------------------------------------------


-------------------
GIBBS FREE ENERGY
-------------------

The Gibbs free energy is G = H - T*S

Total enthalpy                    ...   -231.35601145 Eh 
Total entropy correction          ...     -0.03463541 Eh    -21.73 kcal/mol
-----------------------------------------------------------------------
Final Gibbs free energy         ...   -231.39064686 Eh

For completeness - the Gibbs free energy minus the electronic energy
G-E(el)                           ...      0.06990515 Eh     43.87 kcal/mol


Maximum memory used throughout the entire PROP-calculation: 39.9 MB

--------------------------------
SUGGESTED CITATIONS FOR THIS RUN
--------------------------------

Below you find a list of papers that are relevant to this ORCA run
We neither can nor want to force you to cite these papers, but we appreciate if you do
You receive ORCA, which is the product of decades of hard work by many enthusiastic individuals, for free
The only thing we kindly ask in return is that you cite our papers,
We deeply appreciate it, if you show your appreciation for ORCA by not just citing the generic ORCA reference.

Please note that relegating all ORCA citations to the supporting information does *not* help us.
SI sections are not indexed - citations you put there will not count into any citation statistics
But we need these citations in order to attract the funding resources that allow us to do what we are doing

Therefore, if you are a happy ORCA user, please consider citing a few of the papers listed below in the main body of your paper

In addition to the list printed below, the program has created the file cs_rporg_016_ox_opt_01.bibtex that contains the list in bibtex format
You can import this file easily into all common literature databanks and citation aid programs


List of essential papers. We consider these as the minimum necessary citations

  1. Neese,F.
     Software update: the ORCA program system, version 5.0
     WIRES Comput. Molec. Sci., 2022 12(1)e1606
     doi.org/10.1002/wcms.1606

List of papers to cite with high priority. The work reported in these papers was absolutely
necessary for this run to complete.
Our perspective: the developers of density functionals and basis sets usually get cited in chemistry papers
Good! But without the algorithms to do something with them, the functionals or basis sets would not do anything.
Hence, in our opinion, the algorithm design and method developments papers are equally worthy of getting cited

  1. Neese,F.
     An improvement of the resolution of the identity approximation for the formation of the Coulomb matrix
     J. Comp. Chem., 2003 24(14)1740-1747
     doi.org/10.1002/jcc.10318
  2. Neese,F.; Wennmohs,F.; Hansen,A.; Becker,U.
     Efficient, approximate and parallel Hartree-Fock and hybrid DFT calculations. A 'chain-of-spheres' algorithm for the Hartree-Fock exchange
     Chem. Phys., 2009 356(1-3)98-109
     doi.org/10.1016/j.chemphys.2008.10.036
  3. Bykov,D.; Petrenko,T.; Izsak,R.; Kossmann,S.; Becker,U.; Valeev,E.; Neese,F.
     Efficient implementation of the analytic second derivatives of Hartree-Fock and hybrid DFT energies: a detailed analysis of different approximations
     Molec. Phys., 2015 113 1961-1977
     doi.org/10.1080/00268976.2015.1025114
  4. Helmich-Paris,B.; de Souza,B.; Neese,F.; Izsák,R.
     An improved chain of spheres for exchange algorithm
     J. Chem. Phys., 2021 155 104109
     doi.org/doi: 10.1063/5.0058766.
  5. Neese,F.
     The SHARK Integral Generation and Digestion System
     J. Comp. Chem., 2022  1-16
     doi.org/10.1002/jcc.26942
  6. Grimme,S.; Antony,J.; Ehrlich,S.; Krieg,H.
     A consistent and accurate ab initio parametrization of density functional dispersion correction (DFT-D) for the 94 elements H-Pu
     J. Chem. Phys., 2010 132 154104-XXXX
     doi.org/10.1063/1.3382344
  7. Grimme,S.; Ehrlich,S.; Goerigk,L.
     Effect of the damping function in dispersion corrected density functional theory
     J. Comput. Chem., 2011 32(7)1456-1465
     doi.org/10.1002/jcc.21759

List of suggested additional citations. These are papers that are important in the 'surrounding' of 
of this run, or papers that preceded the highly important papers. If you like your results we are grateful for a citation.

  1. Izsak,R.; Neese,F.
     An overlap fitted chain of spheres exchange method
     J. Chem. Phys., 2011 135 144105
     doi.org/10.1063/1.3646921
  2. Izsak,R.; Hansen,A.; Neese,F.
     The resolution of identity and chain of spheres approximations for the LPNO-CCSD singles Fock term
     Molec. Phys., 2012 110 2413-2417
     doi.org/10.1080/00268976.2012.687466
  3. Neese,F.
     The ORCA program system
     WIRES Comput. Molec. Sci., 2012 2(1)73-78
     doi.org/10.1002/wcms.81
  4. Izsak,R.; Neese,F.; Klopper,W.
     Robust fitting techniques in the chain of spheres approximation to the Fock exchange: The role of the complementary space
     J. Chem. Phys., 2013 139 
     doi.org/10.1063/1.4819264
  5. Neese,F.
     Software update: the ORCA program system, version 4.0
     WIRES Comput. Molec. Sci., 2018 8(1)1-6
     doi.org/10.1002/wcms.1327
  6. Neese,F.; Wennmohs,F.; Becker,U.; Riplinger,C.
     The ORCA quantum chemistry program package
     J. Chem. Phys., 2020 152 Art. No. L224108
     doi.org/10.1063/5.0004608

List of optional additional citations

  1. Neese,F.
     Approximate second-order SCF convergence for spin unrestricted wavefunctions
     Chem. Phys. Lett., 2000 325(1-3)93-98
     doi.org/10.1016/s0009-2614(00)00662-x

Timings for individual modules:

Sum of individual times          ...      755.717 sec (=  12.595 min)
Startup calculation              ...       52.543 sec (=   0.876 min)   7.0 %
SCF iterations                   ...      484.883 sec (=   8.081 min)  64.2 %
Property integrals               ...       40.355 sec (=   0.673 min)   5.3 %
SCF Response                     ...       43.071 sec (=   0.718 min)   5.7 %
Property calculations            ...       32.186 sec (=   0.536 min)   4.3 %
SCF Gradient evaluation          ...      101.457 sec (=   1.691 min)  13.4 %
Geometry relaxation              ...        1.221 sec (=   0.020 min)   0.2 %
                             ****ORCA TERMINATED NORMALLY****
TOTAL RUN TIME: 0 days 0 hours 13 minutes 27 seconds 879 msec
