 vasp.6.3.2 27Jun22 (build Oct 25 2024 11:36:28) complex                        
  
 executed on             LinuxIFC date 2025.01.04  09:27:59
 running on   80 total cores
 distrk:  each k-point on   80 cores,    1 groups
 distr:  one band on NCORE=  10 cores,    8 groups


--------------------------------------------------------------------------------------------------------


 INCAR:
   SYSTEM = 016_red
   ISTART = 1
   ICHARG = 2
   INIWAV = 1
   METAGGA = R2SCAN
   LASPH = .TRUE.
   NELM = 100
   ALGO = fast   	
   ISPIN = 2
   EDIFF = 1E-05
   ISMEAR = 0
   SIGMA = 0.05
   PREC = accurate
   ENCUT = 500
   LREAL = auto  	
   LWAVE = .TRUE.
   LCHARG = .FALSE.
   LAECHG = .FALSE.
   LVHAR = .FALSE.
   LVTOT = .FALSE.
   EDIFFG = -0.02
   IBRION = 2
   NSW = 500
   ISIF = 2
   POTIM = 0.5
   IVDW = 12
   VDW_A1 = 0.49484001
   VDW_S8 = 0.78981345
   VDW_A2 = 5.73083694
   LPLANE = .TRUE.
   NCORE = 10
   LSCALU = .FALSE.
   NSIM = 4
   LSOL = .TRUE.
   ISOL = 2
   EPSILON_INF = 1.8069
   N_MOL = 0.0115
   P_MOL = 0.82
   R_SOLV = 2.1900
   EB_K = 35.6880

 POTCAR:    PAW_PBE C 08Apr2002                   
 POTCAR:    PAW_PBE H 15Jun2001                   
 -----------------------------------------------------------------------------
|                                                                             |
|           W    W    AA    RRRRR   N    N  II  N    N   GGGG   !!!           |
|           W    W   A  A   R    R  NN   N  II  NN   N  G    G  !!!           |
|           W    W  A    A  R    R  N N  N  II  N N  N  G       !!!           |
|           W WW W  AAAAAA  RRRRR   N  N N  II  N  N N  G  GGG   !            |
|           WW  WW  A    A  R   R   N   NN  II  N   NN  G    G                |
|           W    W  A    A  R    R  N    N  II  N    N   GGGG   !!!           |
|                                                                             |
|     You use a magnetic or noncollinear calculation, but did not specify     |
|     the initial magnetic moment with the MAGMOM tag. Note that a            |
|     default of 1 will be used for all atoms. This ferromagnetic setup       |
|     may break the symmetry of the crystal, in particular it may rule        |
|     out finding an antiferromagnetic solution. Thence, we recommend         |
|     setting the initial magnetic moment manually or verifying carefully     |
|     that this magnetic setup is desired.                                    |
|                                                                             |
 -----------------------------------------------------------------------------

 POTCAR:    PAW_PBE C 08Apr2002                   
   SHA256 =  253f7b50bb8d59471dbedb8285d89021f4a42ed1a2c5d38a03a736e69125dd95 C/POTCAR              
   COPYR  = (c) Copyright 08Apr2002 Georg Kresse                                                    
   COPYR  = This file is part of the software VASP. Any use, copying, and all other rights are regul
   COPYR  = If you do not have a valid VASP license, you may not use, copy or distribute this file. 
   VRHFIN =C: s2p2                                                                                  
   LEXCH  = PE                                                                                      
   EATOM  =   147.1560 eV,   10.8157 Ry                                                             
                                                                                                    
   TITEL  = PAW_PBE C 08Apr2002                                                                     
   LULTRA =        F    use ultrasoft PP ?                                                          
   IUNSCR =        1    unscreen: 0-lin 1-nonlin 2-no                                               
   RPACOR =    1.200    partial core radius                                                         
   POMASS =   12.011; ZVAL   =    4.000    mass and valenz                                          
   RCORE  =    1.500    outmost cutoff radius                                                       
   RWIGS  =    1.630; RWIGS  =    0.863    wigner-seitz radius (au A)                               
   ENMAX  =  400.000; ENMIN  =  300.000 eV                                                          
   ICORE  =        2    local potential                                                             
   LCOR   =        T    correct aug charges                                                         
   LPAW   =        T    paw PP                                                                      
   EAUG   =  644.873                                                                                
   DEXC   =    0.000                                                                                
   RMAX   =    1.529    core radius for proj-oper                                                   
   RAUG   =    1.300    factor for augmentation sphere                                              
   RDEP   =    1.501    radius for radial grids                                                     
   RDEPT  =    1.300    core radius for aug-charge                                                  
                                                                                                    
   Atomic configuration                                                                             
    4 entries                                                                                       
     n  l   j            E        occ.                                                              
     1  0  0.50      -273.3789   2.0000                                                             
     2  0  0.50       -13.7508   2.0000                                                             
     2  1  0.50        -5.2854   2.0000                                                             
     3  2  1.50        -5.4423   0.0000                                                             
   Description                                                                                      
     l       E           TYP  RCUT    TYP  RCUT                                                     
     0    -13.7508458     23  1.200                                                                 
     0     -8.2022199     23  1.200                                                                 
     1     -5.2854383     23  1.500                                                                 
     1     34.0145650     23  1.500                                                                 
     2     -5.4423304      7  1.500                                                                 
  local pseudopotential read in
  partial core-charges read in
  partial kinetic energy density read in
  atomic valenz-charges read in
  non local Contribution for L=           0  read in
    real space projection operators read in
  non local Contribution for L=           0  read in
    real space projection operators read in
  non local Contribution for L=           1  read in
    real space projection operators read in
  non local Contribution for L=           1  read in
    real space projection operators read in
    PAW grid and wavefunctions read in
 
   number of l-projection  operators is LMAX  =           4
   number of lm-projection operators is LMMAX =           8
 
 POTCAR:    PAW_PBE H 15Jun2001                   
   SHA256 =  030f79b5d3ab3cf0e668861823c8fb652ff669f3e15e46930bd03bfd63a607b6 H/POTCAR              
   COPYR  = (c) Copyright 15Jun2001 Georg Kresse                                                    
   COPYR  = This file is part of the software VASP. Any use, copying, and all other rights are regul
   COPYR  = If you do not have a valid VASP license, you may not use, copy or distribute this file. 
   VRHFIN =H: ultrasoft test                                                                        
   LEXCH  = PE                                                                                      
   EATOM  =    12.4884 eV,    0.9179 Ry                                                             
                                                                                                    
   TITEL  = PAW_PBE H 15Jun2001                                                                     
   LULTRA =        F    use ultrasoft PP ?                                                          
   IUNSCR =        0    unscreen: 0-lin 1-nonlin 2-no                                               
   RPACOR =    0.000    partial core radius                                                         
   POMASS =    1.000; ZVAL   =    1.000    mass and valenz                                          
   RCORE  =    1.100    outmost cutoff radius                                                       
   RWIGS  =    0.700; RWIGS  =    0.370    wigner-seitz radius (au A)                               
   ENMAX  =  250.000; ENMIN  =  200.000 eV                                                          
   RCLOC  =    0.701    cutoff for local pot                                                        
   LCOR   =        T    correct aug charges                                                         
   LPAW   =        T    paw PP                                                                      
   EAUG   =  400.000                                                                                
   RMAX   =    1.123    core radius for proj-oper                                                   
   RAUG   =    1.200    factor for augmentation sphere                                              
   RDEP   =    1.112    radius for radial grids                                                     
   RDEPT  =    0.926    core radius for aug-charge                                                  
                                                                                                    
   Atomic configuration                                                                             
    2 entries                                                                                       
     n  l   j            E        occ.                                                              
     1  0  0.50        -6.4927   1.0000                                                             
     2  1  0.50        -3.4015   0.0000                                                             
   Description                                                                                      
     l       E           TYP  RCUT    TYP  RCUT                                                     
     0     -6.4927494     23  1.100                                                                 
     0      6.8029130     23  1.100                                                                 
     1     -4.0817478     23  1.100                                                                 
  local pseudopotential read in
  atomic valenz-charges read in
  non local Contribution for L=           0  read in
    real space projection operators read in
  non local Contribution for L=           0  read in
    real space projection operators read in
  non local Contribution for L=           1  read in
    real space projection operators read in
    PAW grid and wavefunctions read in
 
   number of l-projection  operators is LMAX  =           3
   number of lm-projection operators is LMMAX =           5
 
 Optimization of the real space projectors (new method)

 maximal supplied QI-value         = 25.13
 optimisation between [QCUT,QGAM] = [ 11.31, 22.87] = [ 35.82,146.48] Ry 
 Optimized for a Real-space Cutoff    1.03 Angstroem

   l    n(q)    QCUT    max X(q) W(low)/X(q) W(high)/X(q)  e(spline) 
   0      7    11.310   115.676    0.20E-03    0.90E-03    0.20E-06
   0      7    11.310    87.132    0.20E-03    0.89E-03    0.19E-06
   1      6    11.310     4.429    0.16E-03    0.28E-03    0.12E-06
   1      6    11.310     2.733    0.12E-03    0.21E-03    0.99E-07
 Optimization of the real space projectors (new method)

 maximal supplied QI-value         = 34.20
 optimisation between [QCUT,QGAM] = [ 11.29, 22.57] = [ 35.68,142.71] Ry 
 Optimized for a Real-space Cutoff    1.20 Angstroem

   l    n(q)    QCUT    max X(q) W(low)/X(q) W(high)/X(q)  e(spline) 
   0      8    11.287    19.460    0.22E-03    0.50E-03    0.19E-06
   0      8    11.287    12.209    0.21E-03    0.48E-03    0.18E-06
   1      8    11.287     4.655    0.21E-03    0.11E-04    0.26E-06
  PAW_PBE C 08Apr2002                   :
 energy of atom  1       EATOM= -147.1560
 kinetic energy error for atom=    0.0076 (will be added to EATOM!!)
  PAW_PBE H 15Jun2001                   :
 energy of atom  2       EATOM=  -12.4884
 kinetic energy error for atom=    0.0020 (will be added to EATOM!!)
 
 
 POSCAR: C H
  positions in direct lattice
  velocities in cartesian coordinates

 METAGGA = R2SCA    LMAXTAU =  6    LMIXTAU =  F

 exchange correlation table for  LEXCH =        8
   RHO(1)=    0.500       N(1)  =     2000
   RHO(2)=  100.500       N(2)  =     4000
 
 POSCAR: C H
  positions in direct lattice
  velocities in cartesian coordinates
 
 POSCAR: C H
  positions in direct lattice
  velocities in cartesian coordinates
 


--------------------------------------------------------------------------------------------------------


 ion  position               nearest neighbor table
   1  0.469  0.517  0.500-  12 1.08   6 1.39   2 1.39
   2  0.499  0.535  0.500-  11 1.08   1 1.39   3 1.39
   3  0.530  0.518  0.500-  10 1.08   4 1.39   2 1.39
   4  0.531  0.483  0.500-   9 1.08   3 1.39   5 1.39
   5  0.501  0.465  0.500-   8 1.08   4 1.39   6 1.39
   6  0.470  0.482  0.500-   7 1.08   1 1.39   5 1.39
   7  0.447  0.468  0.500-   6 1.08
   8  0.502  0.438  0.500-   5 1.08
   9  0.554  0.470  0.500-   4 1.08
  10  0.553  0.532  0.500-   3 1.08
  11  0.498  0.562  0.500-   2 1.08
  12  0.446  0.530  0.500-   1 1.08
 
  LATTYP: Found a simple cubic cell.
 ALAT       =    40.0000000000
  
  Lattice vectors:
  
 A1 = (  40.0000000000,   0.0000000000,   0.0000000000)
 A2 = (   0.0000000000,  40.0000000000,   0.0000000000)
 A3 = (   0.0000000000,   0.0000000000,  40.0000000000)


Analysis of symmetry for initial positions (statically):
=====================================================================
 Subroutine PRICEL returns:
 Original cell was already a primitive cell.
 

 Routine SETGRP: Setting up the symmetry group for a 
 simple cubic supercell.


 Subroutine GETGRP returns: Found  4 space group operations
 (whereof  4 operations were pure point group operations)
 out of a pool of 48 trial point group operations.


The static configuration has the point symmetry C_2h.


Analysis of symmetry for dynamics (positions and initial velocities):
=====================================================================
 Subroutine PRICEL returns:
 Original cell was already a primitive cell.
 

 Routine SETGRP: Setting up the symmetry group for a 
 simple cubic supercell.


 Subroutine GETGRP returns: Found  4 space group operations
 (whereof  4 operations were pure point group operations)
 out of a pool of 48 trial point group operations.


The dynamic configuration has the point symmetry C_2h.


Analysis of constrained symmetry for selective dynamics:
=====================================================================
 Subroutine PRICEL returns:
 Original cell was already a primitive cell.
 

 Routine SETGRP: Setting up the symmetry group for a 
 simple cubic supercell.


 Subroutine GETGRP returns: Found  4 space group operations
 (whereof  4 operations were pure point group operations)
 out of a pool of 48 trial point group operations.


The constrained configuration has the point symmetry C_2h.


Analysis of structural, dynamic, and magnetic symmetry:
=====================================================================
 Subroutine PRICEL returns:
 Original cell was already a primitive cell.
 

 Routine SETGRP: Setting up the symmetry group for a 
 simple cubic supercell.


 Subroutine GETGRP returns: Found  4 space group operations
 (whereof  4 operations were pure point group operations)
 out of a pool of 48 trial point group operations.


The overall configuration has the point symmetry C_2h.


 Subroutine INISYM returns: Found  4 space group operations
 (whereof  4 operations are pure point group operations),
 and found     1 'primitive' translations


----------------------------------------------------------------------------------------

                                     Primitive cell                                     

  volume of cell :   64000.0000

  direct lattice vectors                    reciprocal lattice vectors
    40.000000000  0.000000000  0.000000000     0.025000000  0.000000000  0.000000000
     0.000000000 40.000000000  0.000000000     0.000000000  0.025000000  0.000000000
     0.000000000  0.000000000 40.000000000     0.000000000  0.000000000  0.025000000

  length of vectors
    40.000000000 40.000000000 40.000000000     0.025000000  0.025000000  0.025000000

  position of ions in fractional coordinates (direct lattice)
     0.469400783  0.516661277  0.500000000
     0.499129138  0.534831180  0.500000000
     0.529728710  0.518168752  0.500000000
     0.530599217  0.483338723  0.500000000
     0.500870862  0.465168820  0.500000000
     0.470271290  0.481831248  0.500000000
     0.447129155  0.467684614  0.500000000
     0.501551097  0.438055270  0.500000000
     0.554421865  0.470372300  0.499999000
     0.552870845  0.532315386  0.500000000
     0.498448903  0.561944730  0.500000000
     0.445578135  0.529627700  0.500000000

  ion indices of the primitive-cell ions
   primitive index   ion index
                 1           1
                 2           2
                 3           3
                 4           4
                 5           5
                 6           6
                 7           7
                 8           8
                 9           9
                10          10
                11          11
                12          12

----------------------------------------------------------------------------------------

 
 
 KPOINTS: K-Point Grid                            

Automatic generation of k-mesh.
 Grid dimensions read from file:
 generate k-points for:    1    1    1

 Generating k-lattice:

  Cartesian coordinates                     Fractional coordinates (reciprocal lattice)
     0.025000000  0.000000000  0.000000000     1.000000000  0.000000000  0.000000000
     0.000000000  0.025000000  0.000000000     0.000000000  1.000000000  0.000000000
     0.000000000  0.000000000  0.025000000     0.000000000  0.000000000  1.000000000

  Length of vectors
     0.025000000  0.025000000  0.025000000

  Shift w.r.t. Gamma in fractional coordinates (k-lattice)
     0.000000000  0.000000000  0.000000000

 
 Subroutine IBZKPT returns following result:
 ===========================================
 
 Found      1 irreducible k-points:
 
 Following reciprocal coordinates:
            Coordinates               Weight
  0.000000  0.000000  0.000000      1.000000
 
 Following cartesian coordinates:
            Coordinates               Weight
  0.000000  0.000000  0.000000      1.000000
 


--------------------------------------------------------------------------------------------------------




 Dimension of arrays:
   k-points           NKPTS =      1   k-points in BZ     NKDIM =      1   number of bands    NBANDS=     32
   number of dos      NEDOS =    301   number of ions     NIONS =     12
   non local maximal  LDIM  =      4   non local SUM 2l+1 LMDIM =      8
   total plane-waves  NPLWV = ******
   max r-space proj   IRMAX =   2915   max aug-charges    IRDMAX=   4885
   dimension x,y,z NGX =   294 NGY =  294 NGZ =  294
   dimension x,y,z NGXF=   588 NGYF=  588 NGZF=  588
   support grid    NGXF=   588 NGYF=  588 NGZF=  588
   ions per type =               6   6
   NGX,Y,Z   is equivalent  to a cutoff of  12.22, 12.22, 12.22 a.u.
   NGXF,Y,Z  is equivalent  to a cutoff of  24.44, 24.44, 24.44 a.u.

 SYSTEM =  016_red                                 
 POSCAR =  C H                                     

 Startparameter for this run:
   NWRITE =      2    write-flag & timer
   PREC   = accura    normal or accurate (medium, high low for compatibility)
   ISTART =      1    job   : 0-new  1-cont  2-samecut
   ICHARG =      2    charge: 1-file 2-atom 10-const
   ISPIN  =      2    spin polarized calculation?
   LNONCOLLINEAR =      F non collinear calculations
   LSORBIT =      F    spin-orbit coupling
   INIWAV =      1    electr: 0-lowe 1-rand  2-diag
   LASPH  =      T    aspherical Exc in radial PAW
 Electronic Relaxation 1
   ENCUT  =  500.0 eV  36.75 Ry    6.06 a.u.  72.93 72.93 72.93*2*pi/ulx,y,z
   ENINI  =  500.0     initial cutoff
   ENAUG  =  644.9 eV  augmentation charge cutoff
   NELM   =    100;   NELMIN=  2; NELMDL=  0     # of ELM steps 
   EDIFF  = 0.1E-04   stopping-criterion for ELM
   LREAL  =      T    real-space projection
   NLSPLINE    = F    spline interpolate recip. space projectors
   LCOMPAT=      F    compatible to vasp.4.4
   GGA_COMPAT  = T    GGA compatible to vasp.4.4-vasp.4.6
   LMAXPAW     = -100 max onsite density
   LMAXMIX     =    2 max onsite mixed and CHGCAR
   VOSKOWN=      0    Vosko Wilk Nusair interpolation
   ROPT   =   -0.00025  -0.00025
 Ionic relaxation
   EDIFFG = -.2E-01   stopping-criterion for IOM
   NSW    =    500    number of steps for IOM
   NBLOCK =      1;   KBLOCK =    500    inner block; outer block 
   IBRION =      2    ionic relax: 0-MD 1-quasi-New 2-CG
   NFREE  =      1    steps in history (QN), initial steepest desc. (CG)
   ISIF   =      2    stress and relaxation
   IWAVPR =     11    prediction:  0-non 1-charg 2-wave 3-comb
   ISYM   =      2    0-nonsym 1-usesym 2-fastsym
   LCORR  =      T    Harris-Foulkes like correction to forces

   POTIM  = 0.5000    time-step for ionic-motion
   TEIN   =    0.0    initial temperature
   TEBEG  =    0.0;   TEEND  =   0.0 temperature during run
   SMASS  =  -3.00    Nose mass-parameter (am)
   estimated Nose-frequenzy (Omega)   =  0.10E-29 period in steps = 0.13E+47 mass=  -0.366E-25a.u.
   SCALEE = 1.0000    scale energy and forces
   NPACO  =    256;   APACO  = 10.0  distance and # of slots for P.C.
   PSTRESS=    0.0 pullay stress

  Mass of Ions in am
   POMASS =  12.01  1.00
  Ionic Valenz
   ZVAL   =   4.00  1.00
  Atomic Wigner-Seitz radii
   RWIGS  =  -1.00 -1.00
  virtual crystal weights 
   VCA    =   1.00  1.00
   NELECT =      30.0000    total number of electrons
   NUPDOWN=      -1.0000    fix difference up-down

 DOS related values:
   EMIN   =  10.00;   EMAX   =-10.00  energy-range for DOS
   EFERMI =   0.00
   ISMEAR =     0;   SIGMA  =   0.05  broadening in eV -4-tet -1-fermi 0-gaus

 Electronic relaxation 2 (details)
   IALGO  =     68    algorithm
   LDIAG  =      T    sub-space diagonalisation (order eigenvalues)
   LSUBROT=      F    optimize rotation matrix (better conditioning)
   TURBO    =      0    0=normal 1=particle mesh
   IRESTART =      0    0=no restart 2=restart with 2 vectors
   NREBOOT  =      0    no. of reboots
   NMIN     =      0    reboot dimension
   EREF     =   0.00    reference energy to select bands
   IMIX   =      4    mixing-type and parameters
     AMIX     =   0.40;   BMIX     =  1.00
     AMIX_MAG =   1.60;   BMIX_MAG =  1.00
     AMIN     =   0.10
     WC   =   100.;   INIMIX=   1;  MIXPRE=   1;  MAXMIX= -45

 Intra band minimization:
   WEIMIN = 0.0010     energy-eigenvalue tresh-hold
   EBREAK =  0.78E-07  absolut break condition
   DEPER  =   0.30     relativ break condition  

   TIME   =   0.40     timestep for ELM

  volume/ion in A,a.u.               =    5333.33     35991.11
  Fermi-wavevector in a.u.,A,eV,Ry     =   0.127171  0.240319  0.220040  0.016173
  Thomas-Fermi vector in A             =   0.760411
 
 Write flags
   LWAVE        =      T    write WAVECAR
   LDOWNSAMPLE  =      F    k-point downsampling of WAVECAR
   LCHARG       =      F    write CHGCAR
   LVTOT        =      F    write LOCPOT, total local potential
   LVHAR        =      F    write LOCPOT, Hartree potential only
   LELF         =      F    write electronic localiz. function (ELF)
   LORBIT       =      0    0 simple, 1 ext, 2 COOP (PROOUT), +10 PAW based schemes


 Dipole corrections
   LMONO  =      F    monopole corrections only (constant potential shift)
   LDIPOL =      F    correct potential (dipole corrections)
   IDIPOL =      0    1-x, 2-y, 3-z, 4-all directions 
   EPSILON=  1.0000000 bulk dielectric constant

 Exchange correlation treatment:
   GGA     =    --    GGA type
   LEXCH   =     8    internal setting for exchange type
   LIBXC   =     F    Libxc                    
   VOSKOWN =     0    Vosko Wilk Nusair interpolation
   LHFCALC =     F    Hartree Fock is set to
   LHFONE  =     F    Hartree Fock one center treatment
   AEXX    =    0.0000 exact exchange contribution

 Linear response parameters
   LEPSILON=     F    determine dielectric tensor
   LRPA    =     F    only Hartree local field effects (RPA)
   LNABLA  =     F    use nabla operator in PAW spheres
   LVEL    =     F    velocity operator in full k-point grid
   CSHIFT  =0.1000    complex shift for real part using Kramers Kronig
   OMEGAMAX=  -1.0    maximum frequency
   DEG_THRESHOLD= 0.2000000E-02 threshold for treating states as degnerate
   RTIME   =   -0.100 relaxation time in fs
  (WPLASMAI=    0.000 imaginary part of plasma frequency in eV, 0.658/RTIME)
   DFIELD  = 0.0000000 0.0000000 0.0000000 field for delta impulse in time
 
  Optional k-point grid parameters
   LKPOINTS_OPT  =     F    use optional k-point grid
   KPOINTS_OPT_MODE=     1    mode for optional k-point grid
 
 Orbital magnetization related:
   ORBITALMAG=     F  switch on orbital magnetization
   LCHIMAG   =     F  perturbation theory with respect to B field
   DQ        =  0.001000  dq finite difference perturbation B field
   LLRAUG    =     F  two centre corrections for induced B field

 Solvation model:
   LSOL             =     T         switch on solvation model
   LSOL_SCF         =     T         include solvation in SCF
   ISOL             =     2         solvation model type
   EFERMI_ref       =  0.000000         reference Fermi level
   capacitance_init =  1.000000         initial capacitance
 Nonlinear solvation model:
   LNLDIEL     =     T         switch on non-linear dielectric mode
   LNLION      =     T         switch on non-linear ionic mode
   LNLTEST     =     F         test non-linear model in linear regime
   I_NLOC_SOL  =     1         type of nonlocal dielectric response
   NC_K        =  0.015000     cutoff charge density for cavities (1/Angstrom**3)
   TAU         =  0.000879     cavity formation energy (eV/Angstrom**2)
   SIGMA_K     =  0.600000     cavity width
   A_K         =  0.125000     smoothing length (Angstrom)
   R_SOLV      =  2.190000     solvent radius (Angstrom)
   R_CAV       =  0.000000     cavity radius (Angstrom)
   R_DIEL      =  1.000000     dielectric radius (Angstrom)
   R_ION       =  0.000000     ionic radius (Angstrom)
   R_B         =  0.000000     bound charge radius (Angstrom)
   SOLTEMP     =298.000000     solvent temperature (K)
   EB_K        = 35.688000     relative permittivity of the bulk solvent
   EPSILON_INF =  1.806900     optical relative permittivity of bulk solvent
   N_MOL       =  0.011500     molar density of solvent (1/Angstrom**3)
   P_MOL       =  0.820000     solvent dipole moment (e*Angstrom)
   C_MOLAR     =  0.000000     electrolyte concentration (mol/L)
   LAMBDA_D_K  =  0.000000     Debye length (Angstrom)
   ZION        =  1.000000     charge of ions in electrolyte (e)
   D_ION       = -1.000000     minimum ion packing diameter (Angstrom)



--------------------------------------------------------------------------------------------------------


 conjugate gradient relaxation of ions
   using selective dynamics as specified on POSCAR
 charge density and potential will be updated during run
 spin polarized calculation
 RMM-DIIS sequential band-by-band and
  variant of blocked Davidson during initial phase
 perform sub-space diagonalisation
    before iterative eigenvector-optimisation
 modified Broyden-mixing scheme, WC =      100.0
 initial mixing is a Kerker type mixing with AMIX =  0.4000 and BMIX =      1.0000
 Hartree-type preconditioning will be used
 using additional bands           17
 real space projection scheme for non local part
 use partial core corrections
 calculate Harris-corrections to forces 
   (improved forces if not selfconsistent)
 use gradient corrections 
 use of overlap-Matrix (Vanderbilt PP)
 Gauss-broadening in eV      SIGMA  =   0.05


--------------------------------------------------------------------------------------------------------


  energy-cutoff  :      500.00
  volume of cell :    64000.00
      direct lattice vectors                 reciprocal lattice vectors
    40.000000000  0.000000000  0.000000000     0.025000000  0.000000000  0.000000000
     0.000000000 40.000000000  0.000000000     0.000000000  0.025000000  0.000000000
     0.000000000  0.000000000 40.000000000     0.000000000  0.000000000  0.025000000

  length of vectors
    40.000000000 40.000000000 40.000000000     0.025000000  0.025000000  0.025000000


 
 old parameters found on file WAVECAR:
  energy-cutoff  :      500.00
  volume of cell :    64000.00
      direct lattice vectors                 reciprocal lattice vectors
    40.000000000  0.000000000  0.000000000     0.025000000  0.000000000  0.000000000
     0.000000000 40.000000000  0.000000000     0.000000000  0.025000000  0.000000000
     0.000000000  0.000000000 40.000000000     0.000000000  0.000000000  0.025000000

  length of vectors

 
 k-points in units of 2pi/SCALE and weight: K-Point Grid                            
   0.00000000  0.00000000  0.00000000       1.000
 
 k-points in reciprocal lattice and weights: K-Point Grid                            
   0.00000000  0.00000000  0.00000000       1.000
 
 position of ions in fractional coordinates (direct lattice) 
   0.46940078  0.51666128  0.50000000
   0.49912914  0.53483118  0.50000000
   0.52972871  0.51816875  0.50000000
   0.53059922  0.48333872  0.50000000
   0.50087086  0.46516882  0.50000000
   0.47027129  0.48183125  0.50000000
   0.44712916  0.46768461  0.50000000
   0.50155110  0.43805527  0.50000000
   0.55442187  0.47037230  0.49999900
   0.55287084  0.53231539  0.50000000
   0.49844890  0.56194473  0.50000000
   0.44557813  0.52962770  0.50000000
 
 position of ions in cartesian coordinates  (Angst):
  18.77603133 20.66645108 20.00000000
  19.96516554 21.39324718 20.00000000
  21.18914839 20.72675007 20.00000000
  21.22396867 19.33354892 20.00000000
  20.03483446 18.60675282 20.00000000
  18.81085161 19.27324993 20.00000000
  17.88516621 18.70738458 20.00000000
  20.06204388 17.52221081 20.00000000
  22.17687462 18.81489200 19.99996000
  22.11483379 21.29261542 20.00000000
  19.93795612 22.47778919 20.00000000
  17.82312538 21.18510800 20.00000000
 


--------------------------------------------------------------------------------------------------------


 k-point   1 :   0.0000 0.0000 0.0000  plane waves: 1624525

 maximum and minimum number of plane-waves per node :    162473   162437

 maximum number of plane-waves:   1624525
 maximum index in each direction: 
   IXMAX=   72   IYMAX=   72   IZMAX=   72
   IXMIN=  -72   IYMIN=  -72   IZMIN=  -72


 real space projection operators:
  total allocation   :       1322.86 KBytes
  max/ min on nodes  :        134.81        131.02


 parallel 3D FFT for wavefunctions:
    minimum data exchange during FFTs selected (reduces bandwidth)
 parallel 3D FFT for charge:
    minimum data exchange during FFTs selected (reduces bandwidth)


 total amount of memory used by VASP MPI-rank0   859218. kBytes
=======================================================================

   base      :      30000. kBytes
   nonlr-proj:        750. kBytes
   fftplans  :     167689. kBytes
   grid      :     639968. kBytes
   one-center:         12. kBytes
   wavefun   :      20799. kBytes
 
     INWAV:  cpu time      6.1332: real time      6.1506
 Broyden mixing: mesh for mixing (old mesh)
   NGX =145   NGY =145   NGZ =145
  (NGX  =588   NGY  =588   NGZ  =588)
  gives a total of ****** points

 initial charge density was supplied:
 charge density of overlapping atoms calculated
 number of electron      30.0000000 magnetization      12.0000000
 keeping initial charge density in first step


--------------------------------------------------------------------------------------------------------


 Maximum index for non-local projection operator          305
 Maximum index for augmentation-charges          131 (set IRDMAX)


--------------------------------------------------------------------------------------------------------


 First call to EWALD:  gamma=   0.044
 Maximum number of real-space cells 3x 3x 3
 Maximum number of reciprocal cells 3x 3x 3

    FEWALD:  cpu time      0.0028: real time      0.0028


--------------------------------------- Iteration      1(   1)  ---------------------------------------


    POTLOK:  cpu time      9.6493: real time      9.6776
    SETDIJ:  cpu time      0.4056: real time      0.4064
     EDDAV:  cpu time     34.4290: real time     34.5001
       DOS:  cpu time      0.0003: real time      0.0003
    CHARGE:  cpu time     47.1397: real time     47.2465
    MIXING:  cpu time      0.2480: real time      0.2483
    --------------------------------------------
      LOOP:  cpu time     91.8720: real time     92.0793

 eigenvalue-minimisations  :   144
 total energy-change (2. order) :-0.7816597E+02  (-0.5208960E+01)
 number of electron      29.9999992 magnetization      11.5376666
 augmentation part        0.7342624 magnetization      11.5517576

 Broyden mixing:
  rms(total) = 0.21843E+01    rms(broyden)= 0.21841E+01
  rms(prec ) = 0.22071E+01
  weight for this iteration     100.00

 Free energy of the ion-electron system (eV)
  ---------------------------------------------------
  alpha Z        PSCENC =         0.06461113
  Ewald energy   TEWEN  =      2350.25099946
  -Hartree energ DENC   =     -2959.92432330
  -exchange      EXHF   =         0.00000000
  -V(xc)+E(xc)   XCENC  =       112.21913927
  PAW double counting   =       644.42855108     -656.86756582
  entropy T*S    EENTRO =        -0.00000000
  eigenvalues    EBANDS =      -526.14649409
  atomic energy  EATOM  =       957.80910930
  Solvation  Ecorr_sol  =         0.00000000
  ---------------------------------------------------
  free energy    TOTEN  =       -78.16597297 eV

  energy without entropy =      -78.16597297  energy(sigma->0) =      -78.16597297


--------------------------------------------------------------------------------------------------------




--------------------------------------- Iteration      1(   2)  ---------------------------------------


    --------------------------------------------
      INIT:  cpu time      0.2531: real time      0.2534
  FINALIZE:  cpu time     22.9362: real time     22.9657
    --------------------------------------------
    POTLOK:  cpu time     32.9027: real time     32.9639
    SETDIJ:  cpu time      0.4074: real time      0.4082
    EDDIAG:  cpu time      7.5755: real time      7.5894
  RMM-DIIS:  cpu time     43.3522: real time     43.4394
    ORTHCH:  cpu time      0.0854: real time      0.0856
       DOS:  cpu time      0.0003: real time      0.0003
    CHARGE:  cpu time     48.1885: real time     48.3119
    MIXING:  cpu time      0.2005: real time      0.2008
    --------------------------------------------
      LOOP:  cpu time    132.7124: real time    132.9994

 eigenvalue-minimisations  :   129
 total energy-change (2. order) : 0.6137325E+01  (-0.4491985E+01)
 number of electron      29.9999992 magnetization      11.0388793
 augmentation part        0.7349894 magnetization      11.0140509

 Broyden mixing:
  rms(total) = 0.10483E+01    rms(broyden)= 0.10482E+01
  rms(prec ) = 0.10656E+01
  weight for this iteration     100.00

 eigenvalues of (default mixing * dielectric matrix)
  average eigenvalue GAMMA=   0.9503
  0.9503

 Free energy of the ion-electron system (eV)
  ---------------------------------------------------
  alpha Z        PSCENC =         0.06461113
  Ewald energy   TEWEN  =      2350.25099946
  -Hartree energ DENC   =     -3022.62374863
  -exchange      EXHF   =         0.00000000
  -V(xc)+E(xc)   XCENC  =       120.12149082
  PAW double counting   =      1249.83219104    -1262.96273219
  entropy T*S    EENTRO =        -0.00000000
  eigenvalues    EBANDS =      -461.63519241
  atomic energy  EATOM  =       957.80910930
  Solvation  Ecorr_sol  =        -2.88537692
  ---------------------------------------------------
  free energy    TOTEN  =       -72.02864840 eV

  energy without entropy =      -72.02864840  energy(sigma->0) =      -72.02864840


--------------------------------------------------------------------------------------------------------




--------------------------------------- Iteration      1(   3)  ---------------------------------------


    --------------------------------------------
      INIT:  cpu time      0.2530: real time      0.2533
  FINALIZE:  cpu time     27.2158: real time     27.2558
    --------------------------------------------
    POTLOK:  cpu time     37.1967: real time     37.2675
    SETDIJ:  cpu time      0.4069: real time      0.4077
    EDDIAG:  cpu time      7.5818: real time      7.6014
  RMM-DIIS:  cpu time     48.8686: real time     48.9769
    ORTHCH:  cpu time      0.0878: real time      0.0880
       DOS:  cpu time      0.0003: real time      0.0003
    CHARGE:  cpu time     48.2766: real time     48.4141
    MIXING:  cpu time      0.2003: real time      0.2004
    --------------------------------------------
      LOOP:  cpu time    142.6189: real time    142.9563

 eigenvalue-minimisations  :   147
 total energy-change (2. order) :-0.1073202E+02  (-0.1834725E+01)
 number of electron      29.9999992 magnetization      10.3951997
 augmentation part        0.7191989 magnetization      10.3628436

 Broyden mixing:
  rms(total) = 0.61719E+00    rms(broyden)= 0.61716E+00
  rms(prec ) = 0.62436E+00
  weight for this iteration     100.00

 eigenvalues of (default mixing * dielectric matrix)
  average eigenvalue GAMMA=   1.1384
  0.7961  1.4806

 Free energy of the ion-electron system (eV)
  ---------------------------------------------------
  alpha Z        PSCENC =         0.06461113
  Ewald energy   TEWEN  =      2350.25099946
  -Hartree energ DENC   =     -3068.66245283
  -exchange      EXHF   =         0.00000000
  -V(xc)+E(xc)   XCENC  =       113.57092995
  PAW double counting   =      1796.23357638    -1809.72921516
  entropy T*S    EENTRO =        -0.00000000
  eigenvalues    EBANDS =      -417.31084228
  atomic energy  EATOM  =       957.80910930
  Solvation  Ecorr_sol  =        -4.98738419
  ---------------------------------------------------
  free energy    TOTEN  =       -82.76066823 eV

  energy without entropy =      -82.76066823  energy(sigma->0) =      -82.76066823


--------------------------------------------------------------------------------------------------------




--------------------------------------- Iteration      1(   4)  ---------------------------------------


    --------------------------------------------
      INIT:  cpu time      0.2520: real time      0.2522
  FINALIZE:  cpu time     27.3379: real time     27.3796
    --------------------------------------------
    POTLOK:  cpu time     37.3227: real time     37.3945
    SETDIJ:  cpu time      0.4114: real time      0.4123
    EDDIAG:  cpu time      7.5889: real time      7.6045
  RMM-DIIS:  cpu time     53.4843: real time     53.5963
    ORTHCH:  cpu time      0.0962: real time      0.0964
       DOS:  cpu time      0.0003: real time      0.0003
    CHARGE:  cpu time     48.5125: real time     48.6291
    MIXING:  cpu time      0.2020: real time      0.2022
    --------------------------------------------
      LOOP:  cpu time    147.6182: real time    147.9355

 eigenvalue-minimisations  :   169
 total energy-change (2. order) :-0.3056818E+01  (-0.8901465E+00)
 number of electron      29.9999992 magnetization       9.8806923
 augmentation part        0.6992080 magnetization       9.8565498

 Broyden mixing:
  rms(total) = 0.38499E+00    rms(broyden)= 0.38496E+00
  rms(prec ) = 0.38812E+00
  weight for this iteration     100.00

 eigenvalues of (default mixing * dielectric matrix)
  average eigenvalue GAMMA=   1.2106
  1.8976  1.0496  0.6847

 Free energy of the ion-electron system (eV)
  ---------------------------------------------------
  alpha Z        PSCENC =         0.06461113
  Ewald energy   TEWEN  =      2350.25099946
  -Hartree energ DENC   =     -3102.74174412
  -exchange      EXHF   =         0.00000000
  -V(xc)+E(xc)   XCENC  =       113.00320832
  PAW double counting   =      2336.98841014    -2350.54021028
  entropy T*S    EENTRO =        -0.00000000
  eigenvalues    EBANDS =      -384.26339316
  atomic energy  EATOM  =       957.80910930
  Solvation  Ecorr_sol  =        -6.38847699
  ---------------------------------------------------
  free energy    TOTEN  =       -85.81748620 eV

  energy without entropy =      -85.81748620  energy(sigma->0) =      -85.81748620


--------------------------------------------------------------------------------------------------------




--------------------------------------- Iteration      1(   5)  ---------------------------------------


    --------------------------------------------
      INIT:  cpu time      0.2535: real time      0.2534
  FINALIZE:  cpu time     30.2359: real time     30.2726
    --------------------------------------------
    POTLOK:  cpu time     40.2232: real time     40.2874
    SETDIJ:  cpu time      0.4107: real time      0.4115
    EDDIAG:  cpu time      7.5642: real time      7.5798
  RMM-DIIS:  cpu time     57.3051: real time     57.4216
    ORTHCH:  cpu time      0.0871: real time      0.0874
       DOS:  cpu time      0.0004: real time      0.0004
    CHARGE:  cpu time     48.7518: real time     48.4188
    MIXING:  cpu time      0.2043: real time      0.2041
    --------------------------------------------
      LOOP:  cpu time    154.5469: real time    154.4110

 eigenvalue-minimisations  :   188
 total energy-change (2. order) :-0.7888306E+00  (-0.1689445E+00)
 number of electron      29.9999991 magnetization       8.9974136
 augmentation part        0.6950557 magnetization       8.9768468

 Broyden mixing:
  rms(total) = 0.26134E+00    rms(broyden)= 0.26133E+00
  rms(prec ) = 0.26358E+00
  weight for this iteration     100.00

 eigenvalues of (default mixing * dielectric matrix)
  average eigenvalue GAMMA=   1.3637
  2.2933  1.6441  0.8669  0.6505

 Free energy of the ion-electron system (eV)
  ---------------------------------------------------
  alpha Z        PSCENC =         0.06461113
  Ewald energy   TEWEN  =      2350.25099946
  -Hartree energ DENC   =     -3108.31074591
  -exchange      EXHF   =         0.00000000
  -V(xc)+E(xc)   XCENC  =       112.75910663
  PAW double counting   =      2537.78107320    -2551.24918583
  entropy T*S    EENTRO =        -0.00000000
  eigenvalues    EBANDS =      -379.52217969
  atomic energy  EATOM  =       957.80910930
  Solvation  Ecorr_sol  =        -6.18910508
  ---------------------------------------------------
  free energy    TOTEN  =       -86.60631680 eV

  energy without entropy =      -86.60631680  energy(sigma->0) =      -86.60631680


--------------------------------------------------------------------------------------------------------




--------------------------------------- Iteration      1(   6)  ---------------------------------------


    --------------------------------------------
      INIT:  cpu time      0.2503: real time      0.2497
  FINALIZE:  cpu time     30.3911: real time     30.3920
    --------------------------------------------
    POTLOK:  cpu time     40.3896: real time     40.4182
    SETDIJ:  cpu time      0.4111: real time      0.4120
    EDDIAG:  cpu time      7.5713: real time      7.5871
  RMM-DIIS:  cpu time     55.5725: real time     55.6839
    ORTHCH:  cpu time      0.0828: real time      0.0830
       DOS:  cpu time      0.0003: real time      0.0003
    CHARGE:  cpu time     48.2593: real time     48.3649
    MIXING:  cpu time      0.2134: real time      0.2136
    --------------------------------------------
      LOOP:  cpu time    152.5003: real time    152.7629

 eigenvalue-minimisations  :   180
 total energy-change (2. order) :-0.7202011E+00  (-0.8525720E-01)
 number of electron      29.9999991 magnetization       8.5344389
 augmentation part        0.6913506 magnetization       8.5184645

 Broyden mixing:
  rms(total) = 0.13609E+00    rms(broyden)= 0.13609E+00
  rms(prec ) = 0.13678E+00
  weight for this iteration     100.00

 eigenvalues of (default mixing * dielectric matrix)
  average eigenvalue GAMMA=   1.4108
  2.7891  1.8007  1.0701  0.7672  0.6271

 Free energy of the ion-electron system (eV)
  ---------------------------------------------------
  alpha Z        PSCENC =         0.06461113
  Ewald energy   TEWEN  =      2350.25099946
  -Hartree energ DENC   =     -3110.87241047
  -exchange      EXHF   =         0.00000000
  -V(xc)+E(xc)   XCENC  =       112.38364951
  PAW double counting   =      2736.22197238    -2749.49423937
  entropy T*S    EENTRO =        -0.00000000
  eigenvalues    EBANDS =      -378.78375402
  atomic energy  EATOM  =       957.80910930
  Solvation  Ecorr_sol  =        -4.90645585
  ---------------------------------------------------
  free energy    TOTEN  =       -87.32651794 eV

  energy without entropy =      -87.32651794  energy(sigma->0) =      -87.32651794


--------------------------------------------------------------------------------------------------------




--------------------------------------- Iteration      1(   7)  ---------------------------------------


    --------------------------------------------
      INIT:  cpu time      0.2502: real time      0.2505
  FINALIZE:  cpu time     31.8349: real time     31.8384
    --------------------------------------------
    POTLOK:  cpu time     41.8426: real time     41.8729
    SETDIJ:  cpu time      0.4090: real time      0.4098
    EDDIAG:  cpu time      7.5350: real time      7.5527
  RMM-DIIS:  cpu time     57.2599: real time     57.3749
    ORTHCH:  cpu time      0.0881: real time      0.0883
       DOS:  cpu time      0.0003: real time      0.0003
    CHARGE:  cpu time     48.4201: real time     48.4307
    MIXING:  cpu time      0.1969: real time      0.1971
    --------------------------------------------
      LOOP:  cpu time    155.7519: real time    155.9267

 eigenvalue-minimisations  :   188
 total energy-change (2. order) : 0.3993203E+00  (-0.3401519E-01)
 number of electron      29.9999991 magnetization       8.0671689
 augmentation part        0.6880701 magnetization       8.0536915

 Broyden mixing:
  rms(total) = 0.11005E+00    rms(broyden)= 0.11005E+00
  rms(prec ) = 0.11064E+00
  weight for this iteration     100.00

 eigenvalues of (default mixing * dielectric matrix)
  average eigenvalue GAMMA=   1.3428
  2.8879  1.9257  1.0536  0.8538  0.7010  0.6348

 Free energy of the ion-electron system (eV)
  ---------------------------------------------------
  alpha Z        PSCENC =         0.06461113
  Ewald energy   TEWEN  =      2350.25099946
  -Hartree energ DENC   =     -3112.88542768
  -exchange      EXHF   =         0.00000000
  -V(xc)+E(xc)   XCENC  =       112.91695865
  PAW double counting   =      2765.22137269    -2778.47090631
  entropy T*S    EENTRO =        -0.00000000
  eigenvalues    EBANDS =      -377.92116322
  atomic energy  EATOM  =       957.80910930
  Solvation  Ecorr_sol  =        -3.91275166
  ---------------------------------------------------
  free energy    TOTEN  =       -86.92719765 eV

  energy without entropy =      -86.92719765  energy(sigma->0) =      -86.92719765


--------------------------------------------------------------------------------------------------------




--------------------------------------- Iteration      1(   8)  ---------------------------------------


    --------------------------------------------
      INIT:  cpu time      0.2519: real time      0.2513
  FINALIZE:  cpu time     28.7842: real time     28.7850
    --------------------------------------------
    POTLOK:  cpu time     38.7682: real time     38.7958
    SETDIJ:  cpu time      0.4072: real time      0.4081
    EDDIAG:  cpu time      7.5338: real time      7.5494
  RMM-DIIS:  cpu time     57.1644: real time     57.2799
    ORTHCH:  cpu time      0.0873: real time      0.0875
       DOS:  cpu time      0.0003: real time      0.0003
    CHARGE:  cpu time     48.3322: real time     48.4349
    MIXING:  cpu time      0.2003: real time      0.2000
    --------------------------------------------
      LOOP:  cpu time    152.4936: real time    152.7558

 eigenvalue-minimisations  :   187
 total energy-change (2. order) : 0.8489821E+00  (-0.2162697E-01)
 number of electron      29.9999991 magnetization       6.3148660
 augmentation part        0.6857215 magnetization       6.3031786

 Broyden mixing:
  rms(total) = 0.90489E-01    rms(broyden)= 0.90487E-01
  rms(prec ) = 0.90928E-01
  weight for this iteration     100.00

 eigenvalues of (default mixing * dielectric matrix)
  average eigenvalue GAMMA=   1.6674
  3.9451  2.7623  1.6578  1.1748  0.8040  0.7148  0.6128

 Free energy of the ion-electron system (eV)
  ---------------------------------------------------
  alpha Z        PSCENC =         0.06461113
  Ewald energy   TEWEN  =      2350.25099946
  -Hartree energ DENC   =     -3113.66061642
  -exchange      EXHF   =         0.00000000
  -V(xc)+E(xc)   XCENC  =       113.70564059
  PAW double counting   =      2746.39898468    -2759.64394844
  entropy T*S    EENTRO =        -0.00000000
  eigenvalues    EBANDS =      -378.09696846
  atomic energy  EATOM  =       957.80910930
  Solvation  Ecorr_sol  =        -2.90602741
  ---------------------------------------------------
  free energy    TOTEN  =       -86.07821558 eV

  energy without entropy =      -86.07821558  energy(sigma->0) =      -86.07821558


--------------------------------------------------------------------------------------------------------




--------------------------------------- Iteration      1(   9)  ---------------------------------------


    --------------------------------------------
      INIT:  cpu time      0.2551: real time      0.2545
  FINALIZE:  cpu time     30.2778: real time     30.2729
    --------------------------------------------
    POTLOK:  cpu time     40.2730: real time     40.2953
    SETDIJ:  cpu time      0.4142: real time      0.4147
    EDDIAG:  cpu time      7.5450: real time      7.5599
  RMM-DIIS:  cpu time     57.6732: real time     57.7882
    ORTHCH:  cpu time      0.0867: real time      0.0869
       DOS:  cpu time      0.0003: real time      0.0003
    CHARGE:  cpu time     48.2949: real time     48.4247
    MIXING:  cpu time      0.2089: real time      0.2091
    --------------------------------------------
      LOOP:  cpu time    154.4962: real time    154.7791

 eigenvalue-minimisations  :   187
 total energy-change (2. order) : 0.1803610E+01  (-0.3404385E-01)
 number of electron      29.9999991 magnetization       5.9805855
 augmentation part        0.6849751 magnetization       5.9717608

 Broyden mixing:
  rms(total) = 0.50867E-01    rms(broyden)= 0.50864E-01
  rms(prec ) = 0.51115E-01
  weight for this iteration     100.00

 eigenvalues of (default mixing * dielectric matrix)
  average eigenvalue GAMMA=   1.6811
  5.0459  2.7257  1.8133  1.0616  0.8076  0.7004  0.7004  0.5941

 Free energy of the ion-electron system (eV)
  ---------------------------------------------------
  alpha Z        PSCENC =         0.06461113
  Ewald energy   TEWEN  =      2350.25099946
  -Hartree energ DENC   =     -3116.78175599
  -exchange      EXHF   =         0.00000000
  -V(xc)+E(xc)   XCENC  =       115.41031288
  PAW double counting   =      2711.35241574    -2724.57407430
  entropy T*S    EENTRO =        -0.00000000
  eigenvalues    EBANDS =      -378.33242470
  atomic energy  EATOM  =       957.80910930
  Solvation  Ecorr_sol  =         0.52620099
  ---------------------------------------------------
  free energy    TOTEN  =       -84.27460548 eV

  energy without entropy =      -84.27460548  energy(sigma->0) =      -84.27460548


--------------------------------------------------------------------------------------------------------




--------------------------------------- Iteration      1(  10)  ---------------------------------------


    --------------------------------------------
      INIT:  cpu time      0.2507: real time      0.2510
  FINALIZE:  cpu time     31.7884: real time     31.8324
    --------------------------------------------
    POTLOK:  cpu time     41.7627: real time     41.8395
    SETDIJ:  cpu time      0.4170: real time      0.4178
    EDDIAG:  cpu time      7.5327: real time      7.5483
  RMM-DIIS:  cpu time     57.4623: real time     57.5940
    ORTHCH:  cpu time      0.0870: real time      0.0873
       DOS:  cpu time      0.0007: real time      0.0007
    CHARGE:  cpu time     48.3174: real time     48.4241
    MIXING:  cpu time      0.2157: real time      0.2158
    --------------------------------------------
      LOOP:  cpu time    155.7955: real time    156.1274

 eigenvalue-minimisations  :   188
 total energy-change (2. order) : 0.2229511E+00  (-0.1095347E-01)
 number of electron      29.9999991 magnetization       5.4856246
 augmentation part        0.6836620 magnetization       5.4783414

 Broyden mixing:
  rms(total) = 0.37198E-01    rms(broyden)= 0.37197E-01
  rms(prec ) = 0.37364E-01
  weight for this iteration     100.00

 eigenvalues of (default mixing * dielectric matrix)
  average eigenvalue GAMMA=   1.7707
  6.4447  2.5565  1.9804  1.2072  0.9273  0.7520  0.7520  0.6085  0.7079

 Free energy of the ion-electron system (eV)
  ---------------------------------------------------
  alpha Z        PSCENC =         0.06461113
  Ewald energy   TEWEN  =      2350.25099946
  -Hartree energ DENC   =     -3118.03784837
  -exchange      EXHF   =         0.00000000
  -V(xc)+E(xc)   XCENC  =       115.69874736
  PAW double counting   =      2718.98098494    -2732.21049572
  entropy T*S    EENTRO =        -0.00000000
  eigenvalues    EBANDS =      -377.58292361
  atomic energy  EATOM  =       957.80910930
  Solvation  Ecorr_sol  =         0.97516112
  ---------------------------------------------------
  free energy    TOTEN  =       -84.05165440 eV

  energy without entropy =      -84.05165440  energy(sigma->0) =      -84.05165440


--------------------------------------------------------------------------------------------------------




--------------------------------------- Iteration      1(  11)  ---------------------------------------


    --------------------------------------------
      INIT:  cpu time      0.2514: real time      0.2509
  FINALIZE:  cpu time     27.4320: real time     27.4327
    --------------------------------------------
    POTLOK:  cpu time     37.4089: real time     37.4355
    SETDIJ:  cpu time      0.4067: real time      0.4076
    EDDIAG:  cpu time      7.5280: real time      7.5425
  RMM-DIIS:  cpu time     57.3391: real time     57.4552
    ORTHCH:  cpu time      0.0877: real time      0.0880
       DOS:  cpu time      0.0003: real time      0.0003
    CHARGE:  cpu time     48.1456: real time     48.3137
    MIXING:  cpu time      0.2233: real time      0.2234
    --------------------------------------------
      LOOP:  cpu time    151.1397: real time    151.4663

 eigenvalue-minimisations  :   188
 total energy-change (2. order) : 0.5288819E+00  (-0.5905014E-02)
 number of electron      29.9999991 magnetization       4.6072456
 augmentation part        0.6829259 magnetization       4.6011405

 Broyden mixing:
  rms(total) = 0.29971E-01    rms(broyden)= 0.29970E-01
  rms(prec ) = 0.30077E-01
  weight for this iteration     100.00

 eigenvalues of (default mixing * dielectric matrix)
  average eigenvalue GAMMA=   1.8563
  7.3453  2.4079  2.4079  1.6440  0.9409  0.9409  0.7998  0.7998  0.6157  0.6611

 Free energy of the ion-electron system (eV)
  ---------------------------------------------------
  alpha Z        PSCENC =         0.06461113
  Ewald energy   TEWEN  =      2350.25099946
  -Hartree energ DENC   =     -3118.74866639
  -exchange      EXHF   =         0.00000000
  -V(xc)+E(xc)   XCENC  =       116.25299375
  PAW double counting   =      2723.20814382    -2736.44086437
  entropy T*S    EENTRO =        -0.00000000
  eigenvalues    EBANDS =      -377.38037298
  atomic energy  EATOM  =       957.80910930
  Solvation  Ecorr_sol  =         1.46127379
  ---------------------------------------------------
  free energy    TOTEN  =       -83.52277250 eV

  energy without entropy =      -83.52277250  energy(sigma->0) =      -83.52277250


--------------------------------------------------------------------------------------------------------




--------------------------------------- Iteration      1(  12)  ---------------------------------------


    --------------------------------------------
      INIT:  cpu time      0.2517: real time      0.2520
  FINALIZE:  cpu time     27.3268: real time     27.3675
    --------------------------------------------
    POTLOK:  cpu time     37.2765: real time     37.3520
    SETDIJ:  cpu time      0.4072: real time      0.4080
    EDDIAG:  cpu time      7.6154: real time      7.6306
  RMM-DIIS:  cpu time     57.3932: real time     57.5143
    ORTHCH:  cpu time      0.0864: real time      0.0866
       DOS:  cpu time      0.0005: real time      0.0005
    CHARGE:  cpu time     48.2426: real time     48.3787
    MIXING:  cpu time      0.2293: real time      0.2293
    --------------------------------------------
      LOOP:  cpu time    151.2509: real time    151.5999

 eigenvalue-minimisations  :   188
 total energy-change (2. order) : 0.8962158E+00  ( 0.2579385E-02)
 number of electron      29.9999991 magnetization       4.0638378
 augmentation part        0.6825005 magnetization       4.0585089

 Broyden mixing:
  rms(total) = 0.21563E-01    rms(broyden)= 0.21562E-01
  rms(prec ) = 0.21609E-01
  weight for this iteration     100.00

 eigenvalues of (default mixing * dielectric matrix)
  average eigenvalue GAMMA=   1.9658
  8.3304  3.2783  2.4304  1.9244  1.1788  0.9485  0.7612  0.7612  0.7588  0.6257
  0.6257

 Free energy of the ion-electron system (eV)
  ---------------------------------------------------
  alpha Z        PSCENC =         0.06461113
  Ewald energy   TEWEN  =      2350.25099946
  -Hartree energ DENC   =     -3119.05524994
  -exchange      EXHF   =         0.00000000
  -V(xc)+E(xc)   XCENC  =       117.13948898
  PAW double counting   =      2717.88875446    -2731.12976486
  entropy T*S    EENTRO =        -0.00000000
  eigenvalues    EBANDS =      -377.75753695
  atomic energy  EATOM  =       957.80910930
  Solvation  Ecorr_sol  =         2.16303172
  ---------------------------------------------------
  free energy    TOTEN  =       -82.62655670 eV

  energy without entropy =      -82.62655670  energy(sigma->0) =      -82.62655670


--------------------------------------------------------------------------------------------------------




--------------------------------------- Iteration      1(  13)  ---------------------------------------


    --------------------------------------------
      INIT:  cpu time      0.2513: real time      0.2514
  FINALIZE:  cpu time     27.2980: real time     27.3373
    --------------------------------------------
    POTLOK:  cpu time     37.2473: real time     37.3182
    SETDIJ:  cpu time      0.4067: real time      0.4075
    EDDIAG:  cpu time      7.5962: real time      7.6114
  RMM-DIIS:  cpu time     57.2981: real time     57.4167
    ORTHCH:  cpu time      0.0894: real time      0.0896
       DOS:  cpu time      0.0004: real time      0.0004
    CHARGE:  cpu time     48.1939: real time     48.3695
    MIXING:  cpu time      0.2373: real time      0.2366
    --------------------------------------------
      LOOP:  cpu time    151.0694: real time    151.4499

 eigenvalue-minimisations  :   188
 total energy-change (2. order) : 0.3890355E+00  ( 0.1219286E-02)
 number of electron      29.9999991 magnetization       3.4411131
 augmentation part        0.6818709 magnetization       3.4365287

 Broyden mixing:
  rms(total) = 0.18771E-01    rms(broyden)= 0.18771E-01
  rms(prec ) = 0.18843E-01
  weight for this iteration     100.00

 eigenvalues of (default mixing * dielectric matrix)
  average eigenvalue GAMMA=   1.9953
  8.8443  3.7112  2.4165  2.2050  1.3187  0.9996  0.9996  0.7263  0.7263  0.7485
  0.6140  0.6332

 Free energy of the ion-electron system (eV)
  ---------------------------------------------------
  alpha Z        PSCENC =         0.06461113
  Ewald energy   TEWEN  =      2350.25099946
  -Hartree energ DENC   =     -3118.93322548
  -exchange      EXHF   =         0.00000000
  -V(xc)+E(xc)   XCENC  =       117.51661516
  PAW double counting   =      2717.04959392    -2730.29103294
  entropy T*S    EENTRO =        -0.00000000
  eigenvalues    EBANDS =      -378.08652080
  atomic energy  EATOM  =       957.80910930
  Solvation  Ecorr_sol  =         2.38232902
  ---------------------------------------------------
  free energy    TOTEN  =       -82.23752123 eV

  energy without entropy =      -82.23752123  energy(sigma->0) =      -82.23752123


--------------------------------------------------------------------------------------------------------




--------------------------------------- Iteration      1(  14)  ---------------------------------------


    --------------------------------------------
      INIT:  cpu time      0.2507: real time      0.2506
  FINALIZE:  cpu time     27.3131: real time     27.3203
    --------------------------------------------
    POTLOK:  cpu time     37.2722: real time     37.3087
    SETDIJ:  cpu time      0.4069: real time      0.4077
    EDDIAG:  cpu time      7.6015: real time      7.6161
  RMM-DIIS:  cpu time     57.6148: real time     57.7406
    ORTHCH:  cpu time      0.0881: real time      0.0884
       DOS:  cpu time      0.0008: real time      0.0008
    CHARGE:  cpu time     48.2562: real time     48.4232
    MIXING:  cpu time      0.2486: real time      0.2482
    --------------------------------------------
      LOOP:  cpu time    151.4891: real time    151.8336

 eigenvalue-minimisations  :   188
 total energy-change (2. order) : 0.3911605E+00  ( 0.1145561E-02)
 number of electron      29.9999991 magnetization       2.8175272
 augmentation part        0.6817185 magnetization       2.8135140

 Broyden mixing:
  rms(total) = 0.15207E-01    rms(broyden)= 0.15206E-01
  rms(prec ) = 0.15232E-01
  weight for this iteration     100.00

 eigenvalues of (default mixing * dielectric matrix)
  average eigenvalue GAMMA=   2.1258
  9.6607  4.8044  2.6991  2.4011  1.6569  1.1837  0.9962  0.7530  0.7530  0.7734
  0.7140  0.6198  0.6198

 Free energy of the ion-electron system (eV)
  ---------------------------------------------------
  alpha Z        PSCENC =         0.06461113
  Ewald energy   TEWEN  =      2350.25099946
  -Hartree energ DENC   =     -3118.17880305
  -exchange      EXHF   =         0.00000000
  -V(xc)+E(xc)   XCENC  =       117.87335693
  PAW double counting   =      2721.10363417    -2734.33303227
  entropy T*S    EENTRO =        -0.00000000
  eigenvalues    EBANDS =      -378.84411060
  atomic energy  EATOM  =       957.80910930
  Solvation  Ecorr_sol  =         2.40787423
  ---------------------------------------------------
  free energy    TOTEN  =       -81.84636070 eV

  energy without entropy =      -81.84636070  energy(sigma->0) =      -81.84636070


--------------------------------------------------------------------------------------------------------




--------------------------------------- Iteration      1(  15)  ---------------------------------------


    --------------------------------------------
      INIT:  cpu time      0.2549: real time      0.2546
  FINALIZE:  cpu time     27.5417: real time     27.5400
    --------------------------------------------
    POTLOK:  cpu time     37.5026: real time     37.5269
    SETDIJ:  cpu time      0.4099: real time      0.4106
    EDDIAG:  cpu time      7.6047: real time      7.6225
  RMM-DIIS:  cpu time     57.3754: real time     57.4937
    ORTHCH:  cpu time      0.0853: real time      0.0854
       DOS:  cpu time      0.0005: real time      0.0005
    CHARGE:  cpu time     48.2754: real time     48.4029
    MIXING:  cpu time      0.2559: real time      0.2557
    --------------------------------------------
      LOOP:  cpu time    151.5096: real time    151.7980

 eigenvalue-minimisations  :   188
 total energy-change (2. order) : 0.3311483E+00  ( 0.1085796E-02)
 number of electron      29.9999991 magnetization       2.3667064
 augmentation part        0.6815096 magnetization       2.3631527

 Broyden mixing:
  rms(total) = 0.12591E-01    rms(broyden)= 0.12590E-01
  rms(prec ) = 0.12620E-01
  weight for this iteration     100.00

 eigenvalues of (default mixing * dielectric matrix)
  average eigenvalue GAMMA=   2.1489
 10.2093  5.4501  2.6764  2.5008  1.8604  1.3291  0.9343  0.9343  0.7508  0.7508
  0.7185  0.7185  0.6257  0.6257

 Free energy of the ion-electron system (eV)
  ---------------------------------------------------
  alpha Z        PSCENC =         0.06461113
  Ewald energy   TEWEN  =      2350.25099946
  -Hartree energ DENC   =     -3117.70608839
  -exchange      EXHF   =         0.00000000
  -V(xc)+E(xc)   XCENC  =       118.18279465
  PAW double counting   =      2723.87129513    -2737.09568764
  entropy T*S    EENTRO =        -0.00000000
  eigenvalues    EBANDS =      -379.27030803
  atomic energy  EATOM  =       957.80910930
  Solvation  Ecorr_sol  =         2.37806197
  ---------------------------------------------------
  free energy    TOTEN  =       -81.51521242 eV

  energy without entropy =      -81.51521242  energy(sigma->0) =      -81.51521242


--------------------------------------------------------------------------------------------------------




--------------------------------------- Iteration      1(  16)  ---------------------------------------


    --------------------------------------------
      INIT:  cpu time      0.2511: real time      0.2506
  FINALIZE:  cpu time     27.3213: real time     27.3182
    --------------------------------------------
    POTLOK:  cpu time     37.2695: real time     37.2925
    SETDIJ:  cpu time      0.4110: real time      0.4119
    EDDIAG:  cpu time      7.5955: real time      7.6096
  RMM-DIIS:  cpu time     57.6112: real time     57.7259
    ORTHCH:  cpu time      0.0879: real time      0.0881
       DOS:  cpu time      0.0003: real time      0.0003
    CHARGE:  cpu time     48.1840: real time     48.3210
    MIXING:  cpu time      0.2660: real time      0.2655
    --------------------------------------------
      LOOP:  cpu time    151.4255: real time    151.7148

 eigenvalue-minimisations  :   188
 total energy-change (2. order) : 0.2208839E+00  (-0.1598713E-02)
 number of electron      29.9999991 magnetization       1.5713744
 augmentation part        0.6812775 magnetization       1.5681531

 Broyden mixing:
  rms(total) = 0.10379E-01    rms(broyden)= 0.10378E-01
  rms(prec ) = 0.10393E-01
  weight for this iteration     100.00

 eigenvalues of (default mixing * dielectric matrix)
  average eigenvalue GAMMA=   2.1990
 10.7052  5.9966  2.9428  2.4060  2.4060  1.4806  1.0836  0.9217  0.9217  0.7336
  0.7336  0.6999  0.6999  0.6208  0.6332

 Free energy of the ion-electron system (eV)
  ---------------------------------------------------
  alpha Z        PSCENC =         0.06461113
  Ewald energy   TEWEN  =      2350.25099946
  -Hartree energ DENC   =     -3117.64452241
  -exchange      EXHF   =         0.00000000
  -V(xc)+E(xc)   XCENC  =       118.40148799
  PAW double counting   =      2721.72240562    -2734.95056519
  entropy T*S    EENTRO =        -0.00000000
  eigenvalues    EBANDS =      -379.27802325
  atomic energy  EATOM  =       957.80910930
  Solvation  Ecorr_sol  =         2.33016887
  ---------------------------------------------------
  free energy    TOTEN  =       -81.29432848 eV

  energy without entropy =      -81.29432848  energy(sigma->0) =      -81.29432848


--------------------------------------------------------------------------------------------------------




--------------------------------------- Iteration      1(  17)  ---------------------------------------


    --------------------------------------------
      INIT:  cpu time      0.2526: real time      0.2521
  FINALIZE:  cpu time     27.3812: real time     27.4230
    --------------------------------------------
    POTLOK:  cpu time     37.3470: real time     37.4191
    SETDIJ:  cpu time      0.4073: real time      0.4081
    EDDIAG:  cpu time      7.5988: real time      7.6142
  RMM-DIIS:  cpu time     57.3632: real time     57.4818
    ORTHCH:  cpu time      0.0841: real time      0.0844
       DOS:  cpu time      0.0005: real time      0.0005
    CHARGE:  cpu time     48.1291: real time     48.2982
    MIXING:  cpu time      0.2755: real time      0.2751
    --------------------------------------------
      LOOP:  cpu time    151.2055: real time    151.5815

 eigenvalue-minimisations  :   188
 total energy-change (2. order) : 0.3959452E+00  (-0.3785641E-03)
 number of electron      29.9999991 magnetization       0.8959866
 augmentation part        0.6810164 magnetization       0.8931721

 Broyden mixing:
  rms(total) = 0.86168E-02    rms(broyden)= 0.86162E-02
  rms(prec ) = 0.86531E-02
  weight for this iteration     100.00

 eigenvalues of (default mixing * dielectric matrix)
  average eigenvalue GAMMA=   2.3293
 11.6914  7.0217  3.8580  2.4656  2.4656  1.6915  1.3023  0.9458  0.9458  0.7399
  0.7399  0.7530  0.7530  0.6143  0.6406  0.6406

 Free energy of the ion-electron system (eV)
  ---------------------------------------------------
  alpha Z        PSCENC =         0.06461113
  Ewald energy   TEWEN  =      2350.25099946
  -Hartree energ DENC   =     -3117.61334097
  -exchange      EXHF   =         0.00000000
  -V(xc)+E(xc)   XCENC  =       118.80371294
  PAW double counting   =      2721.95254016    -2735.18479930
  entropy T*S    EENTRO =        -0.00000000
  eigenvalues    EBANDS =      -379.18094378
  atomic energy  EATOM  =       957.80910930
  Solvation  Ecorr_sol  =         2.19972780
  ---------------------------------------------------
  free energy    TOTEN  =       -80.89838326 eV

  energy without entropy =      -80.89838326  energy(sigma->0) =      -80.89838326


--------------------------------------------------------------------------------------------------------




--------------------------------------- Iteration      1(  18)  ---------------------------------------


    --------------------------------------------
      INIT:  cpu time      0.2540: real time      0.2534
  FINALIZE:  cpu time     27.3926: real time     27.3914
    --------------------------------------------
    POTLOK:  cpu time     37.3730: real time     37.4172
    SETDIJ:  cpu time      0.4061: real time      0.4068
    EDDIAG:  cpu time      7.5857: real time      7.5992
  RMM-DIIS:  cpu time     57.4155: real time     57.5318
    ORTHCH:  cpu time      0.0887: real time      0.0889
       DOS:  cpu time      0.0021: real time      0.0021
    CHARGE:  cpu time     48.2494: real time     48.3797
    MIXING:  cpu time      0.2902: real time      0.2903
    --------------------------------------------
      LOOP:  cpu time    151.4107: real time    151.7161

 eigenvalue-minimisations  :   188
 total energy-change (2. order) : 0.2796577E+00  (-0.4406173E-03)
 number of electron      29.9999991 magnetization       0.4269046
 augmentation part        0.6809007 magnetization       0.4242403

 Broyden mixing:
  rms(total) = 0.57060E-02    rms(broyden)= 0.57057E-02
  rms(prec ) = 0.57449E-02
  weight for this iteration     100.00

 eigenvalues of (default mixing * dielectric matrix)
  average eigenvalue GAMMA=   2.5204
 13.8603  8.1957  4.5352  2.4704  2.2927  2.2927  1.4214  1.0018  0.9711  0.9711
  0.7383  0.7383  0.7395  0.7395  0.6205  0.6291  0.6291

 Free energy of the ion-electron system (eV)
  ---------------------------------------------------
  alpha Z        PSCENC =         0.06461113
  Ewald energy   TEWEN  =      2350.25099946
  -Hartree energ DENC   =     -3117.33483336
  -exchange      EXHF   =         0.00000000
  -V(xc)+E(xc)   XCENC  =       119.07617385
  PAW double counting   =      2721.75055558    -2734.98049418
  entropy T*S    EENTRO =        -0.00000000
  eigenvalues    EBANDS =      -379.34986312
  atomic energy  EATOM  =       957.80910930
  Solvation  Ecorr_sol  =         2.09501577
  ---------------------------------------------------
  free energy    TOTEN  =       -80.61872558 eV

  energy without entropy =      -80.61872558  energy(sigma->0) =      -80.61872558


--------------------------------------------------------------------------------------------------------




--------------------------------------- Iteration      1(  19)  ---------------------------------------


    --------------------------------------------
      INIT:  cpu time      0.2544: real time      0.2548
  FINALIZE:  cpu time     25.8489: real time     25.8575
    --------------------------------------------
    POTLOK:  cpu time     35.8515: real time     35.8855
    SETDIJ:  cpu time      0.4079: real time      0.4087
    EDDIAG:  cpu time      7.5946: real time      7.6097
  RMM-DIIS:  cpu time     57.3841: real time     57.5034
    ORTHCH:  cpu time      0.0856: real time      0.0858
       DOS:  cpu time      0.0004: real time      0.0004
    CHARGE:  cpu time     48.3449: real time     48.4603
    MIXING:  cpu time      0.3023: real time      0.3025
    --------------------------------------------
      LOOP:  cpu time    149.9712: real time    150.2563

 eigenvalue-minimisations  :   188
 total energy-change (2. order) : 0.1692569E+00  ( 0.7362366E-03)
 number of electron      29.9999991 magnetization       0.1697379
 augmentation part        0.6808309 magnetization       0.1669910

 Broyden mixing:
  rms(total) = 0.31157E-02    rms(broyden)= 0.31155E-02
  rms(prec ) = 0.31389E-02
  weight for this iteration     100.00

 eigenvalues of (default mixing * dielectric matrix)
  average eigenvalue GAMMA=   2.8070
 18.4456  9.0545  5.0582  2.6685  2.6685  2.2485  1.4919  1.2697  0.9736  0.9736
  0.7341  0.7341  0.7988  0.7988  0.7290  0.6223  0.6279  0.6279

 Free energy of the ion-electron system (eV)
  ---------------------------------------------------
  alpha Z        PSCENC =         0.06461113
  Ewald energy   TEWEN  =      2350.25099946
  -Hartree energ DENC   =     -3117.13617443
  -exchange      EXHF   =         0.00000000
  -V(xc)+E(xc)   XCENC  =       119.24037515
  PAW double counting   =      2722.07114434    -2735.29844634
  entropy T*S    EENTRO =        -0.00000000
  eigenvalues    EBANDS =      -379.50541036
  atomic energy  EATOM  =       957.80910930
  Solvation  Ecorr_sol  =         2.05432307
  ---------------------------------------------------
  free energy    TOTEN  =       -80.44946868 eV

  energy without entropy =      -80.44946868  energy(sigma->0) =      -80.44946868


--------------------------------------------------------------------------------------------------------




--------------------------------------- Iteration      1(  20)  ---------------------------------------


    --------------------------------------------
      INIT:  cpu time      0.2533: real time      0.2535
  FINALIZE:  cpu time     28.7720: real time     28.8131
    --------------------------------------------
    POTLOK:  cpu time     38.7737: real time     38.8457
    SETDIJ:  cpu time      0.4067: real time      0.4075
    EDDIAG:  cpu time      7.6399: real time      7.6558
  RMM-DIIS:  cpu time     57.5285: real time     57.6521
    ORTHCH:  cpu time      0.0909: real time      0.0911
       DOS:  cpu time      0.0003: real time      0.0003
    CHARGE:  cpu time     48.4257: real time     48.5462
    MIXING:  cpu time      0.3144: real time      0.3147
    --------------------------------------------
      LOOP:  cpu time    153.1800: real time    153.5133

 eigenvalue-minimisations  :   188
 total energy-change (2. order) : 0.9862061E-01  (-0.2170596E-03)
 number of electron      29.9999991 magnetization       0.0881256
 augmentation part        0.6808244 magnetization       0.0855096

 Broyden mixing:
  rms(total) = 0.20923E-02    rms(broyden)= 0.20921E-02
  rms(prec ) = 0.21216E-02
  weight for this iteration     100.00

 eigenvalues of (default mixing * dielectric matrix)
  average eigenvalue GAMMA=   2.9435
 21.9491  9.3639  5.2982  2.7672  2.7672  2.1315  1.7091  1.4432  0.9878  0.9878
  0.9767  0.7359  0.7359  0.7518  0.7518  0.6928  0.6166  0.6298  0.6298

 Free energy of the ion-electron system (eV)
  ---------------------------------------------------
  alpha Z        PSCENC =         0.06461113
  Ewald energy   TEWEN  =      2350.25099946
  -Hartree energ DENC   =     -3117.10709645
  -exchange      EXHF   =         0.00000000
  -V(xc)+E(xc)   XCENC  =       119.34069675
  PAW double counting   =      2722.86273296    -2736.08955508
  entropy T*S    EENTRO =        -0.00000000
  eigenvalues    EBANDS =      -379.53011567
  atomic energy  EATOM  =       957.80910930
  Solvation  Ecorr_sol  =         2.04776953
  ---------------------------------------------------
  free energy    TOTEN  =       -80.35084807 eV

  energy without entropy =      -80.35084807  energy(sigma->0) =      -80.35084807


--------------------------------------------------------------------------------------------------------




--------------------------------------- Iteration      1(  21)  ---------------------------------------


    --------------------------------------------
      INIT:  cpu time      0.2531: real time      0.2536
  FINALIZE:  cpu time     28.7692: real time     28.8115
    --------------------------------------------
    POTLOK:  cpu time     38.7871: real time     38.8592
    SETDIJ:  cpu time      0.4084: real time      0.4093
    EDDIAG:  cpu time      7.5957: real time      7.6115
  RMM-DIIS:  cpu time     57.3896: real time     57.5047
    ORTHCH:  cpu time      0.0863: real time      0.0865
       DOS:  cpu time      0.0003: real time      0.0003
    CHARGE:  cpu time     48.1919: real time     48.3537
    MIXING:  cpu time      0.3252: real time      0.3244
    --------------------------------------------
      LOOP:  cpu time    152.7844: real time    153.1496

 eigenvalue-minimisations  :   188
 total energy-change (2. order) : 0.3616694E-01  (-0.9153851E-03)
 number of electron      29.9999991 magnetization       0.0544055
 augmentation part        0.6807976 magnetization       0.0519622

 Broyden mixing:
  rms(total) = 0.18258E-02    rms(broyden)= 0.18252E-02
  rms(prec ) = 0.18517E-02
  weight for this iteration     100.00

 eigenvalues of (default mixing * dielectric matrix)
  average eigenvalue GAMMA=   2.9390
[...]
  0.9100  0.9100  0.6171  0.6171  0.7906  0.7906  0.7384  0.7384  0.6360  0.6360
  0.6186  0.6186  0.5795  0.5795  0.5136  0.5136

 Free energy of the ion-electron system (eV)
  ---------------------------------------------------
  alpha Z        PSCENC =         0.06461113
  Ewald energy   TEWEN  =      2353.40403730
  -Hartree energ DENC   =     -3120.14731528
  -exchange      EXHF   =         0.00000000
  -V(xc)+E(xc)   XCENC  =       119.50134531
  PAW double counting   =      2738.37221660    -2751.60633737
  entropy T*S    EENTRO =        -0.00000000
  eigenvalues    EBANDS =      -379.67776173
  atomic energy  EATOM  =       957.80910930
  Solvation  Ecorr_sol  =         2.01476889
  ---------------------------------------------------
  free energy    TOTEN  =       -80.26532584 eV

  energy without entropy =      -80.26532584  energy(sigma->0) =      -80.26532584


--------------------------------------------------------------------------------------------------------




--------------------------------------- Iteration      5(  28)  ---------------------------------------


    --------------------------------------------
      INIT:  cpu time      0.2539: real time      0.2533
  FINALIZE:  cpu time     28.8346: real time     28.8381
    --------------------------------------------
    POTLOK:  cpu time     38.8809: real time     38.9102
    SETDIJ:  cpu time      0.4056: real time      0.4064
    EDDIAG:  cpu time      7.6152: real time      7.6301
  RMM-DIIS:  cpu time     38.0753: real time     38.1537
    ORTHCH:  cpu time      0.0859: real time      0.0862
       DOS:  cpu time      0.0005: real time      0.0005
    CHARGE:  cpu time     48.4791: real time     48.6065
    MIXING:  cpu time      0.4333: real time      0.4334
    --------------------------------------------
      LOOP:  cpu time    133.9758: real time    134.2270

 eigenvalue-minimisations  :   100
 total energy-change (2. order) : 0.1250120E-04  (-0.1149094E-05)
 number of electron      29.9999991 magnetization       0.0066048
 augmentation part        0.6821523 magnetization       0.0066080

 Broyden mixing:
  rms(total) = 0.34212E-03    rms(broyden)= 0.34210E-03
  rms(prec ) = 0.37514E-03
  weight for this iteration     100.00

 eigenvalues of (default mixing * dielectric matrix)
  average eigenvalue GAMMA=   1.6545
  8.3689  8.3689  3.6248  3.6248  1.9641  1.9641  1.3513  1.3513  1.2613  1.2613
  1.0047  1.0047  0.6160  0.6160  0.7836  0.7836  0.7369  0.7369  0.6251  0.6251
  0.6258  0.6258  0.5705  0.5752  0.5752  0.5129  0.5129

 Free energy of the ion-electron system (eV)
  ---------------------------------------------------
  alpha Z        PSCENC =         0.06461113
  Ewald energy   TEWEN  =      2353.40403730
  -Hartree energ DENC   =     -3120.13713524
  -exchange      EXHF   =         0.00000000
  -V(xc)+E(xc)   XCENC  =       119.50136970
  PAW double counting   =      2738.38134476    -2751.61551269
  entropy T*S    EENTRO =        -0.00000000
  eigenvalues    EBANDS =      -379.67639730
  atomic energy  EATOM  =       957.80910930
  Solvation  Ecorr_sol  =         2.00325970
  ---------------------------------------------------
  free energy    TOTEN  =       -80.26531334 eV

  energy without entropy =      -80.26531334  energy(sigma->0) =      -80.26531334


--------------------------------------------------------------------------------------------------------




--------------------------------------- Iteration      5(  29)  ---------------------------------------


    --------------------------------------------
      INIT:  cpu time      0.2564: real time      0.2562
  FINALIZE:  cpu time     31.7751: real time     31.7733
    --------------------------------------------
    POTLOK:  cpu time     41.9439: real time     41.9718
    SETDIJ:  cpu time      0.4082: real time      0.4090
    EDDIAG:  cpu time      7.5807: real time      7.5942
  RMM-DIIS:  cpu time     38.0449: real time     38.1219
    ORTHCH:  cpu time      0.0870: real time      0.0872
       DOS:  cpu time      0.0003: real time      0.0003
    --------------------------------------------
      LOOP:  cpu time     88.0649: real time     88.1844

 eigenvalue-minimisations  :    98
 total energy-change (2. order) : 0.1912929E-05  (-0.6430866E-06)
 number of electron      29.9999991 magnetization       0.0066048
 augmentation part        0.6821523 magnetization       0.0066080

 Free energy of the ion-electron system (eV)
  ---------------------------------------------------
  alpha Z        PSCENC =         0.06461113
  Ewald energy   TEWEN  =      2353.40403730
  -Hartree energ DENC   =     -3120.13867724
  -exchange      EXHF   =         0.00000000
  -V(xc)+E(xc)   XCENC  =       119.50149159
  PAW double counting   =      2738.38691593    -2751.62108228
  entropy T*S    EENTRO =        -0.00000000
  eigenvalues    EBANDS =      -379.67409358
  atomic energy  EATOM  =       957.80910930
  Solvation  Ecorr_sol  =         2.00237642
  ---------------------------------------------------
  free energy    TOTEN  =       -80.26531143 eV

  energy without entropy =      -80.26531143  energy(sigma->0) =      -80.26531143


--------------------------------------------------------------------------------------------------------




 average (electrostatic) potential at core
  the test charge radii are     0.6991  0.5201
  (the norm of the test charge is              1.0000)
       1 -60.9067       2 -60.9067       3 -60.9065       4 -60.9067       5 -60.9067
       6 -60.9065       7 -44.3854       8 -44.3855       9 -44.3826      10 -44.3854
      11 -44.3855      12 -44.3826
 
 
 
 E-fermi :  -6.2844     XC(G=0):  -0.0673     alpha+bet : -0.0120

 Fermi energy:        -6.2843822362

 spin component 1

 k-point     1 :       0.0000    0.0000    0.0000
  band No.  band energies     occupation 
      1     -22.4128      1.00000
      2     -19.4851      1.00000
      3     -19.4831      1.00000
      4     -15.5883      1.00000
      5     -15.5863      1.00000
      6     -13.4347      1.00000
      7     -11.7151      1.00000
      8     -11.3248      1.00000
      9     -10.6284      1.00000
     10     -10.6263      1.00000
     11      -9.4624      1.00000
     12      -8.5077      1.00000
     13      -8.5045      1.00000
     14      -6.5398      1.00000
     15      -6.5378      1.00000
     16      -1.0201      0.00000
     17      -1.0179      0.00000
     18      -0.0837      0.00000
     19      -0.0255      0.00000
     20       0.0163      0.00000
     21       0.0191      0.00000
     22       0.0216      0.00000
     23       0.0220      0.00000
     24       0.0250      0.00000
     25       0.0737      0.00000
     26       0.1107      0.00000
     27       0.1144      0.00000
     28       0.1190      0.00000
     29       0.1253      0.00000
     30       0.1495      0.00000
     31       0.1768      0.00000
     32       0.2038      0.00000
 Fermi energy:        -6.2843822362

 spin component 2

 k-point     1 :       0.0000    0.0000    0.0000
  band No.  band energies     occupation 
      1     -22.4129      1.00000
      2     -19.4851      1.00000
      3     -19.4831      1.00000
      4     -15.5883      1.00000
      5     -15.5863      1.00000
      6     -13.4347      1.00000
      7     -11.7151      1.00000
      8     -11.3248      1.00000
      9     -10.6284      1.00000
     10     -10.6263      1.00000
     11      -9.4623      1.00000
     12      -8.5077      1.00000
     13      -8.5045      1.00000
     14      -6.5397      1.00000
     15      -6.5377      1.00000
     16      -1.0200      0.00000
     17      -1.0176      0.00000
     18      -0.0339      0.00000
     19       0.0234      0.00000
     20       0.0789      0.00000
     21       0.0819      0.00000
     22       0.0828      0.00000
     23       0.0838      0.00000
     24       0.0856      0.00000
     25       0.1320      0.00000
     26       0.1712      0.00000
     27       0.1731      0.00000
     28       0.1744      0.00000
     29       0.1756      0.00000
     30       0.1768      0.00000
     31       0.1784      0.00000
     32       0.1801      0.00000


--------------------------------------------------------------------------------------------------------


 soft charge-density along one line, spin component           1
         0         1         2         3         4         5         6         7         8         9
 total charge-density along one line
 
 soft charge-density along one line, spin component           2
         0         1         2         3         4         5         6         7         8         9
 total charge-density along one line
 
 pseudopotential strength for first ion, spin component:           1
 10.449  13.894   0.001  -0.000  -0.002  -0.000   0.000   0.001
 13.894  18.474   0.001  -0.000  -0.002  -0.000   0.000   0.001
  0.001   0.001  -4.372  -0.000  -0.003   8.478   0.000   0.006
 -0.000  -0.000  -0.000  -4.307   0.000   0.000   8.380  -0.000
 -0.002  -0.002  -0.003   0.000  -4.367   0.006  -0.000   8.471
 -0.000  -0.000   8.478   0.000   0.006 -18.708  -0.000  -0.008
  0.000   0.000   0.000   8.380  -0.000  -0.000 -18.578   0.000
  0.001   0.001   0.006  -0.000   8.471  -0.008   0.000 -18.698
 pseudopotential strength for first ion, spin component:           2
 10.449  13.894   0.001  -0.000  -0.002  -0.000   0.000   0.001
 13.894  18.474   0.001  -0.000  -0.002  -0.000   0.000   0.001
  0.001   0.001  -4.372  -0.000  -0.003   8.478   0.000   0.006
 -0.000  -0.000  -0.000  -4.307   0.000   0.000   8.380  -0.000
 -0.002  -0.002  -0.003   0.000  -4.367   0.006  -0.000   8.471
 -0.000  -0.000   8.478   0.000   0.006 -18.708  -0.000  -0.008
  0.000   0.000   0.000   8.380  -0.000  -0.000 -18.578   0.000
  0.001   0.001   0.006  -0.000   8.471  -0.008   0.000 -18.698
 total augmentation occupancy for first ion, spin component:           1
  8.821  -3.977  -0.131  -0.000   0.239  -0.026   0.000   0.047
 -3.977   1.834   0.084  -0.000  -0.153   0.015   0.000  -0.028
 -0.131   0.084   1.870   0.000   0.046   0.181   0.000   0.008
 -0.000  -0.000   0.000   1.164  -0.000  -0.000   0.078  -0.000
  0.239  -0.153   0.046  -0.000   1.812   0.008   0.000   0.170
 -0.026   0.015   0.181  -0.000   0.008   0.019  -0.000   0.001
  0.000   0.000   0.000   0.078   0.000  -0.000   0.005  -0.000
  0.047  -0.028   0.008  -0.000   0.170   0.001  -0.000   0.017
 total augmentation occupancy for first ion, spin component:           2
  0.000  -0.000  -0.000   0.000   0.000  -0.000   0.000   0.000
 -0.000   0.000   0.000   0.000  -0.000   0.000   0.000  -0.000
 -0.000   0.000   0.000   0.000  -0.000  -0.000   0.000   0.000
  0.000   0.000   0.000   0.000   0.000   0.000  -0.000   0.000
  0.000  -0.000  -0.000   0.000   0.000   0.000   0.000  -0.000
 -0.000   0.000  -0.000   0.000   0.000  -0.000   0.000   0.000
  0.000   0.000   0.000  -0.000   0.000   0.000  -0.000   0.000
  0.000  -0.000   0.000   0.000  -0.000   0.000   0.000  -0.000


------------------------ aborting loop because EDIFF is reached ----------------------------------------


    CHARGE:  cpu time      5.6436: real time      5.6561
    FORLOC:  cpu time      0.2518: real time      0.2519
    FORNL :  cpu time      3.2652: real time      3.2723
    STRESS:  cpu time    122.5129: real time    122.8160
    FORCOR:  cpu time      7.5645: real time      7.5973
    FORHAR:  cpu time      0.7727: real time      0.7725
    MIXING:  cpu time      0.3838: real time      0.3845
    OFIELD:  cpu time      0.0000: real time      0.0000

 ---------------------------------------------------------------------------------------------

         DFTD3 V3.0 Rev 1        
 Edisp (eV)   -0.08209

 E6    (eV) :    -0.0642
 E8    (eV) :    -0.0179
 % E8        : 21.81
    FORVDW:  cpu time      0.0050: real time      0.0050

  FORCE on cell =-STRESS in cart. coord.  units (eV):
  Direction    XX          YY          ZZ          XY          YZ          ZX
  --------------------------------------------------------------------------------------
  Alpha Z     0.06461     0.06461     0.06461
  Ewald    1253.55589  1253.65540  -153.80795     0.08205     0.00166    -0.00306
  Hartree  1313.12410  1313.20498   492.17053    -0.01075     0.00032    -0.00059
  E(xc)    -108.38319  -108.38371  -109.90181     0.00004    -0.00001     0.00001
  Local   -2833.79473 -2833.97533  -663.65127    -0.04399    -0.00150     0.00275
  n-local   -35.87859   -35.84273   -31.43147    -0.00718    -0.00001     0.00002
  augment    -2.11021    -2.11022    -1.68828    -0.00033    -0.00000     0.00001
  Kinetic   413.42854   413.41300   468.13631    -0.00525    -0.00015     0.00028
  Fock        0.00000     0.00000     0.00000     0.00000     0.00000     0.00000
  vdW        -0.01180    -0.01181    -0.00000     0.00000    -0.00000     0.00000
  -------------------------------------------------------------------------------------
  Total      -0.00537     0.01420    -0.10934     0.01460     0.00000     0.00000
  in kB      -0.00013     0.00036    -0.00274     0.00037     0.00000     0.00000
  external pressure =       -0.00 kB  Pullay stress =        0.00 kB


 VOLUME and BASIS-vectors are now :
 -----------------------------------------------------------------------------
  energy-cutoff  :      500.00
  volume of cell :    64000.00
      direct lattice vectors                 reciprocal lattice vectors
    40.000000000  0.000000000  0.000000000     0.025000000  0.000000000  0.000000000
     0.000000000 40.000000000  0.000000000     0.000000000  0.025000000  0.000000000
     0.000000000  0.000000000 40.000000000     0.000000000  0.000000000  0.025000000

  length of vectors
    40.000000000 40.000000000 40.000000000     0.025000000  0.025000000  0.025000000


 FORCES acting on ions
    electron-ion (+dipol)            ewald-force                    non-local-force                 convergence-correction
 -----------------------------------------------------------------------------------------------
   0.159E+03 -.864E+02 -.245E-04   -.159E+03 0.868E+02 0.397E-04   0.733E+00 -.401E+00 0.169E-20   -.289E-02 0.161E-02 -.351E-09
   0.446E+01 -.181E+03 -.317E-04   -.447E+01 0.181E+03 0.588E-04   0.233E-01 -.843E+00 0.000E+00   -.143E-03 0.330E-02 -.427E-09
   -.154E+03 -.942E+02 -.639E-04   0.155E+03 0.946E+02 0.232E-03   -.717E+00 -.432E+00 0.000E+00   0.279E-02 0.167E-02 -.918E-09
   -.159E+03 0.864E+02 -.132E-03   0.159E+03 -.868E+02 0.181E-02   -.733E+00 0.401E+00 0.000E+00   0.289E-02 -.161E-02 -.165E-08
   -.446E+01 0.181E+03 -.639E-04   0.447E+01 -.181E+03 0.232E-03   -.233E-01 0.843E+00 0.000E+00   0.143E-03 -.330E-02 -.966E-09
   0.154E+03 0.942E+02 -.317E-04   -.155E+03 -.946E+02 0.588E-04   0.717E+00 0.432E+00 0.000E+00   -.279E-02 -.167E-02 -.439E-09
   0.692E+02 0.423E+02 -.532E-05   -.743E+02 -.454E+02 0.727E-05   0.514E+01 0.314E+01 0.106E-21   -.118E-02 -.721E-03 -.552E-10
   -.202E+01 0.810E+02 -.161E-04   0.217E+01 -.870E+02 0.379E-04   -.151E+00 0.602E+01 0.000E+00   0.447E-04 -.140E-02 -.804E-10
   -.712E+02 0.387E+02 0.449E-02   0.765E+02 -.416E+02 -.252E-02   -.529E+01 0.288E+01 0.000E+00   0.122E-02 -.670E-03 -.454E-07
   -.692E+02 -.423E+02 -.161E-04   0.743E+02 0.454E+02 0.379E-04   -.514E+01 -.314E+01 0.000E+00   0.118E-02 0.721E-03 -.683E-10
   0.202E+01 -.810E+02 -.531E-05   -.217E+01 0.870E+02 0.727E-05   0.151E+00 -.602E+01 0.000E+00   -.447E-04 0.140E-02 -.531E-10
   0.712E+02 -.387E+02 -.371E-05   -.765E+02 0.416E+02 0.471E-05   0.529E+01 -.288E+01 0.148E-20   -.122E-02 0.670E-03 -.466E-10
 -----------------------------------------------------------------------------------------------
   0.898E-07 -.525E-07 0.410E-02   -.568E-13 -.284E-13 0.269E-17   0.000E+00 -.178E-14 0.328E-20   0.135E-12 0.166E-12 -.504E-07
 
 
 POSITION                                       TOTAL-FORCE (eV/Angst)
 -----------------------------------------------------------------------------------
     18.77770     20.66581     20.00000        -0.008885     -0.003066     -0.000000
     19.96519     21.39167     20.00000         0.012523     -0.006241     -0.000000
     21.18773     20.72579     20.00000        -0.007059      0.003415     -0.000000
     21.22230     19.33419     20.00000         0.008885      0.003066     -0.000000
     20.03481     18.60833     20.00000        -0.012523      0.006241      0.000000
     18.81227     19.27421     20.00000         0.007059     -0.003415     -0.000000
     17.88740     18.70884     20.00000        -0.012010     -0.005238     -0.000000
     20.06191     17.52464     20.00000        -0.000330     -0.011582     -0.000000
     22.17466     18.81601     19.99996         0.004594     -0.004205     -0.000000
     22.11260     21.29116     20.00000         0.012010      0.005238     -0.000000
     19.93809     22.47536     20.00000         0.000330      0.011582     -0.000000
     17.82534     21.18399     20.00000        -0.004594      0.004205      0.000000
 -----------------------------------------------------------------------------------
    total drift:                                0.000000     -0.000000      0.004096


--------------------------------------------------------------------------------------------------------



  FREE ENERGIE OF THE ION-ELECTRON SYSTEM (eV)
  ---------------------------------------------------
  free  energy   TOTEN  =       -80.34740230 eV

  energy  without entropy=      -80.34740230  energy(sigma->0) =      -80.34740230
 
 d Force = 0.1661600E-03[-0.136E-03, 0.468E-03]  d Energy = 0.8173945E-04 0.844E-04
 d Force =-0.1879531E+01[-0.188E+01,-0.188E+01]  d Ewald  =-0.1879530E+01-0.686E-06


--------------------------------------------------------------------------------------------------------


    --------------------------------------------
      INIT:  cpu time      0.2458: real time      0.2452
  FINALIZE:  cpu time     47.3093: real time     47.3113
    --------------------------------------------
    POTLOK:  cpu time     57.7719: real time     57.7979


--------------------------------------------------------------------------------------------------------


 Conjugate gradient step on ions:
 trial-energy change:   -0.000082  1 .order   -0.000166   -0.000468    0.000136
  (g-gl).g = 0.547E-03      g.g   = 0.539E-03  gl.gl    = 0.954E-03
 g(Force)  = 0.539E-03   g(Stress)= 0.000E+00 ortho     =-0.865E-05
 gamma     =   0.57358
 trial     =   0.87691
 opt step  =   0.49941  (harmonic =   0.67973) maximal distance =0.00119247
 next E    =   -80.347438   (d E  =  -0.00012)


--------------------------------------------------------------------------------------------------------


  
 reached required accuracy - stopping structural energy minimisation
 writing wavefunctions
     LOOP+:  cpu time   5139.2003: real time   5147.2975
    4ORBIT:  cpu time      0.0000: real time      0.0000

 total amount of memory used by VASP MPI-rank0   859218. kBytes
=======================================================================

   base      :      30000. kBytes
   nonlr-proj:        750. kBytes
   fftplans  :     167689. kBytes
   grid      :     639968. kBytes
   one-center:         12. kBytes
   wavefun   :      20799. kBytes
 
  
  
 General timing and accounting informations for this job:
 ========================================================
  
                  Total CPU time used (sec):    41489.820
                            User time (sec):    36319.905
                          System time (sec):     5169.916
                         Elapsed time (sec):    41562.954
  
                   Maximum memory used (kb):     6572828.
                   Average memory used (kb):          N/A
  
                          Minor page faults:    992014402
                          Major page faults:            0
                 Voluntary context switches:      1548728
