 vasp.5.4.4.18Apr17-6-g9f103f2a35 (build Nov 09 2017 14:00:25) complex          
  
 executed on             LinuxIFC date 2024.09.08  13:04:04
 running on   16 total cores
 distrk:  each k-point on   16 cores,    1 groups
 distr:  one band on NCORES_PER_BAND=  16 cores,    1 groups


--------------------------------------------------------------------------------------------------------


 INCAR:
 POTCAR:    PAW_PBE C 08Apr2002                   
 POTCAR:    PAW_PBE H 15Jun2001                   

 ----------------------------------------------------------------------------- 
|                                                                             |
|           W    W    AA    RRRRR   N    N  II  N    N   GGGG   !!!           |
|           W    W   A  A   R    R  NN   N  II  NN   N  G    G  !!!           |
|           W    W  A    A  R    R  N N  N  II  N N  N  G       !!!           |
|           W WW W  AAAAAA  RRRRR   N  N N  II  N  N N  G  GGG   !            |
|           WW  WW  A    A  R   R   N   NN  II  N   NN  G    G                |
|           W    W  A    A  R    R  N    N  II  N    N   GGGG   !!!           |
|                                                                             |
|      For optimal performance we recommend to set                            |
|        NCORE= 4 - approx SQRT( number of cores)                             |
|      NCORE specifies how many cores store one orbital (NPAR=cpu/NCORE).     |
|      This setting can  greatly improve the performance of VASP for DFT.     |
|      The default,   NCORE=1            might be grossly inefficient         |
|      on modern multi-core architectures or massively parallel machines.     |
|      Do your own testing !!!!                                               |
|      Unfortunately you need to use the default for GW and RPA calculations. |
|      (for HF NCORE is supported but not extensively tested yet)             |
|                                                                             |
 ----------------------------------------------------------------------------- 

 POTCAR:    PAW_PBE C 08Apr2002                   
   VRHFIN =C: s2p2                                                              
   LEXCH  = PE                                                                  
   EATOM  =   147.1560 eV,   10.8157 Ry                                         
                                                                                
   TITEL  = PAW_PBE C 08Apr2002                                                 
   LULTRA =        F    use ultrasoft PP ?                                      
   IUNSCR =        1    unscreen: 0-lin 1-nonlin 2-no                           
   RPACOR =    1.200    partial core radius                                     
   POMASS =   12.011; ZVAL   =    4.000    mass and valenz                      
   RCORE  =    1.500    outmost cutoff radius                                   
   RWIGS  =    1.630; RWIGS  =    0.863    wigner-seitz radius (au A)           
   ENMAX  =  400.000; ENMIN  =  300.000 eV                                      
   ICORE  =        2    local potential                                         
   LCOR   =        T    correct aug charges                                     
   LPAW   =        T    paw PP                                                  
   EAUG   =  644.873                                                            
   DEXC   =    0.000                                                            
   RMAX   =    1.529    core radius for proj-oper                               
   RAUG   =    1.300    factor for augmentation sphere                          
   RDEP   =    1.501    radius for radial grids                                 
   RDEPT  =    1.300    core radius for aug-charge                              
                                                                                
   Atomic configuration                                                         
    4 entries                                                                   
     n  l   j            E        occ.                                          
     1  0  0.50      -273.3789   2.0000                                         
     2  0  0.50       -13.7508   2.0000                                         
     2  1  0.50        -5.2854   2.0000                                         
     3  2  1.50        -5.4423   0.0000                                         
   Description                                                                  
     l       E           TYP  RCUT    TYP  RCUT                                 
     0    -13.7508458     23  1.200                                             
     0     -8.2022199     23  1.200                                             
     1     -5.2854383     23  1.500                                             
     1     34.0145650     23  1.500                                             
     2     -5.4423304      7  1.500                                             
  local pseudopotential read in
  partial core-charges read in
  partial kinetic energy density read in
  atomic valenz-charges read in
  non local Contribution for L=           0  read in
    real space projection operators read in
  non local Contribution for L=           0  read in
    real space projection operators read in
  non local Contribution for L=           1  read in
    real space projection operators read in
  non local Contribution for L=           1  read in
    real space projection operators read in
    PAW grid and wavefunctions read in
 
   number of l-projection  operators is LMAX  =           4
   number of lm-projection operators is LMMAX =           8
 
 POTCAR:    PAW_PBE H 15Jun2001                   
   VRHFIN =H: ultrasoft test                                                    
   LEXCH  = PE                                                                  
   EATOM  =    12.4884 eV,    0.9179 Ry                                         
                                                                                
   TITEL  = PAW_PBE H 15Jun2001                                                 
   LULTRA =        F    use ultrasoft PP ?                                      
   IUNSCR =        0    unscreen: 0-lin 1-nonlin 2-no                           
   RPACOR =    0.000    partial core radius                                     
   POMASS =    1.000; ZVAL   =    1.000    mass and valenz                      
   RCORE  =    1.100    outmost cutoff radius                                   
   RWIGS  =    0.700; RWIGS  =    0.370    wigner-seitz radius (au A)           
   ENMAX  =  250.000; ENMIN  =  200.000 eV                                      
   RCLOC  =    0.701    cutoff for local pot                                    
   LCOR   =        T    correct aug charges                                     
   LPAW   =        T    paw PP                                                  
   EAUG   =  400.000                                                            
   RMAX   =    1.123    core radius for proj-oper                               
   RAUG   =    1.200    factor for augmentation sphere                          
   RDEP   =    1.112    radius for radial grids                                 
   RDEPT  =    0.926    core radius for aug-charge                              
                                                                                
   Atomic configuration                                                         
    2 entries                                                                   
     n  l   j            E        occ.                                          
     1  0  0.50        -6.4927   1.0000                                         
     2  1  0.50        -3.4015   0.0000                                         
   Description                                                                  
     l       E           TYP  RCUT    TYP  RCUT                                 
     0     -6.4927494     23  1.100                                             
     0      6.8029130     23  1.100                                             
     1     -4.0817478     23  1.100                                             
  local pseudopotential read in
  atomic valenz-charges read in
  non local Contribution for L=           0  read in
    real space projection operators read in
  non local Contribution for L=           0  read in
    real space projection operators read in
  non local Contribution for L=           1  read in
    real space projection operators read in
    PAW grid and wavefunctions read in
 
   number of l-projection  operators is LMAX  =           3
   number of lm-projection operators is LMMAX =           5
 
 Optimization of the real space projectors (new method)

 maximal supplied QI-value         = 25.13
 optimisation between [QCUT,QGAM] = [ 11.31, 22.87] = [ 35.82,146.48] Ry 
 Optimized for a Real-space Cutoff    1.03 Angstroem

   l    n(q)    QCUT    max X(q) W(low)/X(q) W(high)/X(q)  e(spline) 
   0      7    11.310   115.676    0.20E-03    0.90E-03    0.20E-06
   0      7    11.310    87.132    0.20E-03    0.89E-03    0.19E-06
   1      6    11.310     4.429    0.16E-03    0.28E-03    0.12E-06
   1      6    11.310     2.733    0.12E-03    0.21E-03    0.99E-07
 Optimization of the real space projectors (new method)

 maximal supplied QI-value         = 34.20
 optimisation between [QCUT,QGAM] = [ 11.29, 22.57] = [ 35.68,142.71] Ry 
 Optimized for a Real-space Cutoff    1.20 Angstroem

   l    n(q)    QCUT    max X(q) W(low)/X(q) W(high)/X(q)  e(spline) 
   0      8    11.287    19.460    0.22E-03    0.50E-03    0.19E-06
   0      8    11.287    12.209    0.21E-03    0.48E-03    0.18E-06
   1      8    11.287     4.655    0.21E-03    0.11E-04    0.26E-06
  PAW_PBE C 08Apr2002                   :
 energy of atom  1       EATOM= -147.1560
 kinetic energy error for atom=    0.0076 (will be added to EATOM!!)
  PAW_PBE H 15Jun2001                   :
 energy of atom  2       EATOM=  -12.4884
 kinetic energy error for atom=    0.0020 (will be added to EATOM!!)
 
 
 POSCAR: C H                                     
  positions in direct lattice
  No initial velocities read in
 exchange correlation table for  LEXCH =        8
   RHO(1)=    0.500       N(1)  =     2000
   RHO(2)=  100.500       N(2)  =     4000
 


--------------------------------------------------------------------------------------------------------


 ion  position               nearest neighbor table
   1  0.560  0.480  0.517-  26 1.09   6 1.39   2 1.40
   2  0.532  0.490  0.499-   1 1.40   3 1.40   7 1.48
   3  0.535  0.519  0.480-  18 1.09   4 1.39   2 1.40
   4  0.565  0.537  0.478-  17 1.09   3 1.39   5 1.40
   5  0.593  0.526  0.496-  16 1.09   6 1.39   4 1.40
   6  0.590  0.497  0.515-  15 1.09   1 1.39   5 1.39
   7  0.500  0.471  0.500-   8 1.35   2 1.48   9 1.48
   8  0.500  0.438  0.500-  20 1.10  19 1.10   7 1.35
   9  0.468  0.490  0.501-  10 1.40  14 1.40   7 1.48
  10  0.440  0.480  0.483-  25 1.09  11 1.39   9 1.40
  11  0.410  0.497  0.485-  24 1.09  10 1.39  12 1.39
  12  0.407  0.526  0.504-  23 1.09  11 1.39  13 1.40
  13  0.435  0.537  0.522-  22 1.09  14 1.39  12 1.40
  14  0.465  0.519  0.520-  21 1.09  13 1.39   9 1.40
  15  0.612  0.488  0.529-   6 1.09
  16  0.616  0.540  0.494-   5 1.09
  17  0.566  0.559  0.462-   4 1.09
  18  0.513  0.528  0.466-   3 1.09
  19  0.477  0.423  0.502-   8 1.10
  20  0.523  0.423  0.498-   8 1.10
  21  0.487  0.528  0.534-  14 1.09
  22  0.434  0.559  0.538-  13 1.09
  23  0.384  0.540  0.506-  12 1.09
  24  0.388  0.488  0.471-  11 1.09
  25  0.442  0.457  0.467-  10 1.09
  26  0.558  0.457  0.533-   1 1.09
 
  LATTYP: Found a simple cubic cell.
 ALAT       =    40.0000000000
  
  Lattice vectors:
  
 A1 = (  40.0000000000,   0.0000000000,   0.0000000000)
 A2 = (   0.0000000000,  40.0000000000,   0.0000000000)
 A3 = (   0.0000000000,   0.0000000000,  40.0000000000)


Analysis of symmetry for initial positions (statically):
=====================================================================
 Subroutine PRICEL returns:
 Original cell was already a primitive cell.
 

 Routine SETGRP: Setting up the symmetry group for a 
 simple cubic supercell.


 Subroutine GETGRP returns: Found  2 space group operations
 (whereof  2 operations were pure point group operations)
 out of a pool of 48 trial point group operations.


The static configuration has the point symmetry C_2 .


Analysis of symmetry for dynamics (positions and initial velocities):
=====================================================================
 Subroutine PRICEL returns:
 Original cell was already a primitive cell.
 

 Routine SETGRP: Setting up the symmetry group for a 
 simple cubic supercell.


 Subroutine GETGRP returns: Found  2 space group operations
 (whereof  2 operations were pure point group operations)
 out of a pool of 48 trial point group operations.


The dynamic configuration has the point symmetry C_2 .


Analysis of constrained symmetry for selective dynamics:
=====================================================================
 Subroutine PRICEL returns:
 Original cell was already a primitive cell.
 

 Routine SETGRP: Setting up the symmetry group for a 
 simple cubic supercell.


 Subroutine GETGRP returns: Found  2 space group operations
 (whereof  2 operations were pure point group operations)
 out of a pool of 48 trial point group operations.


The constrained configuration has the point symmetry C_2 .


Analysis of structural, dynamic, and magnetic symmetry:
=====================================================================
 Subroutine PRICEL returns:
 Original cell was already a primitive cell.
 

 Routine SETGRP: Setting up the symmetry group for a 
 simple cubic supercell.


 Subroutine GETGRP returns: Found  2 space group operations
 (whereof  2 operations were pure point group operations)
 out of a pool of 48 trial point group operations.


The magnetic configuration has the point symmetry C_2 .


 Subroutine INISYM returns: Found  2 space group operations
 (whereof  2 operations are pure point group operations),
 and found     1 'primitive' translations

 
 
 KPOINTS: K-Point Grid                            

Automatic generation of k-mesh.
Space group operators:
 irot       det(A)        alpha          n_x          n_y          n_z        tau_x        tau_y        tau_z
    1     1.000000     0.000000     1.000000     0.000000     0.000000     0.000000     0.000000     0.000000
    2     1.000000   180.000000     0.000000     1.000000     0.000000     0.000000     0.000000     0.000000
 
 Subroutine IBZKPT returns following result:
 ===========================================
 
 Found      1 irreducible k-points:
 
 Following reciprocal coordinates:
            Coordinates               Weight
  0.000000  0.000000  0.000000      1.000000
 
 Following cartesian coordinates:
            Coordinates               Weight
  0.000000  0.000000  0.000000      1.000000
 


--------------------------------------------------------------------------------------------------------




 Dimension of arrays:
   k-points           NKPTS =      1   k-points in BZ     NKDIM =      1   number of bands    NBANDS=     61
   number of dos      NEDOS =    301   number of ions     NIONS =     26
   non local maximal  LDIM  =      4   non local SUM 2l+1 LMDIM =      8
   total plane-waves  NPLWV = ******
   max r-space proj   IRMAX =   2915   max aug-charges    IRDMAX=   4885
   dimension x,y,z NGX =   294 NGY =  294 NGZ =  294
   dimension x,y,z NGXF=   588 NGYF=  588 NGZF=  588
   support grid    NGXF=   588 NGYF=  588 NGZF=  588
   ions per type =              14  12
   NGX,Y,Z   is equivalent  to a cutoff of  12.22, 12.22, 12.22 a.u.
   NGXF,Y,Z  is equivalent  to a cutoff of  24.44, 24.44, 24.44 a.u.

 SYSTEM =  015_red                                 
 POSCAR =  C H                                     

 Startparameter for this run:
   NWRITE =      2    write-flag & timer
   PREC   = accura    normal or accurate (medium, high low for compatibility)
   ISTART =      0    job   : 0-new  1-cont  2-samecut
   ICHARG =      2    charge: 1-file 2-atom 10-const
   ISPIN  =      2    spin polarized calculation?
   LNONCOLLINEAR =      F non collinear calculations
   LSORBIT =      F    spin-orbit coupling
   INIWAV =      1    electr: 0-lowe 1-rand  2-diag
   LASPH  =      F    aspherical Exc in radial PAW
   METAGGA=      F    non-selfconsistent MetaGGA calc.

 Electronic Relaxation 1
   ENCUT  =  500.0 eV  36.75 Ry    6.06 a.u.  72.93 72.93 72.93*2*pi/ulx,y,z
   ENINI  =  500.0     initial cutoff
   ENAUG  =  644.9 eV  augmentation charge cutoff
   NELM   =    100;   NELMIN=  2; NELMDL= -5     # of ELM steps 
   EDIFF  = 0.1E-04   stopping-criterion for ELM
   LREAL  =      T    real-space projection
   NLSPLINE    = F    spline interpolate recip. space projectors
   LCOMPAT=      F    compatible to vasp.4.4
   GGA_COMPAT  = T    GGA compatible to vasp.4.4-vasp.4.6
   LMAXPAW     = -100 max onsite density
   LMAXMIX     =    2 max onsite mixed and CHGCAR
   VOSKOWN=      0    Vosko Wilk Nusair interpolation
   ROPT   =   -0.00025  -0.00025
 Ionic relaxation
   EDIFFG = -.2E-01   stopping-criterion for IOM
   NSW    =    500    number of steps for IOM
   NBLOCK =      1;   KBLOCK =    500    inner block; outer block 
   IBRION =      2    ionic relax: 0-MD 1-quasi-New 2-CG
   NFREE  =      1    steps in history (QN), initial steepest desc. (CG)
   ISIF   =      2    stress and relaxation
   IWAVPR =     11    prediction:  0-non 1-charg 2-wave 3-comb
   ISYM   =      2    0-nonsym 1-usesym 2-fastsym
   LCORR  =      T    Harris-Foulkes like correction to forces

   POTIM  = 0.5000    time-step for ionic-motion
   TEIN   =    0.0    initial temperature
   TEBEG  =    0.0;   TEEND  =   0.0 temperature during run
   SMASS  =  -3.00    Nose mass-parameter (am)
   estimated Nose-frequenzy (Omega)   =  0.10E-29 period in steps =****** mass=  -0.366E-25a.u.
   SCALEE = 1.0000    scale energy and forces
   NPACO  =    256;   APACO  = 16.0  distance and # of slots for P.C.
   PSTRESS=    0.0 pullay stress

  Mass of Ions in am
   POMASS =  12.01  1.00
  Ionic Valenz
   ZVAL   =   4.00  1.00
  Atomic Wigner-Seitz radii
   RWIGS  =  -1.00 -1.00
  virtual crystal weights 
   VCA    =   1.00  1.00
   NELECT =      68.0000    total number of electrons
   NUPDOWN=      -1.0000    fix difference up-down

 DOS related values:
   EMIN   =  10.00;   EMAX   =-10.00  energy-range for DOS
   EFERMI =   0.00
   ISMEAR =     0;   SIGMA  =   0.05  broadening in eV -4-tet -1-fermi 0-gaus

 Electronic relaxation 2 (details)
   IALGO  =     68    algorithm
   LDIAG  =      T    sub-space diagonalisation (order eigenvalues)
   LSUBROT=      F    optimize rotation matrix (better conditioning)
   TURBO    =      0    0=normal 1=particle mesh
   IRESTART =      0    0=no restart 2=restart with 2 vectors
   NREBOOT  =      0    no. of reboots
   NMIN     =      0    reboot dimension
   EREF     =   0.00    reference energy to select bands
   IMIX   =      4    mixing-type and parameters
     AMIX     =   0.40;   BMIX     =  1.00
     AMIX_MAG =   1.60;   BMIX_MAG =  1.00
     AMIN     =   0.10
     WC   =   100.;   INIMIX=   1;  MIXPRE=   1;  MAXMIX= -45

 Intra band minimization:
   WEIMIN = 0.0010     energy-eigenvalue tresh-hold
   EBREAK =  0.41E-07  absolut break condition
   DEPER  =   0.30     relativ break condition  

   TIME   =   0.40     timestep for ELM

  volume/ion in A,a.u.               =    2461.54     16611.28
  Fermi-wavevector in a.u.,A,eV,Ry     =   0.167052  0.315682  0.379688  0.027906
  Thomas-Fermi vector in A             =   0.871524
 
 Write flags
   LWAVE        =      T    write WAVECAR
   LDOWNSAMPLE  =      F    k-point downsampling of WAVECAR
   LCHARG       =      F    write CHGCAR
   LVTOT        =      F    write LOCPOT, total local potential
   LVHAR        =      F    write LOCPOT, Hartree potential only
   LELF         =      F    write electronic localiz. function (ELF)
   LORBIT       =      0    0 simple, 1 ext, 2 COOP (PROOUT), +10 PAW based schemes


 Dipole corrections
   LMONO  =      F    monopole corrections only (constant potential shift)
   LDIPOL =      F    correct potential (dipole corrections)
   IDIPOL =      0    1-x, 2-y, 3-z, 4-all directions 
   EPSILON=  1.0000000 bulk dielectric constant

 Exchange correlation treatment:
   GGA     =    --    GGA type
   LEXCH   =     8    internal setting for exchange type
   VOSKOWN=      0    Vosko Wilk Nusair interpolation
   LHFCALC =     F    Hartree Fock is set to
   LHFONE  =     F    Hartree Fock one center treatment
   AEXX    =    0.0000 exact exchange contribution

 Linear response parameters
   LEPSILON=     F    determine dielectric tensor
   LRPA    =     F    only Hartree local field effects (RPA)
   LNABLA  =     F    use nabla operator in PAW spheres
   LVEL    =     F    velocity operator in full k-point grid
   LINTERFAST=   F  fast interpolation
   KINTER  =     0    interpolate to denser k-point grid
   CSHIFT  =0.1000    complex shift for real part using Kramers Kronig
   OMEGAMAX=  -1.0    maximum frequency
   DEG_THRESHOLD= 0.2000000E-02 threshold for treating states as degnerate
   RTIME   =   -0.100 relaxation time in fs
  (WPLASMAI=    0.000 imaginary part of plasma frequency in eV, 0.658/RTIME)
   DFIELD  = 0.0000000 0.0000000 0.0000000 field for delta impulse in time
 
 Orbital magnetization related:
   ORBITALMAG=     F  switch on orbital magnetization
   LCHIMAG   =     F  perturbation theory with respect to B field
   DQ        =  0.001000  dq finite difference perturbation B field
   LLRAUG    =     F  two centre corrections for induced B field

 Solvation model:
   LSOL    =     T         switch on solvation model
   EB_K    = 35.688000     relative permittivity of the bulk solvent
   SIGMA_K =  0.600000     width of the dielectric cavity
   NC_K    =  0.002500     cutoff charge density
   TAU     =  0.000000     cavity surface tension
   LAMBDA_D_K    =  3.040000     Debye length in Angstroms
   LRHOB     =     F     write boundcharge  density
   LRHOION     =     F     write ioniccharge density



--------------------------------------------------------------------------------------------------------


 conjugate gradient relaxation of ions
   using selective dynamics as specified on POSCAR
 charge density and potential will be updated during run
 spin polarized calculation
 RMM-DIIS sequential band-by-band and
  variant of blocked Davidson during initial phase
 perform sub-space diagonalisation
    before iterative eigenvector-optimisation
 modified Broyden-mixing scheme, WC =      100.0
 initial mixing is a Kerker type mixing with AMIX =  0.4000 and BMIX =      1.0000
 Hartree-type preconditioning will be used
 using additional bands           27
 real space projection scheme for non local part
 use partial core corrections
 calculate Harris-corrections to forces 
   (improved forces if not selfconsistent)
 use gradient corrections 
 use of overlap-Matrix (Vanderbilt PP)
 Gauss-broadening in eV      SIGMA  =   0.05


--------------------------------------------------------------------------------------------------------


  energy-cutoff  :      500.00
  volume of cell :    64000.00
      direct lattice vectors                 reciprocal lattice vectors
    40.000000000  0.000000000  0.000000000     0.025000000  0.000000000  0.000000000
     0.000000000 40.000000000  0.000000000     0.000000000  0.025000000  0.000000000
     0.000000000  0.000000000 40.000000000     0.000000000  0.000000000  0.025000000

  length of vectors
    40.000000000 40.000000000 40.000000000     0.025000000  0.025000000  0.025000000


 
 k-points in units of 2pi/SCALE and weight: K-Point Grid                            
   0.00000000  0.00000000  0.00000000       1.000
 
 k-points in reciprocal lattice and weights: K-Point Grid                            
   0.00000000  0.00000000  0.00000000       1.000
 
 position of ions in fractional coordinates (direct lattice) 
   0.55993800  0.47960000  0.51691800
   0.53179300  0.49037500  0.49900800
   0.53456500  0.51946300  0.47959000
   0.56464400  0.53687800  0.47773200
   0.59250800  0.52574000  0.49550300
   0.59001400  0.49706100  0.51516400
   0.50000000  0.47128300  0.50000000
   0.50000000  0.43763800  0.49999900
   0.46820700  0.49037500  0.50099200
   0.44006200  0.47960100  0.48308200
   0.40998600  0.49706200  0.48483600
   0.40749200  0.52574100  0.50449700
   0.43535600  0.53687800  0.52226900
   0.46543500  0.51946300  0.52041100
   0.61161700  0.48833500  0.52949900
   0.61609600  0.53952200  0.49418100
   0.56635400  0.55935900  0.46224100
   0.51281600  0.52830700  0.46557000
   0.47669400  0.42341600  0.50201600
   0.52330500  0.42341500  0.49798200
   0.48718400  0.52830600  0.53443100
   0.43364600  0.55935800  0.53776100
   0.38390400  0.53952300  0.50582000
   0.38838300  0.48833600  0.47050000
   0.44207700  0.45748200  0.46713000
   0.55792300  0.45748100  0.53286800
 
 position of ions in cartesian coordinates  (Angst):
  22.39752000 19.18400000 20.67672000
  21.27172000 19.61500000 19.96032000
  21.38260000 20.77852000 19.18360000
  22.58576000 21.47512000 19.10928000
  23.70032000 21.02960000 19.82012000
  23.60056000 19.88244000 20.60656000
  20.00000000 18.85132000 20.00000000
  20.00000000 17.50552000 19.99996000
  18.72828000 19.61500000 20.03968000
  17.60248000 19.18404000 19.32328000
  16.39944000 19.88248000 19.39344000
  16.29968000 21.02964000 20.17988000
  17.41424000 21.47512000 20.89076000
  18.61740000 20.77852000 20.81644000
  24.46468000 19.53340000 21.17996000
  24.64384000 21.58088000 19.76724000
  22.65416000 22.37436000 18.48964000
  20.51264000 21.13228000 18.62280000
  19.06776000 16.93664000 20.08064000
  20.93220000 16.93660000 19.91928000
  19.48736000 21.13224000 21.37724000
  17.34584000 22.37432000 21.51044000
  15.35616000 21.58092000 20.23280000
  15.53532000 19.53344000 18.82000000
  17.68308000 18.29928000 18.68520000
  22.31692000 18.29924000 21.31472000
 


--------------------------------------------------------------------------------------------------------


 k-point  1 :   0.0000 0.0000 0.0000  plane waves: 1624525

 maximum and minimum number of plane-waves per node :    101563   101504

 maximum number of plane-waves:   1624525
 maximum index in each direction: 
   IXMAX=   72   IYMAX=   72   IZMAX=   72
   IXMIN=  -72   IYMIN=  -72   IZMIN=  -72


 real space projection operators:
  total allocation   :       2861.62 KBytes
  max/ min on nodes  :        192.94        168.08


 parallel 3D FFT for wavefunctions:
    minimum data exchange during FFTs selected (reduces bandwidth)
 parallel 3D FFT for charge:
    minimum data exchange during FFTs selected (reduces bandwidth)


 total amount of memory used by VASP MPI-rank0  1865657. kBytes
=======================================================================

   base      :      30000. kBytes
   nonlr-proj:       1493. kBytes
   fftplans  :     478128. kBytes
   grid      :    1157748. kBytes
   one-center:         12. kBytes
   wavefun   :     198276. kBytes
 
     INWAV:  cpu time    0.0000: real time    0.0010
 Broyden mixing: mesh for mixing (old mesh)
   NGX =145   NGY =145   NGZ =145
  (NGX  =588   NGY  =588   NGZ  =588)
  gives a total of ****** points

 initial charge density was supplied:
 charge density of overlapping atoms calculated
 number of electron      68.0000000 magnetization      26.0000000
 keeping initial charge density in first step


--------------------------------------------------------------------------------------------------------


 Maximum index for non-local projection operator          237
 Maximum index for augmentation-charges          333 (set IRDMAX)


--------------------------------------------------------------------------------------------------------


 First call to EWALD:  gamma=   0.044
 Maximum number of real-space cells 3x 3x 3
 Maximum number of reciprocal cells 3x 3x 3

    FEWALD:  cpu time    0.0027: real time    0.0027


--------------------------------------- Iteration      1(   1)  ---------------------------------------


    POTLOK:  cpu time  551.7289: real time  552.8424
    SETDIJ:  cpu time    0.1450: real time    0.1453
     EDDAV:  cpu time   60.8336: real time   60.9567
       DOS:  cpu time    0.0004: real time    0.0004
    --------------------------------------------
      LOOP:  cpu time  612.7079: real time  613.9448

 eigenvalue-minimisations  :   292
 total energy-change (2. order) : 0.6181243E+03  (-0.9399934E+03)
 number of electron      68.0000000 magnetization      26.0000000
 augmentation part       68.0000000 magnetization      26.0000000

 Free energy of the ion-electron system (eV)
  ---------------------------------------------------
  alpha Z        PSCENC =         0.33654424
  Ewald energy   TEWEN  =      8126.85004817
  -Hartree energ DENC   =     -9546.64173269
  -exchange      EXHF   =         0.00000000
  -V(xc)+E(xc)   XCENC  =       215.59745225
  PAW double counting   =      1539.04512886    -1546.99331561
  entropy T*S    EENTRO =        -0.09729117
  eigenvalues    EBANDS =      -368.78134672
  atomic energy  EATOM  =      2209.91506195
  Solvation  Ediel_sol  =       -11.10628564
  ---------------------------------------------------
  free energy    TOTEN  =       618.12426362 eV

  energy without entropy =      618.22155479  energy(sigma->0) =      618.17290921


--------------------------------------------------------------------------------------------------------




--------------------------------------- Iteration      1(   2)  ---------------------------------------


     EDDAV:  cpu time   85.4275: real time   85.6065
       DOS:  cpu time    0.0003: real time    0.0003
    --------------------------------------------
      LOOP:  cpu time   85.4278: real time   85.6068

 eigenvalue-minimisations  :   448
 total energy-change (2. order) :-0.3749359E+03  (-0.3452506E+03)
 number of electron      68.0000000 magnetization      26.0000000
 augmentation part       68.0000000 magnetization      26.0000000

 Free energy of the ion-electron system (eV)
  ---------------------------------------------------
  alpha Z        PSCENC =         0.33654424
  Ewald energy   TEWEN  =      8126.85004817
  -Hartree energ DENC   =     -9546.64173269
  -exchange      EXHF   =         0.00000000
  -V(xc)+E(xc)   XCENC  =       215.59745225
  PAW double counting   =      1539.04512886    -1546.99331561
  entropy T*S    EENTRO =        -0.00961945
  eigenvalues    EBANDS =      -743.80488855
  atomic energy  EATOM  =      2209.91506195
  Solvation  Ediel_sol  =       -11.10628564
  ---------------------------------------------------
  free energy    TOTEN  =       243.18839352 eV

  energy without entropy =      243.19801297  energy(sigma->0) =      243.19320324


--------------------------------------------------------------------------------------------------------




--------------------------------------- Iteration      1(   3)  ---------------------------------------


     EDDAV:  cpu time   74.8751: real time   75.0315
       DOS:  cpu time    0.0002: real time    0.0002
    --------------------------------------------
      LOOP:  cpu time   74.8753: real time   75.0316

 eigenvalue-minimisations  :   384
 total energy-change (2. order) :-0.3241281E+03  (-0.3108649E+03)
 number of electron      68.0000000 magnetization      26.0000000
 augmentation part       68.0000000 magnetization      26.0000000

 Free energy of the ion-electron system (eV)
  ---------------------------------------------------
  alpha Z        PSCENC =         0.33654424
  Ewald energy   TEWEN  =      8126.85004817
  -Hartree energ DENC   =     -9546.64173269
  -exchange      EXHF   =         0.00000000
  -V(xc)+E(xc)   XCENC  =       215.59745225
  PAW double counting   =      1539.04512886    -1546.99331561
  entropy T*S    EENTRO =        -0.00000000
  eigenvalues    EBANDS =     -1067.94263179
  atomic energy  EATOM  =      2209.91506195
  Solvation  Ediel_sol  =       -11.10628564
  ---------------------------------------------------
  free energy    TOTEN  =       -80.93973028 eV

  energy without entropy =      -80.93973028  energy(sigma->0) =      -80.93973028


--------------------------------------------------------------------------------------------------------




--------------------------------------- Iteration      1(   4)  ---------------------------------------


     EDDAV:  cpu time   66.9586: real time   67.0993
       DOS:  cpu time    0.0002: real time    0.0002
    --------------------------------------------
      LOOP:  cpu time   66.9588: real time   67.0995

 eigenvalue-minimisations  :   334
 total energy-change (2. order) :-0.7665853E+02  (-0.7654043E+02)
 number of electron      68.0000000 magnetization      26.0000000
 augmentation part       68.0000000 magnetization      26.0000000

 Free energy of the ion-electron system (eV)
  ---------------------------------------------------
  alpha Z        PSCENC =         0.33654424
  Ewald energy   TEWEN  =      8126.85004817
  -Hartree energ DENC   =     -9546.64173269
  -exchange      EXHF   =         0.00000000
  -V(xc)+E(xc)   XCENC  =       215.59745225
  PAW double counting   =      1539.04512886    -1546.99331561
  entropy T*S    EENTRO =        -0.00000000
  eigenvalues    EBANDS =     -1144.60115928
  atomic energy  EATOM  =      2209.91506195
  Solvation  Ediel_sol  =       -11.10628564
  ---------------------------------------------------
  free energy    TOTEN  =      -157.59825776 eV

  energy without entropy =     -157.59825776  energy(sigma->0) =     -157.59825776


--------------------------------------------------------------------------------------------------------




--------------------------------------- Iteration      1(   5)  ---------------------------------------


     EDDAV:  cpu time   66.8559: real time   66.9957
       DOS:  cpu time    0.0002: real time    0.0002
    CHARGE:  cpu time    9.2453: real time    9.2647
    MIXING:  cpu time    0.4032: real time    0.4041
    --------------------------------------------
      LOOP:  cpu time   76.5046: real time   76.6647

 eigenvalue-minimisations  :   334
 total energy-change (2. order) :-0.2601909E+01  (-0.2590417E+01)
 number of electron      68.0000004 magnetization      24.9982776
 augmentation part        1.7833729 magnetization      25.0269002

 Broyden mixing:
  rms(total) = 0.33159E+01    rms(broyden)= 0.33156E+01
  rms(prec ) = 0.33527E+01
  weight for this iteration     100.00

 Free energy of the ion-electron system (eV)
  ---------------------------------------------------
  alpha Z        PSCENC =         0.33654424
  Ewald energy   TEWEN  =      8126.85004817
  -Hartree energ DENC   =     -9546.64173269
  -exchange      EXHF   =         0.00000000
  -V(xc)+E(xc)   XCENC  =       215.59745225
  PAW double counting   =      1539.04512886    -1546.99331561
  entropy T*S    EENTRO =        -0.00000000
  eigenvalues    EBANDS =     -1147.20306788
  atomic energy  EATOM  =      2209.91506195
  Solvation  Ediel_sol  =       -11.10628564
  ---------------------------------------------------
  free energy    TOTEN  =      -160.20016637 eV

  energy without entropy =     -160.20016637  energy(sigma->0) =     -160.20016637


--------------------------------------------------------------------------------------------------------




--------------------------------------- Iteration      1(   6)  ---------------------------------------


    POTLOK:  cpu time  515.2699: real time  516.3256
    SETDIJ:  cpu time    0.1126: real time    0.1128
    EDDIAG:  cpu time   11.8971: real time   11.9216
  RMM-DIIS:  cpu time   42.6818: real time   42.7691
    ORTHCH:  cpu time    0.2587: real time    0.2593
       DOS:  cpu time    0.0002: real time    0.0002
    CHARGE:  cpu time    8.8221: real time    8.8416
    MIXING:  cpu time    0.4358: real time    0.4466
    --------------------------------------------
      LOOP:  cpu time  579.4782: real time  580.6767

 eigenvalue-minimisations  :   244
 total energy-change (2. order) : 0.7640403E+02  (-0.1571478E+02)
 number of electron      68.0000003 magnetization      23.9107396
 augmentation part        1.7618475 magnetization      23.8072122

 Broyden mixing:
  rms(total) = 0.16654E+01    rms(broyden)= 0.16653E+01
  rms(prec ) = 0.16937E+01
  weight for this iteration     100.00

 eigenvalues of (default mixing * dielectric matrix)
  average eigenvalue GAMMA=   0.9571
  0.9571

 Free energy of the ion-electron system (eV)
  ---------------------------------------------------
  alpha Z        PSCENC =         0.33654424
  Ewald energy   TEWEN  =      8126.85004817
  -Hartree energ DENC   =     -9692.76490916
  -exchange      EXHF   =         0.00000000
  -V(xc)+E(xc)   XCENC  =       284.19021357
  PAW double counting   =      2874.89573887    -2884.38339488
  entropy T*S    EENTRO =        -0.00000000
  eigenvalues    EBANDS =      -979.32690441
  atomic energy  EATOM  =      2209.91506195
  Solvation  Ediel_sol  =       -23.50853488
  ---------------------------------------------------
  free energy    TOTEN  =       -83.79613655 eV

  energy without entropy =      -83.79613655  energy(sigma->0) =      -83.79613655


--------------------------------------------------------------------------------------------------------




--------------------------------------- Iteration      1(   7)  ---------------------------------------


    POTLOK:  cpu time  731.7622: real time  733.2726
    SETDIJ:  cpu time    0.1556: real time    0.1559
    EDDIAG:  cpu time   12.2019: real time   12.2262
  RMM-DIIS:  cpu time   43.1366: real time   43.2203
    ORTHCH:  cpu time    0.2723: real time    0.2729
       DOS:  cpu time    0.0002: real time    0.0002
    CHARGE:  cpu time    8.9021: real time    8.9205
    MIXING:  cpu time    0.4537: real time    0.4546
    --------------------------------------------
      LOOP:  cpu time  796.8845: real time  798.5233

 eigenvalue-minimisations  :   244
 total energy-change (2. order) :-0.4085307E+02  (-0.4184107E+01)
 number of electron      68.0000002 magnetization      22.6764245
 augmentation part        1.6787994 magnetization      22.5660301

 Broyden mixing:
  rms(total) = 0.10324E+01    rms(broyden)= 0.10323E+01
  rms(prec ) = 0.10416E+01
  weight for this iteration     100.00

 eigenvalues of (default mixing * dielectric matrix)
  average eigenvalue GAMMA=   1.0827
  0.8061  1.3592

 Free energy of the ion-electron system (eV)
  ---------------------------------------------------
  alpha Z        PSCENC =         0.33654424
  Ewald energy   TEWEN  =      8126.85004817
  -Hartree energ DENC   =     -9807.09057771
  -exchange      EXHF   =         0.00000000
  -V(xc)+E(xc)   XCENC  =       254.83622016
  PAW double counting   =      4143.97665662    -4154.22943448
  entropy T*S    EENTRO =        -0.00000000
  eigenvalues    EBANDS =      -864.32753928
  atomic energy  EATOM  =      2209.91506195
  Solvation  Ediel_sol  =       -34.91619018
  ---------------------------------------------------
  free energy    TOTEN  =      -124.64921052 eV

  energy without entropy =     -124.64921052  energy(sigma->0) =     -124.64921052


--------------------------------------------------------------------------------------------------------




--------------------------------------- Iteration      1(   8)  ---------------------------------------


    POTLOK:  cpu time  734.4263: real time  735.9425
    SETDIJ:  cpu time    0.1048: real time    0.1050
    EDDIAG:  cpu time   12.1784: real time   12.2027
  RMM-DIIS:  cpu time   43.3356: real time   43.4209
    ORTHCH:  cpu time    0.2654: real time    0.2659
       DOS:  cpu time    0.0002: real time    0.0002
    CHARGE:  cpu time    8.8638: real time    8.8824
    MIXING:  cpu time    0.4748: real time    0.4758
    --------------------------------------------
      LOOP:  cpu time  799.6493: real time  801.2954

 eigenvalue-minimisations  :   244
 total energy-change (2. order) :-0.9965007E+01  (-0.9746372E+00)
 number of electron      68.0000002 magnetization      21.2007980
 augmentation part        1.6315442 magnetization      21.1038227

 Broyden mixing:
  rms(total) = 0.65362E+00    rms(broyden)= 0.65359E+00
  rms(prec ) = 0.65781E+00
  weight for this iteration     100.00

 eigenvalues of (default mixing * dielectric matrix)
  average eigenvalue GAMMA=   1.2545
  1.9538  1.1091  0.7007

 Free energy of the ion-electron system (eV)
  ---------------------------------------------------
  alpha Z        PSCENC =         0.33654424
  Ewald energy   TEWEN  =      8126.85004817
  -Hartree energ DENC   =     -9869.71776869
  -exchange      EXHF   =         0.00000000
  -V(xc)+E(xc)   XCENC  =       249.81305074
  PAW double counting   =      5223.47722548    -5233.84067013
  entropy T*S    EENTRO =        -0.00000000
  eigenvalues    EBANDS =      -800.57943838
  atomic energy  EATOM  =      2209.91506195
  Solvation  Ediel_sol  =       -40.86827070
  ---------------------------------------------------
  free energy    TOTEN  =      -134.61421732 eV

  energy without entropy =     -134.61421732  energy(sigma->0) =     -134.61421732


--------------------------------------------------------------------------------------------------------




--------------------------------------- Iteration      1(   9)  ---------------------------------------


    POTLOK:  cpu time  735.3516: real time  736.8534
    SETDIJ:  cpu time    0.1348: real time    0.1350
    EDDIAG:  cpu time   12.1771: real time   12.2014
  RMM-DIIS:  cpu time   43.4514: real time   43.5363
    ORTHCH:  cpu time    0.2644: real time    0.2649
       DOS:  cpu time    0.0002: real time    0.0002
    CHARGE:  cpu time    8.8795: real time    8.8980
    MIXING:  cpu time    0.5286: real time    0.5296
    --------------------------------------------
      LOOP:  cpu time  800.7875: real time  802.4189

 eigenvalue-minimisations  :   244
 total energy-change (2. order) :-0.1650947E+02  (-0.8751961E+00)
 number of electron      68.0000002 magnetization      19.8784230
 augmentation part        1.6034344 magnetization      19.8031953

 Broyden mixing:
  rms(total) = 0.40546E+00    rms(broyden)= 0.40545E+00
  rms(prec ) = 0.40759E+00
  weight for this iteration     100.00

 eigenvalues of (default mixing * dielectric matrix)
  average eigenvalue GAMMA=   1.3418
  2.1767  1.6893  0.8534  0.6476

 Free energy of the ion-electron system (eV)
  ---------------------------------------------------
  alpha Z        PSCENC =         0.33654424
  Ewald energy   TEWEN  =      8126.85004817
  -Hartree energ DENC   =     -9897.61099830
  -exchange      EXHF   =         0.00000000
  -V(xc)+E(xc)   XCENC  =       238.75978974
  PAW double counting   =      5926.03090418    -5936.20872098
  entropy T*S    EENTRO =        -0.00000000
  eigenvalues    EBANDS =      -782.17010043
  atomic energy  EATOM  =      2209.91506195
  Solvation  Ediel_sol  =       -37.02621624
  ---------------------------------------------------
  free energy    TOTEN  =      -151.12368767 eV

  energy without entropy =     -151.12368767  energy(sigma->0) =     -151.12368767


--------------------------------------------------------------------------------------------------------




--------------------------------------- Iteration      1(  10)  ---------------------------------------


    POTLOK:  cpu time  707.5947: real time  709.0570
    SETDIJ:  cpu time    0.1231: real time    0.1234
    EDDIAG:  cpu time   12.1505: real time   12.1754
  RMM-DIIS:  cpu time   43.1473: real time   43.2317
    ORTHCH:  cpu time    0.2596: real time    0.2601
       DOS:  cpu time    0.0002: real time    0.0002
    CHARGE:  cpu time    8.8815: real time    8.8998
    MIXING:  cpu time    0.5721: real time    0.5733
    --------------------------------------------
      LOOP:  cpu time  772.7290: real time  774.3209

 eigenvalue-minimisations  :   244
 total energy-change (2. order) :-0.7359256E+01  (-0.3757206E+00)
 number of electron      68.0000002 magnetization      18.3925693
 augmentation part        1.5931932 magnetization      18.3407603

 Broyden mixing:
  rms(total) = 0.28969E+00    rms(broyden)= 0.28968E+00
  rms(prec ) = 0.29104E+00
  weight for this iteration     100.00

 eigenvalues of (default mixing * dielectric matrix)
  average eigenvalue GAMMA=   1.3243
  2.1218  2.1218  0.9084  0.8430  0.6263

 Free energy of the ion-electron system (eV)
  ---------------------------------------------------
  alpha Z        PSCENC =         0.33654424
  Ewald energy   TEWEN  =      8126.85004817
  -Hartree energ DENC   =     -9903.44881845
  -exchange      EXHF   =         0.00000000
  -V(xc)+E(xc)   XCENC  =       233.56136729
  PAW double counting   =      6116.88969778    -6126.87631509
  entropy T*S    EENTRO =        -0.00000000
  eigenvalues    EBANDS =      -788.23261414
  atomic energy  EATOM  =      2209.91506195
  Solvation  Ediel_sol  =       -27.47791501
  ---------------------------------------------------
  free energy    TOTEN  =      -158.48294327 eV

  energy without entropy =     -158.48294327  energy(sigma->0) =     -158.48294327


--------------------------------------------------------------------------------------------------------




--------------------------------------- Iteration      1(  11)  ---------------------------------------


    POTLOK:  cpu time  688.7553: real time  690.1321
    SETDIJ:  cpu time    0.1078: real time    0.1080
    EDDIAG:  cpu time   12.1557: real time   12.1801
  RMM-DIIS:  cpu time   43.1435: real time   43.2284
    ORTHCH:  cpu time    0.2525: real time    0.2530
       DOS:  cpu time    0.0002: real time    0.0002
    CHARGE:  cpu time    8.9105: real time    8.9290
    MIXING:  cpu time    0.5686: real time    0.5698
    --------------------------------------------
      LOOP:  cpu time  753.8941: real time  755.4006

 eigenvalue-minimisations  :   244
 total energy-change (2. order) :-0.3945516E+01  (-0.1944513E+00)
 number of electron      68.0000002 magnetization      15.6643464
 augmentation part        1.5878234 magnetization      15.6278692

 Broyden mixing:
  rms(total) = 0.22131E+00    rms(broyden)= 0.22130E+00
  rms(prec ) = 0.22214E+00
  weight for this iteration     100.00

 eigenvalues of (default mixing * dielectric matrix)
  average eigenvalue GAMMA=   1.5450
  2.7346  2.7346  1.5070  0.9312  0.7418  0.6207

 Free energy of the ion-electron system (eV)
  ---------------------------------------------------
  alpha Z        PSCENC =         0.33654424
  Ewald energy   TEWEN  =      8126.85004817
  -Hartree energ DENC   =     -9905.84470003
  -exchange      EXHF   =         0.00000000
  -V(xc)+E(xc)   XCENC  =       230.57605769
  PAW double counting   =      6075.56310644    -6085.47159171
  entropy T*S    EENTRO =        -0.00000000
  eigenvalues    EBANDS =      -798.09921309
  atomic energy  EATOM  =      2209.91506195
  Solvation  Ediel_sol  =       -16.25377314
  ---------------------------------------------------
  free energy    TOTEN  =      -162.42845951 eV

  energy without entropy =     -162.42845951  energy(sigma->0) =     -162.42845951


--------------------------------------------------------------------------------------------------------




--------------------------------------- Iteration      1(  12)  ---------------------------------------


    POTLOK:  cpu time  708.2208: real time  709.6704
    SETDIJ:  cpu time    0.1153: real time    0.1155
    EDDIAG:  cpu time   12.1726: real time   12.1971
  RMM-DIIS:  cpu time   43.4742: real time   43.5592
    ORTHCH:  cpu time    0.2583: real time    0.2588
       DOS:  cpu time    0.0002: real time    0.0002
    CHARGE:  cpu time    8.9293: real time    8.9480
    MIXING:  cpu time    0.5596: real time    0.5608
    --------------------------------------------
      LOOP:  cpu time  773.7304: real time  775.3101

 eigenvalue-minimisations  :   244
 total energy-change (2. order) :-0.3164342E+01  (-0.2582658E+00)
 number of electron      68.0000002 magnetization      13.9369730
 augmentation part        1.5831303 magnetization      13.9163807

 Broyden mixing:
  rms(total) = 0.13102E+00    rms(broyden)= 0.13101E+00
  rms(prec ) = 0.13150E+00
  weight for this iteration     100.00

 eigenvalues of (default mixing * dielectric matrix)
  average eigenvalue GAMMA=   1.6880
  4.5433  2.2168  1.8698  0.9512  0.8764  0.7319  0.6263

 Free energy of the ion-electron system (eV)
  ---------------------------------------------------
  alpha Z        PSCENC =         0.33654424
  Ewald energy   TEWEN  =      8126.85004817
  -Hartree energ DENC   =     -9910.78965803
  -exchange      EXHF   =         0.00000000
  -V(xc)+E(xc)   XCENC  =       228.17550557
  PAW double counting   =      5945.88463391    -5955.75423116
  entropy T*S    EENTRO =        -0.00000000
  eigenvalues    EBANDS =      -811.08539134
  atomic energy  EATOM  =      2209.91506195
  Solvation  Ediel_sol  =         0.87468539
  ---------------------------------------------------
  free energy    TOTEN  =      -165.59280132 eV

  energy without entropy =     -165.59280132  energy(sigma->0) =     -165.59280132


--------------------------------------------------------------------------------------------------------




--------------------------------------- Iteration      1(  13)  ---------------------------------------


    POTLOK:  cpu time  690.2703: real time  691.6494
    SETDIJ:  cpu time    0.1121: real time    0.1123
    EDDIAG:  cpu time   12.1813: real time   12.2059
  RMM-DIIS:  cpu time   43.2819: real time   43.3670
    ORTHCH:  cpu time    0.2581: real time    0.2587
       DOS:  cpu time    0.0003: real time    0.0003
    CHARGE:  cpu time    8.9387: real time    8.9573
    MIXING:  cpu time    0.6446: real time    0.6460
    --------------------------------------------
      LOOP:  cpu time  755.6874: real time  757.1969

 eigenvalue-minimisations  :   244
 total energy-change (2. order) :-0.1027270E+01  (-0.7839147E-01)
 number of electron      68.0000002 magnetization      12.4876193
 augmentation part        1.5772163 magnetization      12.4773173

 Broyden mixing:
  rms(total) = 0.94036E-01    rms(broyden)= 0.94030E-01
  rms(prec ) = 0.94538E-01
  weight for this iteration     100.00

 eigenvalues of (default mixing * dielectric matrix)
  average eigenvalue GAMMA=   1.8236
  6.1077  2.1386  2.1386  1.2608  0.8294  0.8294  0.6294  0.6552

 Free energy of the ion-electron system (eV)
  ---------------------------------------------------
  alpha Z        PSCENC =         0.33654424
  Ewald energy   TEWEN  =      8126.85004817
  -Hartree energ DENC   =     -9914.93246555
  -exchange      EXHF   =         0.00000000
  -V(xc)+E(xc)   XCENC  =       227.41568045
  PAW double counting   =      5911.60850045    -5921.51201412
  entropy T*S    EENTRO =        -0.00000000
  eigenvalues    EBANDS =      -813.82175193
  atomic energy  EATOM  =      2209.91506195
  Solvation  Ediel_sol  =         7.52032496
  ---------------------------------------------------
  free energy    TOTEN  =      -166.62007139 eV

  energy without entropy =     -166.62007139  energy(sigma->0) =     -166.62007139


--------------------------------------------------------------------------------------------------------




--------------------------------------- Iteration      1(  14)  ---------------------------------------


    POTLOK:  cpu time  681.8975: real time  683.3017
    SETDIJ:  cpu time    0.1070: real time    0.1072
    EDDIAG:  cpu time   12.1547: real time   12.1808
  RMM-DIIS:  cpu time   43.9457: real time   44.0373
    ORTHCH:  cpu time    0.2630: real time    0.2637
       DOS:  cpu time    0.0002: real time    0.0002
    CHARGE:  cpu time    8.9399: real time    8.9595
    MIXING:  cpu time    0.6316: real time    0.6329
    --------------------------------------------
      LOOP:  cpu time  747.9397: real time  749.4833

 eigenvalue-minimisations  :   249
 total energy-change (2. order) :-0.1358484E+01  (-0.2399372E-01)
 number of electron      68.0000002 magnetization      10.6492761
 augmentation part        1.5742134 magnetization      10.6450744

 Broyden mixing:
  rms(total) = 0.71275E-01    rms(broyden)= 0.71271E-01
  rms(prec ) = 0.71754E-01
  weight for this iteration     100.00

 eigenvalues of (default mixing * dielectric matrix)
  average eigenvalue GAMMA=   1.9369
  7.1044  2.2287  2.0354  2.0354  0.9807  0.9807  0.7961  0.6509  0.6201

 Free energy of the ion-electron system (eV)
  ---------------------------------------------------
  alpha Z        PSCENC =         0.33654424
  Ewald energy   TEWEN  =      8126.85004817
  -Hartree energ DENC   =     -9914.28739851
  -exchange      EXHF   =         0.00000000
  -V(xc)+E(xc)   XCENC  =       226.03713341
  PAW double counting   =      5876.24797634    -5886.16451345
  entropy T*S    EENTRO =        -0.00000000
  eigenvalues    EBANDS =      -817.77349336
  atomic energy  EATOM  =      2209.91506195
  Solvation  Ediel_sol  =        10.86008576
  ---------------------------------------------------
  free energy    TOTEN  =      -167.97855545 eV

  energy without entropy =     -167.97855545  energy(sigma->0) =     -167.97855545


--------------------------------------------------------------------------------------------------------




--------------------------------------- Iteration      1(  15)  ---------------------------------------


    POTLOK:  cpu time  679.9826: real time  681.3867
    SETDIJ:  cpu time    0.1475: real time    0.1478
    EDDIAG:  cpu time   12.1848: real time   12.2092
  RMM-DIIS:  cpu time   42.8287: real time   42.9124
    ORTHCH:  cpu time    0.2527: real time    0.2532
       DOS:  cpu time    0.0002: real time    0.0002
    CHARGE:  cpu time    8.9842: real time    9.0029
    MIXING:  cpu time    0.7072: real time    0.7087
    --------------------------------------------
      LOOP:  cpu time  745.0878: real time  746.6211

 eigenvalue-minimisations  :   244
 total energy-change (2. order) :-0.1066068E+01  (-0.8177592E-02)
 number of electron      68.0000002 magnetization       9.4043055
 augmentation part        1.5753886 magnetization       9.4027791

 Broyden mixing:
  rms(total) = 0.51860E-01    rms(broyden)= 0.51858E-01
  rms(prec ) = 0.52071E-01
  weight for this iteration     100.00

 eigenvalues of (default mixing * dielectric matrix)
  average eigenvalue GAMMA=   2.0157
  7.9089  3.1662  2.1735  1.9831  1.1515  0.8747  0.8747  0.7576  0.6212  0.6463

 Free energy of the ion-electron system (eV)
  ---------------------------------------------------
  alpha Z        PSCENC =         0.33654424
  Ewald energy   TEWEN  =      8126.85004817
  -Hartree energ DENC   =     -9909.59041340
  -exchange      EXHF   =         0.00000000
  -V(xc)+E(xc)   XCENC  =       224.81701489
  PAW double counting   =      5856.77063679    -5866.67165474
  entropy T*S    EENTRO =        -0.00000000
  eigenvalues    EBANDS =      -823.76084535
  atomic energy  EATOM  =      2209.91506195
  Solvation  Ediel_sol  =        12.28898413
  ---------------------------------------------------
  free energy    TOTEN  =      -169.04462333 eV

  energy without entropy =     -169.04462333  energy(sigma->0) =     -169.04462333


--------------------------------------------------------------------------------------------------------




--------------------------------------- Iteration      1(  16)  ---------------------------------------


    POTLOK:  cpu time  662.7130: real time  664.0902
    SETDIJ:  cpu time    0.1465: real time    0.1468
    EDDIAG:  cpu time   12.1881: real time   12.2124
  RMM-DIIS:  cpu time   43.1840: real time   43.2680
    ORTHCH:  cpu time    0.2607: real time    0.2613
       DOS:  cpu time    0.0002: real time    0.0002
    CHARGE:  cpu time    9.0471: real time    9.0659
    MIXING:  cpu time    0.7169: real time    0.7184
    --------------------------------------------
      LOOP:  cpu time  728.2565: real time  729.7631

 eigenvalue-minimisations  :   245
 total energy-change (2. order) :-0.1595103E+00  (-0.2197047E-02)
 number of electron      68.0000002 magnetization       8.0813496
 augmentation part        1.5748018 magnetization       8.0804313

 Broyden mixing:
  rms(total) = 0.41255E-01    rms(broyden)= 0.41254E-01
  rms(prec ) = 0.41390E-01
  weight for this iteration     100.00

 eigenvalues of (default mixing * dielectric matrix)
  average eigenvalue GAMMA=   2.0990
  8.7474  3.9136  2.0676  2.0676  1.5437  0.9789  0.8911  0.8911  0.7279  0.6283
  0.6319

 Free energy of the ion-electron system (eV)
  ---------------------------------------------------
  alpha Z        PSCENC =         0.33654424
  Ewald energy   TEWEN  =      8126.85004817
  -Hartree energ DENC   =     -9908.51014039
  -exchange      EXHF   =         0.00000000
  -V(xc)+E(xc)   XCENC  =       224.66798873
  PAW double counting   =      5880.16813654    -5890.07658264
  entropy T*S    EENTRO =        -0.00000000
  eigenvalues    EBANDS =      -824.20760802
  atomic energy  EATOM  =      2209.91506195
  Solvation  Ediel_sol  =        11.65241783
  ---------------------------------------------------
  free energy    TOTEN  =      -169.20413361 eV

  energy without entropy =     -169.20413361  energy(sigma->0) =     -169.20413361


--------------------------------------------------------------------------------------------------------




--------------------------------------- Iteration      1(  17)  ---------------------------------------


    POTLOK:  cpu time  643.4099: real time  644.6901
    SETDIJ:  cpu time    0.1325: real time    0.1327
    EDDIAG:  cpu time   12.1297: real time   12.1541
  RMM-DIIS:  cpu time   43.6916: real time   43.7765
    ORTHCH:  cpu time    0.2613: real time    0.2619
       DOS:  cpu time    0.0002: real time    0.0002
    CHARGE:  cpu time    8.9773: real time    8.9956
    MIXING:  cpu time    0.7415: real time    0.7430
    --------------------------------------------
      LOOP:  cpu time  709.3440: real time  710.7542

 eigenvalue-minimisations  :   247
 total energy-change (2. order) :-0.2943759E+00  (-0.6645248E-03)
 number of electron      68.0000002 magnetization       6.6949143
 augmentation part        1.5744488 magnetization       6.6943414

 Broyden mixing:
  rms(total) = 0.33832E-01    rms(broyden)= 0.33832E-01
  rms(prec ) = 0.33922E-01
  weight for this iteration     100.00

 eigenvalues of (default mixing * dielectric matrix)
  average eigenvalue GAMMA=   2.1827
  9.4756  4.5488  2.3196  2.3196  1.7617  1.1272  0.9090  0.9090  0.8436  0.7205
  0.6258  0.6323

 Free energy of the ion-electron system (eV)
  ---------------------------------------------------
  alpha Z        PSCENC =         0.33654424
  Ewald energy   TEWEN  =      8126.85004817
  -Hartree energ DENC   =     -9907.15757552
  -exchange      EXHF   =         0.00000000
  -V(xc)+E(xc)   XCENC  =       224.33680396
  PAW double counting   =      5888.85719160    -5898.76602578
  entropy T*S    EENTRO =        -0.00000000
  eigenvalues    EBANDS =      -824.59105731
  atomic energy  EATOM  =      2209.91506195
  Solvation  Ediel_sol  =        10.72049922
  ---------------------------------------------------
  free energy    TOTEN  =      -169.49850950 eV

  energy without entropy =     -169.49850950  energy(sigma->0) =     -169.49850950


--------------------------------------------------------------------------------------------------------




--------------------------------------- Iteration      1(  18)  ---------------------------------------


    POTLOK:  cpu time  643.5957: real time  644.8905
    SETDIJ:  cpu time    0.1580: real time    0.1584
    EDDIAG:  cpu time   12.1720: real time   12.1963
  RMM-DIIS:  cpu time   42.9846: real time   43.0681
    ORTHCH:  cpu time    0.2635: real time    0.2640
       DOS:  cpu time    0.0003: real time    0.0003
    CHARGE:  cpu time    9.0072: real time    9.0258
    MIXING:  cpu time    0.8174: real time    0.8191
    --------------------------------------------
      LOOP:  cpu time  708.9987: real time  710.4224

 eigenvalue-minimisations  :   244
 total energy-change (2. order) :-0.1221021E+00  (-0.2740493E-03)
 number of electron      68.0000002 magnetization       5.4386159
 augmentation part        1.5746541 magnetization       5.4382517

 Broyden mixing:
  rms(total) = 0.28126E-01    rms(broyden)= 0.28126E-01
  rms(prec ) = 0.28185E-01
  weight for this iteration     100.00

 eigenvalues of (default mixing * dielectric matrix)
  average eigenvalue GAMMA=   2.2282
 10.0576  5.2036  2.6453  2.2528  1.9029  1.3465  1.0270  0.8990  0.8990  0.7711
  0.7040  0.6231  0.6349

 Free energy of the ion-electron system (eV)
  ---------------------------------------------------
  alpha Z        PSCENC =         0.33654424
  Ewald energy   TEWEN  =      8126.85004817
  -Hartree energ DENC   =     -9905.61132544
  -exchange      EXHF   =         0.00000000
  -V(xc)+E(xc)   XCENC  =       224.18252880
  PAW double counting   =      5892.77397938    -5902.67574793
  entropy T*S    EENTRO =        -0.00000000
  eigenvalues    EBANDS =      -824.94534152
  atomic energy  EATOM  =      2209.91506195
  Solvation  Ediel_sol  =         9.55364077
  ---------------------------------------------------
  free energy    TOTEN  =      -169.62061160 eV

  energy without entropy =     -169.62061160  energy(sigma->0) =     -169.62061160


--------------------------------------------------------------------------------------------------------




--------------------------------------- Iteration      1(  19)  ---------------------------------------


    POTLOK:  cpu time  634.0924: real time  635.3641
    SETDIJ:  cpu time    0.1633: real time    0.1637
    EDDIAG:  cpu time   12.2032: real time   12.2275
  RMM-DIIS:  cpu time   43.0232: real time   43.1075
    ORTHCH:  cpu time    0.2603: real time    0.2608
       DOS:  cpu time    0.0002: real time    0.0002
    CHARGE:  cpu time    9.0090: real time    9.0301
    MIXING:  cpu time    0.8352: real time    0.8370
    --------------------------------------------
      LOOP:  cpu time  699.5869: real time  700.9909

 eigenvalue-minimisations  :   244
 total energy-change (2. order) :-0.4066014E-01  (-0.2225157E-03)
 number of electron      68.0000002 magnetization       3.5976603
 augmentation part        1.5745412 magnetization       3.5973531

 Broyden mixing:
  rms(total) = 0.23565E-01    rms(broyden)= 0.23565E-01
  rms(prec ) = 0.23604E-01
  weight for this iteration     100.00

 eigenvalues of (default mixing * dielectric matrix)
  average eigenvalue GAMMA=   2.3164
 10.7047  5.9097  3.1901  2.1964  2.1964  1.6629  1.0994  0.9761  0.8998  0.8998
  0.7483  0.6893  0.6229  0.6337

 Free energy of the ion-electron system (eV)
  ---------------------------------------------------
  alpha Z        PSCENC =         0.33654424
  Ewald energy   TEWEN  =      8126.85004817
  -Hartree energ DENC   =     -9905.02338733
  -exchange      EXHF   =         0.00000000
  -V(xc)+E(xc)   XCENC  =       224.16020085
  PAW double counting   =      5897.30359605    -5907.20727878
  entropy T*S    EENTRO =        -0.00000000
  eigenvalues    EBANDS =      -824.50500412
  atomic energy  EATOM  =      2209.91506195
  Solvation  Ediel_sol  =         8.50894725
  ---------------------------------------------------
  free energy    TOTEN  =      -169.66127174 eV

  energy without entropy =     -169.66127174  energy(sigma->0) =     -169.66127174


--------------------------------------------------------------------------------------------------------




--------------------------------------- Iteration      1(  20)  ---------------------------------------


    POTLOK:  cpu time  634.2491: real time  635.5422
    SETDIJ:  cpu time    0.1040: real time    0.1041
    EDDIAG:  cpu time   12.2218: real time   12.2459
  RMM-DIIS:  cpu time   43.6414: real time   43.7262
    ORTHCH:  cpu time    0.2629: real time    0.2634
       DOS:  cpu time    0.0002: real time    0.0002
    CHARGE:  cpu time    8.9899: real time    9.0084
    MIXING:  cpu time    0.8820: real time    0.8838
    --------------------------------------------
      LOOP:  cpu time  700.3512: real time  701.7742

 eigenvalue-minimisations  :   244
 total energy-change (2. order) :-0.2442587E-01  (-0.1697910E-03)
 number of electron      68.0000002 magnetization       2.1627448
 augmentation part        1.5744068 magnetization       2.1625338

 Broyden mixing:
  rms(total) = 0.17168E-01    rms(broyden)= 0.17168E-01
  rms(prec ) = 0.17223E-01
  weight for this iteration     100.00

 eigenvalues of (default mixing * dielectric matrix)
  average eigenvalue GAMMA=   2.4694
 11.9519  7.0909  3.9589  2.2992  2.2992  1.7991  1.2880  1.0686  0.8981  0.8981
  0.8260  0.7371  0.6235  0.6302  0.6728

 Free energy of the ion-electron system (eV)
  ---------------------------------------------------
  alpha Z        PSCENC =         0.33654424
  Ewald energy   TEWEN  =      8126.85004817
  -Hartree energ DENC   =     -9904.42059874
  -exchange      EXHF   =         0.00000000
  -V(xc)+E(xc)   XCENC  =       224.14545808
  PAW double counting   =      5887.70139114    -5897.61125763
  entropy T*S    EENTRO =        -0.00000000
  eigenvalues    EBANDS =      -824.15452680
  atomic energy  EATOM  =      2209.91506195
  Solvation  Ediel_sol  =         7.55218198
  ---------------------------------------------------
  free energy    TOTEN  =      -169.68569761 eV

  energy without entropy =     -169.68569761  energy(sigma->0) =     -169.68569761


--------------------------------------------------------------------------------------------------------




--------------------------------------- Iteration      1(  21)  ---------------------------------------


    POTLOK:  cpu time  615.5164: real time  616.7669
    SETDIJ:  cpu time    0.1238: real time    0.1241
    EDDIAG:  cpu time   12.1244: real time   12.1490
  RMM-DIIS:  cpu time   43.9236: real time   44.0090
    ORTHCH:  cpu time    0.2676: real time    0.2682
       DOS:  cpu time    0.0002: real time    0.0002
    CHARGE:  cpu time    8.9879: real time    9.0066
    MIXING:  cpu time    0.9281: real time    0.9300
    --------------------------------------------
      LOOP:  cpu time  681.8721: real time  683.2541

 eigenvalue-minimisations  :   244
 total energy-change (2. order) :-0.5191063E-02  (-0.2359592E-03)
 number of electron      68.0000002 magnetization       0.9908162
 augmentation part        1.5745581 magnetization       0.9907652

 Broyden mixing:
  rms(total) = 0.12174E-01    rms(broyden)= 0.12174E-01
  rms(prec ) = 0.12260E-01
  weight for this iteration     100.00

 eigenvalues of (default mixing * dielectric matrix)
  average eigenvalue GAMMA=   2.6459
 14.0779  8.1597  4.4582  2.4772  2.1387  2.1387  1.5419  1.0864  1.0524  0.8949
  0.8949  0.7753  0.7274  0.6251  0.6251  0.6607

 Free energy of the ion-electron system (eV)
  ---------------------------------------------------
  alpha Z        PSCENC =         0.33654424
  Ewald energy   TEWEN  =      8126.85004817
  -Hartree energ DENC   =     -9903.81251568
  -exchange      EXHF   =         0.00000000
  -V(xc)+E(xc)   XCENC  =       224.12474838
  PAW double counting   =      5880.17667705    -5890.08455192
  entropy T*S    EENTRO =        -0.00000000
  eigenvalues    EBANDS =      -824.39263593
  atomic energy  EATOM  =      2209.91506195
  Solvation  Ediel_sol  =         7.19573509
  ---------------------------------------------------
  free energy    TOTEN  =      -169.69088867 eV

  energy without entropy =     -169.69088867  energy(sigma->0) =     -169.69088867


--------------------------------------------------------------------------------------------------------




--------------------------------------- Iteration      1(  22)  ---------------------------------------


    POTLOK:  cpu time  616.1432: real time  617.3680
    SETDIJ:  cpu time    0.1252: real time    0.1254
    EDDIAG:  cpu time   12.0798: real time   12.1040
  RMM-DIIS:  cpu time   44.5362: real time   44.6227
    ORTHCH:  cpu time    0.2752: real time    0.2757
       DOS:  cpu time    0.0002: real time    0.0002
    CHARGE:  cpu time    9.0389: real time    9.0576
    MIXING:  cpu time    0.9913: real time    0.9933
    --------------------------------------------
      LOOP:  cpu time  683.1900: real time  684.5470

 eigenvalue-minimisations  :   244
 total energy-change (2. order) :-0.9813799E-02  (-0.1920365E-03)
 number of electron      68.0000002 magnetization       0.3737651
 augmentation part        1.5747184 magnetization       0.3737802

 Broyden mixing:
  rms(total) = 0.72531E-02    rms(broyden)= 0.72530E-02
  rms(prec ) = 0.73691E-02
  weight for this iteration     100.00

 eigenvalues of (default mixing * dielectric matrix)
  average eigenvalue GAMMA=   2.9833
 19.0424  9.1148  5.0155  3.0107  2.2111  2.2111  1.7305  1.2670  1.0821  0.8989
  0.8989  0.8830  0.7575  0.7012  0.6462  0.6228  0.6228

 Free energy of the ion-electron system (eV)
  ---------------------------------------------------
  alpha Z        PSCENC =         0.33654424
  Ewald energy   TEWEN  =      8126.85004817
  -Hartree energ DENC   =     -9903.60285617
  -exchange      EXHF   =         0.00000000
  -V(xc)+E(xc)   XCENC  =       224.11026072
  PAW double counting   =      5883.63223327    -5893.53619515
  entropy T*S    EENTRO =        -0.00000000
  eigenvalues    EBANDS =      -824.58026318
  atomic energy  EATOM  =      2209.91506195
  Solvation  Ediel_sol  =         7.17446370
  ---------------------------------------------------
  free energy    TOTEN  =      -169.70070247 eV

  energy without entropy =     -169.70070247  energy(sigma->0) =     -169.70070247


--------------------------------------------------------------------------------------------------------




--------------------------------------- Iteration      1(  23)  ---------------------------------------


    POTLOK:  cpu time  616.0289: real time  617.2685
    SETDIJ:  cpu time    0.1321: real time    0.1324
    EDDIAG:  cpu time   12.1197: real time   12.1438
  RMM-DIIS:  cpu time   45.5238: real time   45.6122
    ORTHCH:  cpu time    0.2654: real time    0.2659
       DOS:  cpu time    0.0002: real time    0.0002
    CHARGE:  cpu time    8.9784: real time    8.9970
    MIXING:  cpu time    1.0745: real time    1.0767
    --------------------------------------------
      LOOP:  cpu time  684.1231: real time  685.4968

 eigenvalue-minimisations  :   244
 total energy-change (2. order) :-0.2449152E-01  (-0.8748873E-04)
 number of electron      68.0000002 magnetization       0.1827851
 augmentation part        1.5746822 magnetization       0.1827886

 Broyden mixing:
  rms(total) = 0.41432E-02    rms(broyden)= 0.41432E-02
  rms(prec ) = 0.42578E-02
  weight for this iteration     100.00

 eigenvalues of (default mixing * dielectric matrix)
  average eigenvalue GAMMA=   3.1036
 22.1785  9.4087  5.2780  3.2368  2.2161  2.2161  1.8557  1.4063  1.1224  1.0034
  0.8987  0.8987  0.8180  0.7512  0.6933  0.6375  0.6201  0.6251

 Free energy of the ion-electron system (eV)
  ---------------------------------------------------
  alpha Z        PSCENC =         0.33654424
  Ewald energy   TEWEN  =      8126.85004817
  -Hartree energ DENC   =     -9903.86711342
  -exchange      EXHF   =         0.00000000
  -V(xc)+E(xc)   XCENC  =       224.09279684
  PAW double counting   =      5887.48889867    -5897.39438301
  entropy T*S    EENTRO =        -0.00000000
  eigenvalues    EBANDS =      -824.45502107
  atomic energy  EATOM  =      2209.91506195
  Solvation  Ediel_sol  =         7.30797366
  ---------------------------------------------------
  free energy    TOTEN  =      -169.72519399 eV

  energy without entropy =     -169.72519399  energy(sigma->0) =     -169.72519399


--------------------------------------------------------------------------------------------------------




--------------------------------------- Iteration      1(  24)  ---------------------------------------


    POTLOK:  cpu time  589.0337: real time  590.2239
    SETDIJ:  cpu time    0.1636: real time    0.1640
    EDDIAG:  cpu time   12.1427: real time   12.1670
  RMM-DIIS:  cpu time   44.0471: real time   44.1328
    ORTHCH:  cpu time    0.2689: real time    0.2694
       DOS:  cpu time    0.0003: real time    0.0003
    CHARGE:  cpu time    9.0061: real time    9.0248
    MIXING:  cpu time    1.1143: real time    1.1165
    --------------------------------------------
      LOOP:  cpu time  655.7767: real time  657.0986

 eigenvalue-minimisations  :   233
 total energy-change (2. order) :-0.3085180E-01  (-0.2886523E-04)
 number of electron      68.0000002 magnetization       0.0779921
 augmentation part        1.5746092 magnetization       0.0779962

 Broyden mixing:
  rms(total) = 0.27237E-02    rms(broyden)= 0.27236E-02
  rms(prec ) = 0.28150E-02
  weight for this iteration     100.00

 eigenvalues of (default mixing * dielectric matrix)
  average eigenvalue GAMMA=   3.1560
 24.0553  9.5486  5.4952  3.4500  2.3648  2.3648  1.9235  1.6483  1.2598  1.0623
  0.8991  0.8991  0.9280  0.7822  0.7266  0.6801  0.6310  0.6195  0.6260

 Free energy of the ion-electron system (eV)
  ---------------------------------------------------
  alpha Z        PSCENC =         0.33654424
  Ewald energy   TEWEN  =      8126.85004817
  -Hartree energ DENC   =     -9904.08540247
  -exchange      EXHF   =         0.00000000
  -V(xc)+E(xc)   XCENC  =       224.06400662
  PAW double counting   =      5887.96931608    -5897.87571067
  entropy T*S    EENTRO =        -0.00000000
  eigenvalues    EBANDS =      -824.41083103
  atomic energy  EATOM  =      2209.91506195
  Solvation  Ediel_sol  =         7.48092133
  ---------------------------------------------------
  free energy    TOTEN  =      -169.75604579 eV

  energy without entropy =     -169.75604579  energy(sigma->0) =     -169.75604579


--------------------------------------------------------------------------------------------------------




--------------------------------------- Iteration      1(  25)  ---------------------------------------


    POTLOK:  cpu time  578.9553: real time  580.1715
    SETDIJ:  cpu time    0.1226: real time    0.1229
    EDDIAG:  cpu time   12.1319: real time   12.1577
  RMM-DIIS:  cpu time   43.1820: real time   43.2719
    ORTHCH:  cpu time    0.2693: real time    0.2699
       DOS:  cpu time    0.0002: real time    0.0002
    CHARGE:  cpu time    9.1070: real time    9.1266
    MIXING:  cpu time    1.1198: real time    1.1221
    --------------------------------------------
      LOOP:  cpu time  644.8881: real time  646.2428

 eigenvalue-minimisations  :   227
 total energy-change (2. order) :-0.2549159E-01  (-0.2360374E-04)
 number of electron      68.0000002 magnetization       0.0361547
 augmentation part        1.5745820 magnetization       0.0361679

 Broyden mixing:
  rms(total) = 0.16766E-02    rms(broyden)= 0.16766E-02
  rms(prec ) = 0.17367E-02
  weight for this iteration     100.00

 eigenvalues of (default mixing * dielectric matrix)
  average eigenvalue GAMMA=   3.1561
 25.0216  9.6310  5.6892  3.7957  2.6265  2.2917  1.9232  1.9232  1.3914  1.0833
  1.0469  0.9039  0.9039  0.8722  0.7692  0.7142  0.6649  0.6274  0.6246  0.6188

 Free energy of the ion-electron system (eV)
  ---------------------------------------------------
  alpha Z        PSCENC =         0.33654424
  Ewald energy   TEWEN  =      8126.85004817
  -Hartree energ DENC   =     -9904.25481105
  -exchange      EXHF   =         0.00000000
  -V(xc)+E(xc)   XCENC  =       224.03993794
  PAW double counting   =      5888.59326248    -5898.49921040
  entropy T*S    EENTRO =        -0.00000000
  eigenvalues    EBANDS =      -824.42921008
  atomic energy  EATOM  =      2209.91506195
  Solvation  Ediel_sol  =         7.66683938
  ---------------------------------------------------
  free energy    TOTEN  =      -169.78153738 eV

  energy without entropy =     -169.78153738  energy(sigma->0) =     -169.78153738


--------------------------------------------------------------------------------------------------------




--------------------------------------- Iteration      1(  26)  ---------------------------------------


    POTLOK:  cpu time  561.0312: real time  562.1967
    SETDIJ:  cpu time    0.1222: real time    0.1225
    EDDIAG:  cpu time   12.2238: real time   12.2483
  RMM-DIIS:  cpu time   42.2844: real time   42.3667
    ORTHCH:  cpu time    0.2748: real time    0.2754
       DOS:  cpu time    0.0002: real time    0.0002
    CHARGE:  cpu time    9.1492: real time    9.1680
    MIXING:  cpu time    1.1989: real time    1.2013
    --------------------------------------------
      LOOP:  cpu time  626.2848: real time  627.5791

 eigenvalue-minimisations  :   216
 total energy-change (2. order) :-0.8457870E-02  (-0.1178057E-04)
 number of electron      68.0000002 magnetization       0.0160902
 augmentation part        1.5745636 magnetization       0.0160967

 Broyden mixing:
  rms(total) = 0.10954E-02    rms(broyden)= 0.10954E-02
  rms(prec ) = 0.11362E-02
  weight for this iteration     100.00

 eigenvalues of (default mixing * dielectric matrix)
  average eigenvalue GAMMA=   3.1281
 25.4401  9.6788  5.8697  4.1375  2.8118  2.2329  2.2329  1.8807  1.4971  1.2447
  1.0188  1.0188  0.9000  0.9000  0.8382  0.7578  0.7060  0.6576  0.6249  0.6249
  0.6171

 Free energy of the ion-electron system (eV)
  ---------------------------------------------------
  alpha Z        PSCENC =         0.33654424
  Ewald energy   TEWEN  =      8126.85004817
  -Hartree energ DENC   =     -9904.37762915
  -exchange      EXHF   =         0.00000000
  -V(xc)+E(xc)   XCENC  =       224.03374913
  PAW double counting   =      5888.82185875    -5898.72761047
  entropy T*S    EENTRO =        -0.00000000
  eigenvalues    EBANDS =      -824.43763640
  atomic energy  EATOM  =      2209.91506195
  Solvation  Ediel_sol  =         7.79561855
  ---------------------------------------------------
  free energy    TOTEN  =      -169.78999525 eV

  energy without entropy =     -169.78999525  energy(sigma->0) =     -169.78999525


--------------------------------------------------------------------------------------------------------




--------------------------------------- Iteration      1(  27)  ---------------------------------------


    POTLOK:  cpu time  551.5786: real time  552.6857
    SETDIJ:  cpu time    0.1489: real time    0.1493
    EDDIAG:  cpu time   12.1913: real time   12.2170
  RMM-DIIS:  cpu time   40.8738: real time   40.9543
    ORTHCH:  cpu time    0.2674: real time    0.2679
       DOS:  cpu time    0.0002: real time    0.0002
    CHARGE:  cpu time    9.1380: real time    9.1571
    MIXING:  cpu time    1.2589: real time    1.2615
    --------------------------------------------
      LOOP:  cpu time  615.4570: real time  616.6931

 eigenvalue-minimisations  :   206
 total energy-change (2. order) :-0.3777291E-02  (-0.6103244E-05)
 number of electron      68.0000002 magnetization       0.0058935
 augmentation part        1.5745434 magnetization       0.0058982

 Broyden mixing:
  rms(total) = 0.64512E-03    rms(broyden)= 0.64512E-03
  rms(prec ) = 0.67120E-03
  weight for this iteration     100.00

 eigenvalues of (default mixing * dielectric matrix)
  average eigenvalue GAMMA=   3.1332
 25.7502  9.7432  6.2487  4.7175  3.1482  2.4106  2.1986  1.8459  1.8459  1.4038
[...]
  entropy T*S    EENTRO =        -0.00000000
  eigenvalues    EBANDS =      -823.91196486
  atomic energy  EATOM  =      2209.91506195
  Solvation  Ediel_sol  =         8.25030866
  ---------------------------------------------------
  free energy    TOTEN  =      -169.80889191 eV

  energy without entropy =     -169.80889191  energy(sigma->0) =     -169.80889191


--------------------------------------------------------------------------------------------------------




 average (electrostatic) potential at core
  the test charge radii are     0.6991  0.5201
  (the norm of the test charge is              1.0000)
       1 -58.7921       2 -59.0833       3 -58.7930       4 -58.7840       5 -58.7783
       6 -58.7872       7 -59.1506       8 -58.5105       9 -59.0828      10 -58.7911
      11 -58.7865      12 -58.7784      13 -58.7844      14 -58.7930      15 -42.0274
      16 -42.0293      17 -42.0238      18 -42.0375      19 -41.9783      20 -41.9787
      21 -42.0384      22 -42.0249      23 -42.0299      24 -42.0265      25 -42.0366
      26 -42.0384
 
 
 
 E-fermi :  -5.3352     XC(G=0):  -0.0608     alpha+bet : -0.0271


 spin component 1

 k-point     1 :       0.0000    0.0000    0.0000
  band No.  band energies     occupation 
      1     -21.6163      1.00000
      2     -21.1952      1.00000
      3     -19.9315      1.00000
      4     -18.4877      1.00000
      5     -18.4834      1.00000
      6     -18.3345      1.00000
      7     -17.6848      1.00000
      8     -15.5539      1.00000
      9     -14.9671      1.00000
     10     -14.7449      1.00000
     11     -14.6687      1.00000
     12     -13.5202      1.00000
     13     -12.8460      1.00000
     14     -12.2089      1.00000
     15     -11.3670      1.00000
     16     -11.2270      1.00000
     17     -10.9558      1.00000
     18     -10.7013      1.00000
     19     -10.6432      1.00000
     20     -10.1526      1.00000
     21     -10.1390      1.00000
     22     -10.0571      1.00000
     23      -9.2499      1.00000
     24      -9.1218      1.00000
     25      -9.0939      1.00000
     26      -8.5201      1.00000
     27      -8.2548      1.00000
     28      -8.0585      1.00000
     29      -7.9366      1.00000
     30      -7.3769      1.00000
     31      -6.5092      1.00000
     32      -6.4119      1.00000
     33      -6.3414      1.00000
     34      -5.5950      1.00000
     35      -2.0957      0.00000
     36      -1.5039      0.00000
     37      -1.4004      0.00000
     38      -1.0988      0.00000
     39      -0.5343      0.00000
     40      -0.2443      0.00000
     41      -0.1167      0.00000
     42      -0.0463      0.00000
     43      -0.0049      0.00000
     44       0.0656      0.00000
     45       0.0689      0.00000
     46       0.0786      0.00000
     47       0.0940      0.00000
     48       0.0953      0.00000
     49       0.1004      0.00000
     50       0.1072      0.00000
     51       0.1436      0.00000
     52       0.1534      0.00000
     53       0.1610      0.00000
     54       0.1708      0.00000
     55       0.1724      0.00000
     56       0.1732      0.00000
     57       0.1748      0.00000
     58       0.1754      0.00000
     59       0.2085      0.00000
     60       0.2091      0.00000
     61       0.2113      0.00000

 spin component 2

 k-point     1 :       0.0000    0.0000    0.0000
  band No.  band energies     occupation 
      1     -21.6163      1.00000
      2     -21.1952      1.00000
      3     -19.9315      1.00000
      4     -18.4877      1.00000
      5     -18.4834      1.00000
      6     -18.3345      1.00000
      7     -17.6848      1.00000
      8     -15.5539      1.00000
      9     -14.9671      1.00000
     10     -14.7449      1.00000
     11     -14.6687      1.00000
     12     -13.5202      1.00000
     13     -12.8460      1.00000
     14     -12.2089      1.00000
     15     -11.3670      1.00000
     16     -11.2270      1.00000
     17     -10.9558      1.00000
     18     -10.7013      1.00000
     19     -10.6432      1.00000
     20     -10.1526      1.00000
     21     -10.1390      1.00000
     22     -10.0571      1.00000
     23      -9.2499      1.00000
     24      -9.1218      1.00000
     25      -9.0939      1.00000
     26      -8.5201      1.00000
     27      -8.2548      1.00000
     28      -8.0585      1.00000
     29      -7.9366      1.00000
     30      -7.3769      1.00000
     31      -6.5092      1.00000
     32      -6.4119      1.00000
     33      -6.3414      1.00000
     34      -5.5950      1.00000
     35      -2.0957      0.00000
     36      -1.5039      0.00000
     37      -1.4004      0.00000
     38      -1.0988      0.00000
     39      -0.5343      0.00000
     40      -0.2443      0.00000
     41      -0.1167      0.00000
     42      -0.0462      0.00000
     43      -0.0049      0.00000
     44       0.0656      0.00000
     45       0.0689      0.00000
     46       0.0786      0.00000
     47       0.0940      0.00000
     48       0.0954      0.00000
     49       0.1004      0.00000
     50       0.1072      0.00000
     51       0.1436      0.00000
     52       0.1534      0.00000
     53       0.1610      0.00000
     54       0.1708      0.00000
     55       0.1724      0.00000
     56       0.1732      0.00000
     57       0.1749      0.00000
     58       0.1754      0.00000
     59       0.2088      0.00000
     60       0.2091      0.00000
     61       0.2111      0.00000


--------------------------------------------------------------------------------------------------------


 soft charge-density along one line, spin component           1
         0         1         2         3         4         5         6         7         8         9
 total charge-density along one line
 
 soft charge-density along one line, spin component           2
         0         1         2         3         4         5         6         7         8         9
 total charge-density along one line
 
 pseudopotential strength for first ion, spin component:           1
 10.256  13.640   0.001  -0.001  -0.000  -0.003   0.003   0.000
 13.640  18.139   0.001  -0.001  -0.000  -0.004   0.003   0.000
  0.001   0.001  -4.377   0.002  -0.001   8.564  -0.002   0.001
 -0.001  -0.001   0.002  -4.375  -0.002  -0.002   8.561   0.002
 -0.000  -0.000  -0.001  -0.002  -4.380   0.001   0.002   8.567
 -0.003  -0.004   8.564  -0.002   0.001 -18.892   0.001   0.000
  0.003   0.003  -0.002   8.561   0.002   0.001 -18.890  -0.002
  0.000   0.000   0.001   0.002   8.567   0.000  -0.002 -18.895
 pseudopotential strength for first ion, spin component:           2
 10.256  13.640   0.001  -0.001  -0.000  -0.003   0.003   0.000
 13.640  18.139   0.001  -0.001  -0.000  -0.004   0.003   0.000
  0.001   0.001  -4.377   0.002  -0.001   8.564  -0.002   0.001
 -0.001  -0.001   0.002  -4.375  -0.002  -0.002   8.561   0.002
 -0.000  -0.000  -0.001  -0.002  -4.380   0.001   0.002   8.567
 -0.003  -0.004   8.564  -0.002   0.001 -18.892   0.001   0.000
  0.003   0.003  -0.002   8.561   0.002   0.001 -18.890  -0.002
  0.000   0.000   0.001   0.002   8.567   0.000  -0.002 -18.895
 total augmentation occupancy for first ion, spin component:           1
  7.831  -3.400   0.190  -0.119   0.024   0.038  -0.025   0.004
 -3.400   1.523  -0.124   0.081  -0.013  -0.023   0.015  -0.002
  0.190  -0.124   1.552  -0.261   0.122   0.123  -0.037   0.017
 -0.119   0.081  -0.261   1.400   0.149  -0.037   0.102   0.023
  0.024  -0.013   0.122   0.149   1.790   0.017   0.023   0.162
  0.038  -0.023   0.123  -0.037   0.017   0.011  -0.004   0.002
 -0.025   0.015  -0.037   0.102   0.023  -0.004   0.008   0.003
  0.004  -0.002   0.017   0.023   0.162   0.002   0.003   0.016
 total augmentation occupancy for first ion, spin component:           2
  0.000  -0.000  -0.000   0.000  -0.000  -0.000   0.000  -0.000
 -0.000   0.000   0.000  -0.000   0.000   0.000  -0.000   0.000
 -0.000   0.000   0.000  -0.000  -0.000   0.000  -0.000  -0.000
  0.000  -0.000  -0.000   0.000   0.000  -0.000   0.000   0.000
 -0.000   0.000  -0.000   0.000   0.000   0.000   0.000   0.000
 -0.000   0.000   0.000  -0.000   0.000   0.000  -0.000   0.000
  0.000  -0.000  -0.000   0.000   0.000  -0.000   0.000   0.000
 -0.000   0.000  -0.000   0.000   0.000   0.000   0.000   0.000


------------------------ aborting loop because EDIFF is reached ----------------------------------------


    CHARGE:  cpu time    8.8308: real time    8.8490
    FORLOC:  cpu time    1.4818: real time    1.4850
    FORNL :  cpu time   18.0067: real time   18.0430
    STRESS:  cpu time   54.9063: real time   55.0152
    FORCOR:  cpu time   21.1687: real time   21.2125
    FORHAR:  cpu time    3.8881: real time    3.8964
    MIXING:  cpu time    0.4336: real time    0.4345
    OFIELD:  cpu time    0.0000: real time    0.0000

 ---------------------------------------------------------------------------------------------

         DFTD3 V3.0 Rev 1        
 Edisp (eV)   -0.34352

 E6    (eV) :    -0.1582
 E8    (eV) :    -0.1853
 % E8        : 53.95
    FORVDW:  cpu time    0.0124: real time    0.0131

  FORCE on cell =-STRESS in cart. coord.  units (eV):
  Direction    XX          YY          ZZ          XY          YZ          ZX
  --------------------------------------------------------------------------------------
  Alpha Z     0.33654     0.33654     0.33654
  Ewald    5033.18388  2527.44296   544.96018    -0.02242     0.01937   474.12209
  Hartree  5164.77897  3035.16478  1684.02848    -0.00040     0.00039   235.07273
  E(xc)    -243.55148  -245.05920  -248.13863     0.00000    -0.00000     1.34021
  Local  -10823.38596 -6210.16055 -2929.78103     0.01857    -0.01803  -684.79810
  n-local   -83.76124   -82.28386   -79.01262    -0.00006     0.00006    -1.86146
  augment    -3.72687    -3.65003    -3.43349     0.00002     0.00001    -0.10034
  Kinetic   957.23415   978.28418  1029.25454     0.00136    -0.00057   -22.64814
  Fock        0.00000     0.00000     0.00000     0.00000     0.00000     0.00000
  vdW        -0.15405    -0.03140     0.00291    -0.00000    -0.00000     0.03598
  -------------------------------------------------------------------------------------
  Total       0.95395     0.04343    -1.78312     0.00000     0.00000     1.16297
  in kB       0.02388     0.00109    -0.04464     0.00000     0.00000     0.02911
  external pressure =       -0.01 kB  Pullay stress =        0.00 kB


 VOLUME and BASIS-vectors are now :
 -----------------------------------------------------------------------------
  energy-cutoff  :      500.00
  volume of cell :    64000.00
      direct lattice vectors                 reciprocal lattice vectors
    40.000000000  0.000000000  0.000000000     0.025000000  0.000000000  0.000000000
     0.000000000 40.000000000  0.000000000     0.000000000  0.025000000  0.000000000
     0.000000000  0.000000000 40.000000000     0.000000000  0.000000000  0.025000000

  length of vectors
    40.000000000 40.000000000 40.000000000     0.025000000  0.025000000  0.025000000


 FORCES acting on ions
    electron-ion (+dipol)            ewald-force                    non-local-force                 convergence-correction
 -----------------------------------------------------------------------------------------------
   -.102E+03 0.136E+03 -.120E+03   0.101E+03 -.137E+03 0.120E+03   -.388E-01 0.102E+01 -.852E+00   -.359E-02 0.249E-02 0.171E-02
   -.299E+02 0.387E+02 0.426E+01   0.300E+02 -.388E+02 -.442E+01   -.107E+00 0.448E-01 -.323E-01   -.746E-03 0.555E-02 0.856E-03
   0.266E+02 -.111E+03 0.133E+03   -.273E+02 0.111E+03 -.133E+03   0.968E+00 -.647E+00 0.606E+00   -.292E-02 0.116E-02 0.196E-02
   -.812E+02 -.180E+03 0.120E+03   0.812E+02 0.180E+03 -.120E+03   -.167E+00 -.105E+01 0.622E+00   -.851E-02 0.184E-02 -.133E-02
   -.213E+03 -.108E+03 0.138E+02   0.213E+03 0.108E+03 -.140E+02   -.110E+01 -.579E+00 0.140E+00   -.443E-02 -.122E-02 -.212E-03
   -.211E+03 0.477E+02 -.980E+02   0.211E+03 -.478E+02 0.982E+02   -.102E+01 0.340E+00 -.553E+00   -.320E-02 -.295E-02 0.276E-02
   0.175E-04 0.834E+02 -.816E-04   -.732E-03 -.839E+02 0.347E-02   0.000E+00 0.601E+00 0.000E+00   0.605E-07 0.760E-02 0.341E-07
   -.189E-04 0.258E+03 0.250E-01   -.344E-03 -.259E+03 -.684E-02   0.000E+00 0.121E+01 0.000E+00   -.161E-06 -.684E-02 -.522E-06
   0.299E+02 0.387E+02 -.426E+01   -.300E+02 -.388E+02 0.443E+01   0.107E+00 0.448E-01 0.323E-01   0.747E-03 0.555E-02 -.856E-03
   0.102E+03 0.136E+03 0.120E+03   -.101E+03 -.137E+03 -.120E+03   0.388E-01 0.102E+01 0.852E+00   0.359E-02 0.249E-02 -.171E-02
   0.211E+03 0.477E+02 0.980E+02   -.211E+03 -.478E+02 -.982E+02   0.102E+01 0.340E+00 0.553E+00   0.320E-02 -.295E-02 -.276E-02
   0.213E+03 -.108E+03 -.138E+02   -.213E+03 0.108E+03 0.140E+02   0.110E+01 -.579E+00 -.140E+00   0.443E-02 -.122E-02 0.213E-03
   0.812E+02 -.180E+03 -.120E+03   -.812E+02 0.180E+03 0.120E+03   0.167E+00 -.105E+01 -.622E+00   0.851E-02 0.184E-02 0.133E-02
   -.266E+02 -.111E+03 -.133E+03   0.273E+02 0.111E+03 0.133E+03   -.968E+00 -.647E+00 -.606E+00   0.292E-02 0.116E-02 -.196E-02
   -.764E+02 0.249E+02 -.444E+02   0.807E+02 -.266E+02 0.473E+02   -.459E+01 0.185E+01 -.305E+01   -.378E-03 -.670E-03 0.412E-03
   -.797E+02 -.441E+02 0.463E+01   0.845E+02 0.468E+02 -.490E+01   -.502E+01 -.294E+01 0.278E+00   0.101E-02 0.803E-03 -.365E-03
   -.177E+02 -.740E+02 0.506E+02   0.180E+02 0.785E+02 -.537E+02   -.356E+00 -.478E+01 0.329E+01   -.133E-02 -.934E-04 -.468E-04
   0.377E+02 -.442E+02 0.613E+02   -.422E+02 0.460E+02 -.642E+02   0.461E+01 -.191E+01 0.298E+01   -.693E-04 -.426E-03 0.839E-03
   0.468E+02 0.738E+02 -.675E+01   -.516E+02 -.766E+02 0.722E+01   0.490E+01 0.303E+01 -.412E+00   -.539E-03 -.360E-03 0.464E-03
   -.468E+02 0.738E+02 0.676E+01   0.516E+02 -.766E+02 -.722E+01   -.490E+01 0.303E+01 0.412E+00   0.539E-03 -.360E-03 -.464E-03
   -.377E+02 -.442E+02 -.613E+02   0.422E+02 0.459E+02 0.642E+02   -.461E+01 -.191E+01 -.298E+01   0.694E-04 -.426E-03 -.839E-03
   0.177E+02 -.740E+02 -.506E+02   -.180E+02 0.785E+02 0.537E+02   0.356E+00 -.478E+01 -.329E+01   0.133E-02 -.934E-04 0.468E-04
   0.797E+02 -.441E+02 -.463E+01   -.845E+02 0.468E+02 0.490E+01   0.502E+01 -.294E+01 -.278E+00   -.101E-02 0.803E-03 0.365E-03
   0.764E+02 0.248E+02 0.444E+02   -.807E+02 -.266E+02 -.473E+02   0.459E+01 0.185E+01 0.305E+01   0.378E-03 -.670E-03 -.413E-03
   0.206E+02 0.681E+02 0.578E+02   -.201E+02 -.725E+02 -.610E+02   -.424E+00 0.469E+01 0.340E+01   0.113E-02 -.150E-03 -.450E-03
   -.206E+02 0.681E+02 -.578E+02   0.201E+02 -.725E+02 0.610E+02   0.424E+00 0.469E+01 -.340E+01   -.113E-02 -.150E-03 0.450E-03
 -----------------------------------------------------------------------------------------------
   -.111E-02 -.253E-01 0.356E-02   0.213E-13 -.426E-13 -.639E-13   0.000E+00 -.449E-01 -.444E-15   0.761E-06 0.127E-01 0.135E-05
 
 
 POSITION                                       TOTAL-FORCE (eV/Angst)
 -----------------------------------------------------------------------------------
     22.40123     19.18051     20.67920         0.005176     -0.005210      0.003697
     21.27328     19.61335     19.95919        -0.013567     -0.010952     -0.005442
     21.38371     20.78126     19.18025        -0.007057     -0.001787      0.001473
     22.58951     21.48056     19.10588         0.011860     -0.003133      0.000755
     23.70698     21.03319     19.81982         0.003003     -0.002147      0.005355
     23.60710     19.88162     20.60875         0.007107     -0.001118     -0.002432
     20.00000     18.84705     20.00000         0.000000     -0.006009      0.000000
     20.00000     17.49592     19.99996         0.000000      0.017236      0.000000
     18.72672     19.61335     20.04081         0.013567     -0.010952      0.005442
     17.59877     19.18055     19.32080        -0.005176     -0.005210     -0.003697
     16.39290     19.88166     19.39125        -0.007107     -0.001118      0.002432
     16.29302     21.03323     20.18018        -0.003003     -0.002147     -0.005355
     17.41049     21.48056     20.89416        -0.011860     -0.003133     -0.000755
     18.61629     20.78126     20.81979         0.007057     -0.001787     -0.001473
     24.46858     19.53430     21.18200        -0.001741      0.006668     -0.003244
     24.64721     21.58351     19.76803         0.013664      0.008270      0.002053
     22.65650     22.37814     18.48846         0.004967     -0.001979      0.003160
     20.51678     21.13665     18.62058         0.004695     -0.000562     -0.001616
     19.07248     16.92750     20.07577        -0.004699      0.006207     -0.004609
     20.92748     16.92746     19.92415         0.004699      0.006207      0.004609
     19.48322     21.13661     21.37946        -0.004695     -0.000562      0.001616
     17.34350     22.37810     21.51162        -0.004967     -0.001979     -0.003160
     15.35279     21.58355     20.23201        -0.013664      0.008270     -0.002053
     15.53142     19.53434     18.81796         0.001741      0.006668      0.003244
     17.67888     18.29787     18.68390        -0.008762      0.000131      0.003414
     22.32112     18.29783     21.31602         0.008762      0.000131     -0.003414
 -----------------------------------------------------------------------------------
    total drift:                               -0.001113     -0.057460      0.003566


--------------------------------------------------------------------------------------------------------



  FREE ENERGIE OF THE ION-ELECTRON SYSTEM (eV)
  ---------------------------------------------------
  free  energy   TOTEN  =      -170.15241435 eV

  energy  without entropy=     -170.15241435  energy(sigma->0) =     -170.15241435
 
 d Force = 0.7864851E-04[ 0.493E-04, 0.108E-03]  d Energy = 0.8035301E-04-0.170E-05
 d Force = 0.2638299E+00[ 0.264E+00, 0.264E+00]  d Ewald  = 0.2638300E+00-0.137E-07


--------------------------------------------------------------------------------------------------------


    POTLOK:  cpu time  529.9021: real time  530.9489


--------------------------------------------------------------------------------------------------------


 Conjugate gradient step on ions:
 trial-energy change:   -0.000080  1 .order   -0.000079   -0.000108   -0.000049
  (g-gl).g = 0.405E-03      g.g   = 0.362E-03  gl.gl    = 0.708E-03
 g(Force)  = 0.362E-03   g(Stress)= 0.000E+00 ortho     = 0.307E-04
 gamma     =   0.57127
 trial     =   0.28479
 opt step  =   0.52345  (harmonic =   0.52345) maximal distance =0.00094491
 next E    =  -170.152433   (d E  =  -0.00010)


--------------------------------------------------------------------------------------------------------


  
 reached required accuracy - stopping structural energy minimisation
 writing wavefunctions
     LOOP+:  cpu time 1884.4270: real time 1889.9072
    4ORBIT:  cpu time    0.0000: real time    0.0000

 total amount of memory used by VASP MPI-rank0  1865657. kBytes
=======================================================================

   base      :      30000. kBytes
   nonlr-proj:       1493. kBytes
   fftplans  :     478128. kBytes
   grid      :    1157748. kBytes
   one-center:         12. kBytes
   wavefun   :     198276. kBytes
 
  
  
 General timing and accounting informations for this job:
 ========================================================
  
                  Total CPU time used (sec):    65285.211
                            User time (sec):    60546.294
                          System time (sec):     4738.919
                         Elapsed time (sec):    65421.103
  
                   Maximum memory used (kb):     6112840.
                   Average memory used (kb):           0.
  
                          Minor page faults:  -1120322280
                          Major page faults:            5
                 Voluntary context switches:       706722
