
                                 *****************
                                 * O   R   C   A *
                                 *****************

                                            #,                                       
                                            ###                                      
                                            ####                                     
                                            #####                                    
                                            ######                                   
                                           ########,                                 
                                     ,,################,,,,,                         
                               ,,#################################,,                 
                          ,,##########################################,,             
                       ,#########################################, ''#####,          
                    ,#############################################,,   '####,        
                  ,##################################################,,,,####,       
                ,###########''''           ''''###############################       
              ,#####''   ,,,,##########,,,,          '''####'''          '####       
            ,##' ,,,,###########################,,,                        '##       
           ' ,,###''''                  '''############,,,                           
         ,,##''                                '''############,,,,        ,,,,,,###''
      ,#''                                            '''#######################'''  
     '                                                          ''''####''''         
             ,#######,   #######,   ,#######,      ##                                
            ,#'     '#,  ##    ##  ,#'     '#,    #''#        ,####,   ,####,        
            ##       ##  ##   ,#'  ##            #'  '#       #'       #'  '#        
            ##       ##  #######   ##           ,######,      #####,   #    #        
            '#,     ,#'  ##    ##  '#,     ,#' ,#      #,     #,   #   #,  ,#        
             '#######'   ##     ##  '#######'  #'      '#     '####' # '####'        



                #########################################################
                #                        -***-                          #
                #          Department of theory and spectroscopy        #
                #                                                       #
                #                      Frank Neese                      #
                #                                                       #
                #     Directorship, Architecture, Infrastructure        #
                #                    SHARK, DRIVERS                     #
                #        Core code/Algorithms in most modules           #
                #                                                       #
                #        Max Planck Institute fuer Kohlenforschung      #
                #                Kaiser Wilhelm Platz 1                 #
                #                 D-45470 Muelheim/Ruhr                 #
                #                      Germany                          #
                #                                                       #
                #                  All rights reserved                  #
                #                        -***-                          #
                #########################################################


                         Program Version 6.0.0  -   RELEASE  -


 With contributions from (in alphabetic order):
   Daniel Aravena         : Magnetic Suceptibility
   Michael Atanasov       : Ab Initio Ligand Field Theory (pilot matlab implementation)
   Alexander A. Auer      : GIAO ZORA, VPT2 properties, NMR spectrum
   Ute Becker             : All parallelization in ORCA, NUMFREQ, NUMCALC
   Giovanni Bistoni       : ED, misc. LED, open-shell LED, HFLD
   Martin Brehm           : Molecular dynamics
   Dmytro Bykov           : pre 5.0 version of the SCF Hessian
   Marcos Casanova-Páez   : Triplet and SCS-CIS(D). UHF-(DLPNO)-IP/EA/STEOM-CCSD. UHF-CVS-IP/STEOM-CCSD
   Vijay G. Chilkuri      : MRCI spin determinant printing, contributions to CSF-ICE
   Pauline Colinet        : FMM embedding
   Dipayan Datta          : RHF DLPNO-CCSD density
   Achintya Kumar Dutta   : EOM-CC, STEOM-CC
   Nicolas Foglia         : Exact transition moments, OPA infrastructure, MCD improvements
   Dmitry Ganyushin       : Spin-Orbit,Spin-Spin,Magnetic field MRCI
   Miquel Garcia          : C-PCM and meta-GGA Hessian, CCSD/C-PCM, Gaussian charge scheme
   Tiago L. C. Gouveia    : GS-ROHF, GS-ROCIS
   Yang Guo               : DLPNO-NEVPT2, F12-NEVPT2, CIM, IAO-localization
   Andreas Hansen         : Spin unrestricted coupled pair/coupled cluster methods
   Ingolf Harden          : AUTO-CI MPn and infrastructure 
   Benjamin Helmich-Paris : MC-RPA, TRAH-(SCF,CASSCF), AVAS, COSX integrals, SCF dyn. polar.
   Lee Huntington         : MR-EOM, pCC
   Robert Izsak           : Overlap fitted RIJCOSX, COSX-SCS-MP3, EOM
   Riya Kayal             : Wick's Theorem for AUTO-CI, AUTO-CI UHF-CCSDT
   Emily Kempfer          : AUTO-CI, RHF CISDT and CCSDT
   Christian Kollmar      : KDIIS, OOCD, Brueckner-CCSD(T), CCSD density, CASPT2, CASPT2-K, improved NEVPT2
   Axel Koslowski         : Symmetry handling
   Simone Kossmann        : Meta GGA functionals, TD-DFT gradient, OOMP2, (MP2 Hessian; deprecated post 5.0)
   Lucas Lang             : DCDCAS
   Marvin Lechner         : AUTO-CI (C++ implementation), FIC-MRCC
   Spencer Leger          : CASSCF response
   Dagmar Lenk            : GEPOL surface, SMD, ORCA-2-JSON
   Dimitrios Liakos       : Extrapolation schemes; Compound Job, initial MDCI parallelization
   Dimitrios Manganas     : Further ROCIS development; embedding schemes. LFT, Crystal Embedding
   Dimitrios Pantazis     : SARC Basis sets
   Anastasios Papadopoulos: AUTO-CI, single reference methods and gradients
   Taras Petrenko         : pre 6.0 DFT Hessian and TD-DFT gradient, (ASA, deprecated), ECA, 1-Electron XAS/XES, NRVS
   Peter Pinski           : DLPNO-MP2, DLPNO-MP2 Gradient
   Christoph Reimann      : Effective Core Potentials
   Marius Retegan         : Local ZFS, SOC
   Christoph Riplinger    : Optimizer, TS searches, QM/MM, DLPNO-CCSD(T), (RO)-DLPNO pert. Triples
   Michael Roemelt        : Original ROCIS implementation
   Masaaki Saitow         : Open-shell DLPNO-CCSD energy and density
   Barbara Sandhoefer     : DKH picture change effects
   Kantharuban Sivalingam : CASSCF convergence/infrastructure, NEVPT2 and variants, FIC-MRCI
   Bernardo de Souza      : ESD, SOC TD-DFT
   Georgi Stoychev        : AutoAux, RI-MP2 NMR, DLPNO-MP2 response, X2C
   Van Anh Tran           : RI-MP2 g-tensors
   Willem Van den Heuvel  : Paramagnetic NMR
   Zikuan Wang            : NOTCH, Electric field optimization 
   Frank Wennmohs         : Technical directorship and infrastructure
   Hang Xu                : AUTO-CI-Response properties 


 We gratefully acknowledge several colleagues who have allowed us to
 interface, adapt or use parts of their codes:
   Stefan Grimme, W. Hujo, H. Kruse, P. Pracht,  : VdW corrections, initial TS optimization,
                  C. Bannwarth, S. Ehlert,         DFT functionals, gCP, sTDA/sTD-DF
                  L. Wittmann, M. Mueller
   Ed Valeev, F. Pavosevic, A. Kumar             : LibInt (2-el integral package), F12 methods
   Garnet Chan, S. Sharma, J. Yang, R. Olivares  : DMRG
   Ulf Ekstrom                                   : XCFun DFT Library
   Mihaly Kallay                                 : mrcc  (arbitrary order and MRCC methods)
   Frank Weinhold                                : gennbo (NPA and NBO analysis)
   Simon Mueller                                 : openCOSMO-RS
   Christopher J. Cramer and Donald G. Truhlar   : smd solvation model
   Lars Goerigk                                  : TD-DFT with DH, B97 family of functionals
   V. Asgeirsson, H. Jonsson                     : NEB implementation
   FAccTs GmbH                                   : IRC, NEB, NEB-TS, DLPNO-Multilevel, CI-OPT
                                                   MM, QMMM, 2- and 3-layer-ONIOM, Crystal-QMMM,
                                                   LR-CPCM, SF, NACMEs, symmetry and pop. for TD-DFT,
                                                   nearIR, NL-DFT gradient (VV10), updates on ESD,
                                                   ML-optimized integration grids, MBIS, APM,
                                                   GOAT, DOCKER, SOLVATOR, interface openCOSMO-RS
   S Lehtola, MJT Oliveira, MAL Marques          : LibXC Library
   Liviu Ungur et al                             : ANISO software


 Your calculation uses the libint2 library for the computation of 2-el integrals
 For citations please refer to: http://libint.valeyev.net

 Your ORCA version has been built with support for libXC version: 6.2.2
 For citations please refer to: https://libxc.gitlab.io

 This ORCA versions uses:
   CBLAS   interface :  Fast vector & matrix operations
   LAPACKE interface :  Fast linear algebra routines
   SCALAPACK package :  Parallel linear algebra routines
   Shared memory     :  Shared parallel matrices
   BLAS/LAPACK       :  OpenBLAS 0.3.27  USE64BITINT DYNAMIC_ARCH NO_AFFINITY SkylakeX SINGLE_THREADED
        Core in use  :  SkylakeX
   Copyright (c) 2011-2014, The OpenBLAS Project


NOTE: MaxCore=3000 MB was set to SCF,MP2,MDCI,CIPSI,MRCI and CIS
      => If you want to overwrite this, your respective input block should be placed after the MaxCore statement
Your calculation utilizes the atom-pairwise dispersion correction
with the Becke-Johnson damping scheme (D3BJ)


Your calculation utilizes the SMD solvation module
Please cite in your paper:
A.V. Marenich, C.J. Cramer, D.G. Truhlar J. Phys. Chem. B, 113, (2009), 6378 

Warning: RI is on but no J-basis has been assigned. Assigning Def2/J (nothing to worry about!)
================================================================================

----- Orbital basis set information -----
Your calculation utilizes the basis: aug-cc-pVTZ 
    H, B-Ne : Obtained from the ccRepo (grant-hill.group.shef.ac.uk/ccrepo) Feb. 2017
              R. A. Kendall, T. H. Dunning, Jr., R. J. Harrison, J. Chem. Phys. 96, 6796 (1992)
         He : Obtained from the ccRepo (grant-hill.group.shef.ac.uk/ccrepo) Feb. 2017
              D. E. Woon, T. H. Dunning, Jr., J. Chem. Phys. 100, 2975 (1994)
  Li-Be, Na : Obtained from the ccRepo (grant-hill.group.shef.ac.uk/ccrepo) Feb. 2017
              B. P. Prascher, D. E. Woon, K. A. Peterson, T. H. Dunning, Jr., A. K. Wilson, Theor. Chem. Acc. 128, 69 (2011)
         Mg : Obtained from the Peterson Research Group Website (tyr0.chem.wsu.edu/~kipeters) Feb. 2017
              B. P. Prascher, D. E. Woon, K. A. Peterson, T. H. Dunning, Jr., A. K. Wilson, Theor. Chem. Acc. 128, 69 (2011)
      Al-Ar : Obtained from the ccRepo (grant-hill.group.shef.ac.uk/ccrepo) Feb. 2017
              D. E. Woon, T. H. Dunning, Jr., J. Chem. Phys. 98, 1358 (1993)
      Sc-Zn : Obtained from the ccRepo (grant-hill.group.shef.ac.uk/ccrepo) Feb. 2017
              N. B. Balabanov, K. A. Peterson, J. Chem. Phys. 123, 064107 (2005)
              N. B. Balabanov, K. A. Peterson, J. Chem. Phys. 125, 074110 (2006)
      Ga-Kr : Obtained from the ccRepo (grant-hill.group.shef.ac.uk/ccrepo) Feb. 2017
              A. K. Wilson, D. E. Woon, K. A. Peterson, T. H. Dunning, Jr., J. Chem. Phys. 110, 7667 (1999)
     Ag, Au : Obtained from the Peterson Research Group Website (tyr0.chem.wsu.edu/~kipeters) Feb. 2017
              K. A. Peterson, C. Puzzarini, Theor. Chem. Acc. 114, 283 (2005)

----- AuxJ basis set information -----
Your calculation utilizes the auxiliary basis: def2/J
   F. Weigend, Phys. Chem. Chem. Phys. 8, 1057 (2006).

================================================================================
                                        WARNINGS
                       Please study these warnings very carefully!
================================================================================


WARNING: your system is open-shell and RHF/RKS was chosen
  ===> : WILL SWITCH to UHF/UKS


================================================================================
                                       INPUT FILE
================================================================================
NAME = cs_rporg_140_ox_solv_01.inp
|  1> !TPSSh aug-cc-pVTZ d3 TightSCF SlowConv RIJCOSX defgrid2
|  2>  
|  3> %pal
|  4> nprocs 4
|  5> end
|  6>  
|  7> %scf
|  8> MaxIter 1500
|  9> end
| 10>  
| 11> %maxcore 3000
| 12>  
| 13> !CPCM
| 14> %cpcm smd true
| 15> SMDsolvent "MeCN"
| 16> surfacetype gepol_ses
| 17> rsolv 2.19
| 18> end 
| 19>  
| 20> * xyz 1 2
| 21> C           0.96002552011709     -1.32253975774944      0.00002107203161
| 22> C           2.30946577689281     -1.05292578484351     -0.00001183018851
| 23> C           2.75162476164071      0.28756052755572     -0.00002650301661
| 24> C           1.83902538005307      1.36187223575537     -0.00000118304244
| 25> C           0.48711647576379      1.10797066538425      0.00002893131122
| 26> C           0.02041417697925     -0.24724272024865      0.00003631726405
| 27> C          -1.36049677571781     -0.55035510408661      0.00004151636512
| 28> N          -2.24435922885682      0.43165315940707      0.00003462017491
| 29> O          -3.46568256477989     -0.02410885729296      0.00002059528734
| 30> H          -4.06414072403569      0.75247060999126      0.00003013023410
| 31> H          -1.71241527206750     -1.59215357045924      0.00004127844656
| 32> H          -0.24324441524782      1.92013568517355      0.00004228420146
| 33> H           2.20910910746605      2.39016696582870     -0.00001172730682
| 34> H           3.82614866589464      0.49606739820897     -0.00005739041351
| 35> H           3.03863533465800     -1.86708723654366     -0.00002808352063
| 36> H           0.59646668124012     -2.35410821608081      0.00003057217215
| 37> *
| 38> 
| 39>                          ****END OF INPUT****
================================================================================

                       ****************************
                       * Single Point Calculation *
                       ****************************

---------------------------------
CARTESIAN COORDINATES (ANGSTROEM)
---------------------------------
  C      0.960026   -1.322540    0.000021
  C      2.309466   -1.052926   -0.000012
  C      2.751625    0.287561   -0.000027
  C      1.839025    1.361872   -0.000001
  C      0.487116    1.107971    0.000029
  C      0.020414   -0.247243    0.000036
  C     -1.360497   -0.550355    0.000042
  N     -2.244359    0.431653    0.000035
  O     -3.465683   -0.024109    0.000021
  H     -4.064141    0.752471    0.000030
  H     -1.712415   -1.592154    0.000041
  H     -0.243244    1.920136    0.000042
  H      2.209109    2.390167   -0.000012
  H      3.826149    0.496067   -0.000057
  H      3.038635   -1.867087   -0.000028
  H      0.596467   -2.354108    0.000031

----------------------------
CARTESIAN COORDINATES (A.U.)
----------------------------
  NO LB      ZA    FRAG     MASS         X           Y           Z
   0 C     6.0000    0    12.011    1.814185   -2.499238    0.000040
   1 C     6.0000    0    12.011    4.364258   -1.989741   -0.000022
   2 C     6.0000    0    12.011    5.199817    0.543411   -0.000050
   3 C     6.0000    0    12.011    3.475254    2.573566   -0.000002
   4 C     6.0000    0    12.011    0.920517    2.093761    0.000055
   5 C     6.0000    0    12.011    0.038577   -0.467221    0.000069
   6 C     6.0000    0    12.011   -2.570966   -1.040020    0.000078
   7 N     7.0000    0    14.007   -4.241224    0.815706    0.000065
   8 O     8.0000    0    15.999   -6.549191   -0.045559    0.000039
   9 H     1.0000    0     1.008   -7.680113    1.421963    0.000057
  10 H     1.0000    0     1.008   -3.235996   -3.008734    0.000078
  11 H     1.0000    0     1.008   -0.459665    3.628531    0.000080
  12 H     1.0000    0     1.008    4.174611    4.516761   -0.000022
  13 H     1.0000    0     1.008    7.230373    0.937432   -0.000108
  14 H     1.0000    0     1.008    5.742189   -3.528284   -0.000053
  15 H     1.0000    0     1.008    1.127159   -4.448620    0.000058

--------------------------------
INTERNAL COORDINATES (ANGSTROEM)
--------------------------------
 C      0   0   0     0.000000000000     0.00000000     0.00000000
 C      1   0   0     1.376110715777     0.00000000     0.00000000
 C      2   1   0     1.411526876024   119.55386539     0.00000000
 C      3   2   1     1.409603943769   121.39785647     0.00000000
 C      4   3   2     1.375544871620   119.71022596     0.00000000
 C      1   2   3     1.427982211109   119.84872596     0.00000000
 C      6   1   2     1.413786467803   118.76728200   179.99867611
 N      7   6   1     1.321193803227   119.60879939   180.00104586
 O      8   7   6     1.303591081181   111.52488792   179.99904301
 H      9   8   7     0.980422275083   107.15495314   179.99914819
 H      7   6   1     1.099632062378   121.04510426     0.00000000
 H      5   4   3     1.092263269852   121.32750606   180.00041267
 H      4   3   2     1.092864134878   119.85915294   179.99990233
 H      3   2   1     1.094566917496   119.23665456   180.00028239
 H      2   1   3     1.092953390438   120.54913852   180.00008876
 H      1   2   3     1.093758891914   120.71288565   179.99985713

---------------------------
INTERNAL COORDINATES (A.U.)
---------------------------
 C      0   0   0     0.000000000000     0.00000000     0.00000000
 C      1   0   0     2.600472382772     0.00000000     0.00000000
 C      2   1   0     2.667399226355   119.55386539     0.00000000
 C      3   2   1     2.663765411019   121.39785647     0.00000000
 C      4   3   2     2.599403092282   119.71022596     0.00000000
 C      1   2   3     2.698495303107   119.84872596     0.00000000
 C      6   1   2     2.671669235991   118.76728200   179.99867611
 N      7   6   1     2.496694457934   119.60879939   180.00104586
 O      8   7   6     2.463430134054   111.52488792   179.99904301
 H      9   8   7     1.852729595502   107.15495314   179.99914819
 H      7   6   1     2.078003445973   121.04510426     0.00000000
 H      5   4   3     2.064078446161   121.32750606   180.00041267
 H      4   3   2     2.065213916505   119.85915294   179.99990233
 H      3   2   1     2.068431709318   119.23665456   180.00028239
 H      2   1   3     2.065382585069   120.54913852   180.00008876
 H      1   2   3     2.066904762258   120.71288565   179.99985713

---------------------
BASIS SET INFORMATION
---------------------
There are 4 groups of distinct atoms

 Group   1 Type C   : 19s6p3d2f contracted to 5s4p3d2f pattern {88111/3111/111/11}
 Group   2 Type N   : 19s6p3d2f contracted to 5s4p3d2f pattern {88111/3111/111/11}
 Group   3 Type O   : 19s6p3d2f contracted to 5s4p3d2f pattern {88111/3111/111/11}
 Group   4 Type H   : 6s3p2d contracted to 4s3p2d pattern {3111/111/11}

Atom   0C    basis set group =>   1
Atom   1C    basis set group =>   1
Atom   2C    basis set group =>   1
Atom   3C    basis set group =>   1
Atom   4C    basis set group =>   1
Atom   5C    basis set group =>   1
Atom   6C    basis set group =>   1
Atom   7N    basis set group =>   2
Atom   8O    basis set group =>   3
Atom   9H    basis set group =>   4
Atom  10H    basis set group =>   4
Atom  11H    basis set group =>   4
Atom  12H    basis set group =>   4
Atom  13H    basis set group =>   4
Atom  14H    basis set group =>   4
Atom  15H    basis set group =>   4
---------------------------------
AUXILIARY/J BASIS SET INFORMATION
---------------------------------
There are 4 groups of distinct atoms

 Group   1 Type C   : 12s5p4d2f1g contracted to 6s4p3d1f1g pattern {711111/2111/211/2/1}
 Group   2 Type N   : 12s5p4d2f1g contracted to 6s4p3d1f1g pattern {711111/2111/211/2/1}
 Group   3 Type O   : 12s5p4d2f1g contracted to 6s4p3d1f1g pattern {711111/2111/211/2/1}
 Group   4 Type H   : 5s2p1d contracted to 3s1p1d pattern {311/2/1}

Atom   0C    basis set group =>   1
Atom   1C    basis set group =>   1
Atom   2C    basis set group =>   1
Atom   3C    basis set group =>   1
Atom   4C    basis set group =>   1
Atom   5C    basis set group =>   1
Atom   6C    basis set group =>   1
Atom   7N    basis set group =>   2
Atom   8O    basis set group =>   3
Atom   9H    basis set group =>   4
Atom  10H    basis set group =>   4
Atom  11H    basis set group =>   4
Atom  12H    basis set group =>   4
Atom  13H    basis set group =>   4
Atom  14H    basis set group =>   4
Atom  15H    basis set group =>   4


           ************************************************************
           *        Program running with 4 parallel MPI-processes     *
           *              working on a common directory               *
           ************************************************************
------------------------------------------------------------------------------
                             ORCA STARTUP CALCULATIONS
                           -- RI-GTO INTEGRALS CHOSEN --
------------------------------------------------------------------------------
------------------------------------------------------------------------------
                   ___                                                        
                  /   \      - P O W E R E D   B Y -                         
                 /     \                                                     
                 |  |  |   _    _      __       _____    __    __             
                 |  |  |  | |  | |    /  \     |  _  \  |  |  /  |          
                  \  \/   | |  | |   /    \    | | | |  |  | /  /          
                 / \  \   | |__| |  /  /\  \   | |_| |  |  |/  /          
                |  |  |   |  __  | /  /__\  \  |    /   |      \           
                |  |  |   | |  | | |   __   |  |    \   |  |\   \          
                \     /   | |  | | |  |  |  |  | |\  \  |  | \   \       
                 \___/    |_|  |_| |__|  |__|  |_| \__\ |__|  \__/        
                                                                              
                      - O R C A' S   B I G   F R I E N D -                    
                                      &                                       
                       - I N T E G R A L  F E E D E R -                       
                                                                              
 v1 FN, 2020, v2 2021, v3 2022-2024                                           
------------------------------------------------------------------------------


----------------------
SHARK INTEGRAL PACKAGE
----------------------

Number of atoms                             ...     16
Number of basis functions                   ...    629
Number of shells                            ...    243
Maximum angular momentum                    ...      3
Integral batch strategy                     ... SHARK/LIBINT Hybrid
RI-J (if used) integral strategy            ... SPLIT-RIJ (Revised 2003 algorithm where possible)
Printlevel                                  ...      1
Contraction scheme used                     ... PARTIAL GENERAL contraction
Prescreening option                         ... SCHWARTZ
   Thresh                                   ... 2.500e-11
   Tcut                                     ... 2.500e-12
   Tpresel                                  ... 2.500e-12 
Coulomb Range Separation                    ... NOT USED
Exchange Range Separation                   ... NOT USED
Multipole approximations                    ... NOT USED
Finite Nucleus Model                        ... NOT USED
CABS basis                                  ... NOT available
Auxiliary Coulomb fitting basis             ... AVAILABLE
   # of basis functions in Aux-J            ...    518
   # of shells in Aux-J                     ...    170
   Maximum angular momentum in Aux-J        ...      4
Auxiliary J/K fitting basis                 ... NOT available
Auxiliary Correlation fitting basis         ... NOT available
Auxiliary 'external' fitting basis          ... NOT available

Checking pre-screening integrals            ... done (  0.1 sec) Dimension = 243
Save PGC pre-screening integrals            ... done (  0.1 sec) Dimension = 243
Calculate PGC overlap integrals             ... done (  0.2 sec) Dimension = 189
Calculating pre-screening integrals (ORCA)  ... done (  0.3 sec) Dimension = 189
Check shell pair data                       ... done (  0.0 sec)
Shell pair information
Shell pair cut-off parameter TPreSel        ...   2.5e-12
Total number of shell pairs                 ...     29646
Shell pairs after pre-screening             ...     24622
Total number of primitive shell pairs       ...     37998
Primitive shell pairs kept                  ...     29444
          la=0 lb=0:   5621 shell pairs
          la=1 lb=0:   6255 shell pairs
          la=1 lb=1:   1550 shell pairs
          la=2 lb=0:   4410 shell pairs
          la=2 lb=1:   2169 shell pairs
          la=2 lb=2:    798 shell pairs
          la=3 lb=0:   1993 shell pairs
          la=3 lb=1:    966 shell pairs
          la=3 lb=2:    697 shell pairs
          la=3 lb=3:    163 shell pairs

Calculating one electron integrals          ... done (  0.1 sec)
Calculating RI/J V-Matrix + Cholesky decomp.... done (  0.2 sec)
Calculating Nuclear repulsion               ... done (  0.1 sec) ENN=    394.410912793274 Eh

Diagonalization of the overlap matrix:
Smallest eigenvalue                        ... 6.444e-07
Time for diagonalization                   ...    0.058 sec
Threshold for overlap eigenvalues          ... 1.000e-07
Number of eigenvalues below threshold      ... 0

IMPORTANT:
Smallest eigenvalue of S below the DiffSThresh (1.000e-06) while
Thresh>1e-12 and/or TCut>1e-13! In order to avoid SCF convergence issues,
Thresh will be set to at least 1e-12 and TCut to at least 1e-13.
This can be turned off by adding %SCF DiffSThresh -1 END to the input.

Time for construction of square roots      ...    0.092 sec
Total time needed                          ...    0.284 sec

-------------------
DFT GRID GENERATION
-------------------

General Integration Accuracy     IntAcc      ... 4.388
Radial Grid Type                 RadialGrid  ... OptM3 with GC (2021)
Angular Grid (max. ang.)         AngularGrid ... 4 (Lebedev-302)
Angular grid pruning method      GridPruning ... 4 (adaptive)
Weight generation scheme         WeightScheme... mBecke (2022)
Basis function cutoff            BFCut       ... 1.0000e-11
Integration weight cutoff        WCut        ... 1.0000e-14
Partially contracted basis set               ... off
Rotationally invariant grid construction     ... off
Angular grids for H and He will be reduced by one unit
Diffuse basis detected: some atoms will have their outermost
                        angular grid increased by 1.

Total number of grid points                  ...    80625
Total number of batches                      ...     1270
Average number of points per batch           ...       63
Average number of grid points per atom       ...     5039

---------------------
SHARK GRID GENERATION
---------------------

General Integration Accuracy     IntAcc      ... 4.388
Radial Grid Type                 RadialGrid  ... OptM3 with GC (2021)
Angular Grid (max. ang.)         AngularGrid ... 4 (Lebedev-302)
Angular grid pruning method      GridPruning ... 4 (adaptive)
Weight generation scheme         WeightScheme... mBecke (2022)
Basis function cutoff            BFCut       ... 1.0000e-11
Integration weight cutoff        WCut        ... 1.0000e-14
Partially contracted basis set               ... off
Rotationally invariant grid construction     ... off
Angular grids for H and He will be reduced by one unit
Diffuse basis detected: some atoms will have their outermost
                        angular grid increased by 1.
Steep s-basis detected: some atoms will have their radial
                        grid points doubled.

Total number of grid points                  ...   137729
Total number of batches                      ...     2162
Average number of points per batch           ...       63
Average number of grid points per atom       ...     8608

--------------------
COSX GRID GENERATION
--------------------

GRIDX 1
-------
General Integration Accuracy     IntAcc      ... 3.816
Radial Grid Type                 RadialGrid  ... OptM3 with GC (2021)
Angular Grid (max. ang.)         AngularGrid ... 1 (Lebedev-50)
Angular grid pruning method      GridPruning ... 4 (adaptive)
Weight generation scheme         WeightScheme... mBecke (2022)
Basis function cutoff            BFCut       ... 1.0000e-11
Integration weight cutoff        WCut        ... 1.0000e-14
Partially contracted basis set               ... on
Rotationally invariant grid construction     ... off
Angular grids for H and He will be reduced by one unit
Diffuse basis detected: some atoms will have their outermost
                        angular grid increased by 1.

Total number of grid points                  ...    10128
Total number of batches                      ...       87
Average number of points per batch           ...      116
Average number of grid points per atom       ...      633
UseSFitting                                  ... on

GRIDX 2
-------
General Integration Accuracy     IntAcc      ... 4.020
Radial Grid Type                 RadialGrid  ... OptM3 with GC (2021)
Angular Grid (max. ang.)         AngularGrid ... 2 (Lebedev-110)
Angular grid pruning method      GridPruning ... 4 (adaptive)
Weight generation scheme         WeightScheme... mBecke (2022)
Basis function cutoff            BFCut       ... 1.0000e-11
Integration weight cutoff        WCut        ... 1.0000e-14
Partially contracted basis set               ... on
Rotationally invariant grid construction     ... off
Angular grids for H and He will be reduced by one unit
Diffuse basis detected: some atoms will have their outermost
                        angular grid increased by 1.

Total number of grid points                  ...    25071
Total number of batches                      ...      206
Average number of points per batch           ...      121
Average number of grid points per atom       ...     1567
UseSFitting                                  ... on

GRIDX 3
-------
General Integration Accuracy     IntAcc      ... 4.338
Radial Grid Type                 RadialGrid  ... OptM3 with GC (2021)
Angular Grid (max. ang.)         AngularGrid ... 3 (Lebedev-194)
Angular grid pruning method      GridPruning ... 4 (adaptive)
Weight generation scheme         WeightScheme... mBecke (2022)
Basis function cutoff            BFCut       ... 1.0000e-11
Integration weight cutoff        WCut        ... 1.0000e-14
Partially contracted basis set               ... on
Rotationally invariant grid construction     ... off
Angular grids for H and He will be reduced by one unit
Diffuse basis detected: some atoms will have their outermost
                        angular grid increased by 1.

Total number of grid points                  ...    55481
Total number of batches                      ...      442
Average number of points per batch           ...      125
Average number of grid points per atom       ...     3468
UseSFitting                                  ... on
Initializing property integral containers    ... done (  0.0 sec)

SHARK setup successfully completed in   7.7 seconds

Maximum memory used throughout the entire STARTUP-calculation: 65.3 MB


           ************************************************************
           *        Program running with 4 parallel MPI-processes     *
           *              working on a common directory               *
           ************************************************************
-------------------------------------------------------------------------------
                                 ORCA GUESS
                   Start orbitals & Density for SCF / CASSCF
-------------------------------------------------------------------------------

------------
SCF SETTINGS
------------
Hamiltonian:
 Density Functional     Method          .... DFT(GTOs)
 Exchange Functional    Exchange        .... TPSS
 Correlation Functional Correlation     .... TPSS
 LDA part of GGA corr.  LDAOpt          .... PW91-LDA
 Gradients option       PostSCFGGA      .... off
 Hybrid DFT is turned on
   Fraction HF Exchange ScalHFX         ....  0.100000
   Scaling of DF-GGA-X  ScalDFX         ....  0.900000
   Scaling of DF-GGA-C  ScalDFC         ....  1.000000
   Scaling of DF-LDA-C  ScalLDAC        ....  1.000000
   Perturbative correction              ....  0.000000
   NL short-range parameter             ....  5.200000
 RI-approximation to the Coulomb term is turned on
   Number of AuxJ basis functions       .... 518
   RIJ-COSX (HFX calculated with COS-X)).... on


General Settings:
 Integral files         IntName         .... cs_rporg_140_ox_solv_01
 Hartree-Fock type      HFTyp           .... UHF
 Total Charge           Charge          ....    1
 Multiplicity           Mult            ....    2
 Number of Electrons    NEL             ....   63
 Basis Dimension        Dim             ....  575
 Nuclear Repulsion      ENuc            ....    394.4109127933 Eh

Convergence Acceleration:
 AO-DIIS                CNVDIIS         .... on
   Start iteration      DIISMaxIt       ....     0
   Startup error        DIISStart       ....  0.200000
   # of expansion vecs  DIISMaxEq       ....     5
   Bias factor          DIISBfac        ....   1.050
   Max. coefficient     DIISMaxC        ....  10.000
 MO-DIIS                CNVKDIIS        .... off
 Trust-Rad. Augm. Hess. CNVTRAH         .... auto
   Auto Start mean grad. ratio tolernc. ....  1.125000
   Auto Start start iteration           ....    50
   Auto Start num. interpolation iter.  ....    10
   Max. Number of Micro iterations      ....    24
   Max. Number of Macro iterations      .... Maxiter - #DIIS iter
   Number of Davidson start vectors     ....     2
   Converg. threshold    (grad. norm)   ....   1.000e-05
   Grad. Scal. Fac. for Micro threshold ....   0.100
   Minimum threshold for Micro iter.    ....   1.000e-02
   NR start threshold (gradient norm)   ....   1.000e-04
   Initial trust radius                 ....   0.400
   Minimum AH scaling param. (alpha)    ....   1.000
   Maximum AH scaling param. (alpha)    .... 1000.000
   Quad. conv. algorithm                .... NR
   White noise on init. David. guess    .... on
   Maximum white noise                  ....   0.010
   Pseudo random numbers                .... off
   Inactive MOs                         .... canonical
   Orbital update algorithm             .... Taylor
   Preconditioner                       .... Diag
   Full preconditioner red. dimension   ....   250
 SOSCF                  CNVSOSCF        .... on
   Start iteration      SOSCFMaxIt      ....   150
   Startup grad/error   SOSCFStart      ....  0.001000
   Hessian update       SOSCFHessUp     .... L-BFGS
 Level Shifting         CNVShift        .... on
   Level shift para.    LevelShift      ....    0.2500
   Turn off err/grad.   ShiftErr        ....    0.0000
 Zerner damping         CNVZerner       .... off
 Static damping         CNVDamp         .... on
   Fraction old density DampFac         ....    0.8500
   Max. Damping (<1)    DampMax         ....    0.9800
   Min. Damping (>=0)   DampMin         ....    0.0000
   Turn off err/grad.   DampErr         ....    0.0300

SCF Procedure:
 Maximum # iterations   MaxIter         ....  1500
 SCF integral mode      SCFMode         .... Direct
   Integral package                     .... SHARK and LIBINT hybrid scheme
 Reset frequency        DirectResetFreq ....    20
 Integral Threshold     Thresh          ....  1.000e-12 Eh
 Primitive CutOff       TCut            ....  1.000e-13 Eh

Convergence Tolerance:
 Convergence Check Mode ConvCheckMode   .... Total+1el-Energy
 Convergence forced     ConvForced      .... 0
 Energy Change          TolE            ....  1.000e-08 Eh
 1-El. energy change                    ....  1.000e-05 Eh
 Orbital Gradient       TolG            ....  1.000e-05
 Orbital Rotation angle TolX            ....  1.000e-05
 DIIS Error             TolErr          ....  5.000e-07

------------------------------
INITIAL GUESS: MODEL POTENTIAL
------------------------------
Loading Hartree-Fock densities                     ... done
Calculating cut-offs                               ... done
Initializing the effective Hamiltonian             ... done
Setting up the integral package (SHARK)            ... done
Starting the Coulomb interaction                   ... done (   0.5 sec)
Making the grid                                    ... done (   0.3 sec)
Mapping shells                                     ... done
Starting the XC term evaluation                    ... done (   0.6 sec)
  promolecular density results
     # of electrons  =     63.993905572
     EX              =    -52.512115352
     EC              =     -2.121563818
     EX+EC           =    -54.633679170
Transforming the Hamiltonian                       ... done (   0.0 sec)
Diagonalizing the Hamiltonian                      ... done (   0.1 sec)
Back transforming the eigenvectors                 ... done (   0.1 sec)
Now organizing SCF variables                       ... done
                      ------------------
                      INITIAL GUESS DONE (   1.9 sec)
                      ------------------
             **** ENERGY FILE WAS UPDATED (cs_rporg_140_ox_solv_01.en.tmp) ****
Finished Guess after   2.9 sec
Maximum memory used throughout the entire GUESS-calculation: 46.0 MB


           ************************************************************
           *        Program running with 4 parallel MPI-processes     *
           *              working on a common directory               *
           ************************************************************

-------------------------------------------------------------------------------------------
                                      ORCA LEAN-SCF
                              memory conserving SCF solver
-------------------------------------------------------------------------------------------

--------------------
CPCM SOLVATION MODEL
--------------------
CPCM parameters:
  Epsilon                                         ...      35.6880
  Refrac                                          ...       1.3442
  Rsolv                                           ...       2.1900
  Surface type                                    ...    GEPOL SES
  Discretization scheme                           ... Constant num. charges
  Epsilon function type                           ...         CPCM
Solvent:                                          ... ACETONITRILE
SMD-CDS solvent descriptors:
  Soln                                            ...       1.3442
  Soln25                                          ...       1.3416
  Sola                                            ...       0.0700
  Solb                                            ...       0.3200
  Solg                                            ...      41.2500
  Solc                                            ...       0.0000
  Solh                                            ...       0.0000
Radii:
  Scheme                                          ... Element-dependent radii
  Radius for C  used is    3.4960 Bohr (=   1.8500 Ang.)
  Radius for N  used is    3.5716 Bohr (=   1.8900 Ang.)
  Radius for O  used is    4.0969 Bohr (=   2.1680 Ang.)
  Radius for H  used is    2.2677 Bohr (=   1.2000 Ang.)
Calculating surface                               ...        done! (  0.0s)
Cavity surface points                             ...          501
Cavity Volume                                     ...    1001.4425
Cavity Surface-area                               ...     581.3702
Calculating surface distance matrix               ...        done! (  0.0s)
Performing Cholesky decomposition & store         ...        done! (  0.0s)
Overall time for CPCM initialization              ...                 0.1s

----------------------------------------D-I-I-S--------------------------------------------
Iteration    Energy (Eh)           Delta-E    RMSDP     MaxDP     DIISErr   Damp  Time(sec)
-------------------------------------------------------------------------------------------
               ***  Starting incremental Fock matrix formation  ***
    1    -400.7256682360138598     0.00e+00  5.27e-04  3.64e-02  5.61e-02  0.850  26.1
Warning: op=1 Small HOMO/LUMO gap (   0.015) - skipping pre-diagonalization
         Will do a full diagonalization
    2    -400.7507451044345430    -2.51e-02  4.95e-04  3.15e-02  4.30e-02  0.850  16.9
                               ***Turning on AO-DIIS***
    3    -400.7688138003283598    -1.81e-02  3.97e-04  2.41e-02  3.06e-02  0.850  16.7
    4    -400.7807722744342414    -1.20e-02  3.26e-04  2.01e-02  2.42e-02  0.850  16.4
    5    -400.7894876349677702    -8.72e-03  1.81e-03  1.13e-01  2.02e-02  0.000  15.9
    6    -400.8308941416866560    -4.14e-02  1.37e-04  8.09e-03  4.86e-03  0.000  16.8
    7    -400.8311667829456724    -2.73e-04  2.97e-05  2.13e-03  3.08e-03  0.000  15.7
    8    -400.8312916879233967    -1.25e-04  2.02e-05  1.24e-03  1.45e-03  0.000  15.2
    9    -400.8313352828154734    -4.36e-05  1.43e-05  8.39e-04  1.13e-03  0.000  14.6
                              *** Initializing SOSCF ***
---------------------------------------S-O-S-C-F--------------------------------------
Iteration    Energy (Eh)           Delta-E    RMSDP     MaxDP     MaxGrad    Time(sec)
--------------------------------------------------------------------------------------
   10    -400.8313607100770355    -2.54e-05  9.88e-06  6.39e-04  6.17e-04    14.9
               *** Restarting incremental Fock matrix formation ***
   11    -400.8313727042697678    -1.20e-05  2.13e-05  1.31e-03  6.22e-04    24.3
   12    -400.8313771954595381    -4.49e-06  2.16e-05  1.15e-03  2.99e-04    19.0
   13    -400.8313786597865942    -1.46e-06  1.83e-05  1.07e-03  2.67e-04    18.0
   14    -400.8313800827406226    -1.42e-06  4.38e-06  1.87e-04  4.92e-05    15.8
   15    -400.8313801318658420    -4.91e-08  1.60e-06  8.46e-05  3.48e-05    14.8
   16    -400.8313801928090356    -6.09e-08  7.98e-07  4.97e-05  1.56e-05    14.3
   17    -400.8313801995174686    -6.71e-09  5.92e-07  4.95e-05  1.55e-05    13.7
                 **** Energy Check signals convergence ****

               *****************************************************
               *                     SUCCESS                       *
               *           SCF CONVERGED AFTER  17 CYCLES          *
               *****************************************************

Recomputing exchange energy using gridx3       ... done (   23.647 sec)
Old exchange energy                            :     -5.326203555 Eh
New exchange energy                            :     -5.326233571 Eh
Exchange energy change after final integration :     -0.000030016 Eh
Total energy after final integration           :   -400.831410215 Eh

SMD CDS free energy correction energy :                -1.29778     Kcal/mol
Total Energy after SMD CDS correction =              -400.833478360 Eh
             **** ENERGY FILE WAS UPDATED (cs_rporg_140_ox_solv_01.en.tmp) ****

----------------
TOTAL SCF ENERGY
----------------

Total Energy       :       -400.83347836040599 Eh          -10907.23346 eV

Components:
Nuclear Repulsion  :        394.41091279327378 Eh           10732.46657 eV
Electronic Energy  :       -795.15730576062515 Eh          -21637.33031 eV
One Electron Energy:      -1311.69414091525141 Eh          -35693.01217 eV
Two Electron Energy:        516.53683515462626 Eh           14055.68186 eV
CPCM Dielectric    :         -0.08498723216613 Eh              -2.31262 eV
SMD CDS (Gcds)     :         -0.00206814538346 Eh              -0.05628 eV

Virial components:
Potential Energy   :       -799.40719886434510 Eh          -21752.97578 eV
Kinetic Energy     :        398.57372050393911 Eh           10845.74232 eV
Virial Ratio       :          2.00566961076513

DFT components:
N(Alpha)           :       31.999969596607 electrons
N(Beta)            :       30.999970135024 electrons
N(Total)           :       62.999939731630 electrons
E(X)               :      -48.372874674997 Eh       
E(C)               :       -2.095139663479 Eh       
E(XC)              :      -50.468014338475 Eh       

CPCM Solvation Model Properties:
Surface-charge          :         -1.02696538428734
Corrected charge        :         -1.00000000000000
Outlying charge corr.   :          0.00005248899355 Eh               0.00143 eV
Free-energy (cav+disp)  :         -0.00206814538346 Eh              -0.05628 eV

---------------
SCF CONVERGENCE
---------------

  Last Energy change         ...    6.7084e-09  Tolerance :   1.0000e-08
  Last MAX-Density change    ...    4.9490e-05  Tolerance :   1.0000e-07
  Last RMS-Density change    ...    5.9160e-07  Tolerance :   5.0000e-09
  Last DIIS Error            ...    6.1711e-04  Tolerance :   5.0000e-07
  Last Orbital Gradient      ...    1.5502e-05  Tolerance :   1.0000e-05
  Last Orbital Rotation      ...    4.0868e-05  Tolerance :   1.0000e-05


----------------------
UHF SPIN CONTAMINATION
----------------------

Warning: in a DFT calculation there is little theoretical justification to 
         calculate <S**2> as in Hartree-Fock theory. We will do it anyways
         but you should keep in mind that the values have only limited relevance

Expectation value of <S**2>     :     0.767797
Ideal value S*(S+1) for S=0.5   :     0.750000
Deviation                       :     0.017797

----------------
ORBITAL ENERGIES
----------------
                 SPIN UP ORBITALS
  NO   OCC          E(Eh)            E(eV) 
   0   1.0000     -19.186782      -522.0989 
   1   1.0000     -14.378989      -391.2722 
   2   1.0000     -10.209627      -277.8181 
   3   1.0000     -10.191811      -277.3333 
   4   1.0000     -10.177562      -276.9456 
   5   1.0000     -10.168322      -276.6941 
   6   1.0000     -10.167092      -276.6606 
   7   1.0000     -10.155415      -276.3429 
   8   1.0000     -10.153178      -276.2820 
   9   1.0000      -1.176629       -32.0177 
  10   1.0000      -0.913565       -24.8594 
  11   1.0000      -0.870737       -23.6940 
  12   1.0000      -0.782048       -21.2806 
  13   1.0000      -0.769692       -20.9444 
  14   1.0000      -0.676634       -18.4122 
  15   1.0000      -0.630175       -17.1479 
  16   1.0000      -0.600555       -16.3419 
  17   1.0000      -0.568740       -15.4762 
  18   1.0000      -0.539242       -14.6735 
  19   1.0000      -0.505594       -13.7579 
  20   1.0000      -0.497714       -13.5435 
  21   1.0000      -0.478207       -13.0127 
  22   1.0000      -0.456199       -12.4138 
  23   1.0000      -0.439511       -11.9597 
  24   1.0000      -0.433941       -11.8081 
  25   1.0000      -0.409700       -11.1485 
  26   1.0000      -0.372188       -10.1277 
  27   1.0000      -0.360984        -9.8229 
  28   1.0000      -0.340191        -9.2571 
  29   1.0000      -0.319884        -8.7045 
  30   1.0000      -0.288022        -7.8375 
  31   1.0000      -0.272532        -7.4160 
  32   0.0000      -0.124412        -3.3854 
  33   0.0000      -0.057384        -1.5615 
  34   0.0000      -0.024807        -0.6750 
  35   0.0000      -0.009846        -0.2679 
  36   0.0000      -0.002147        -0.0584 
  37   0.0000       0.008845         0.2407 
  38   0.0000       0.020170         0.5488 
  39   0.0000       0.026977         0.7341 
  40   0.0000       0.032371         0.8809 
  41   0.0000       0.035972         0.9788 
  42   0.0000       0.046949         1.2775 

                 SPIN DOWN ORBITALS
  NO   OCC          E(Eh)            E(eV) 
   0   1.0000     -19.180276      -521.9218 
   1   1.0000     -14.372093      -391.0845 
   2   1.0000     -10.209704      -277.8202 
   3   1.0000     -10.189156      -277.2610 
   4   1.0000     -10.173408      -276.8325 
   5   1.0000     -10.166558      -276.6461 
   6   1.0000     -10.166028      -276.6317 
   7   1.0000     -10.155816      -276.3538 
   8   1.0000     -10.154057      -276.3059 
   9   1.0000      -1.164707       -31.6933 
  10   1.0000      -0.904011       -24.5994 
  11   1.0000      -0.863004       -23.4835 
  12   1.0000      -0.774146       -21.0656 
  13   1.0000      -0.767309       -20.8795 
  14   1.0000      -0.671879       -18.2828 
  15   1.0000      -0.627562       -17.0768 
  16   1.0000      -0.596468       -16.2307 
  17   1.0000      -0.563752       -15.3405 
  18   1.0000      -0.536962       -14.6115 
  19   1.0000      -0.502605       -13.6766 
  20   1.0000      -0.476164       -12.9571 
  21   1.0000      -0.462360       -12.5814 
  22   1.0000      -0.453866       -12.3503 
  23   1.0000      -0.438996       -11.9457 
  24   1.0000      -0.431892       -11.7524 
  25   1.0000      -0.392367       -10.6768 
  26   1.0000      -0.371434       -10.1072 
  27   1.0000      -0.359317        -9.7775 
  28   1.0000      -0.316032        -8.5997 
  29   1.0000      -0.314048        -8.5457 
  30   1.0000      -0.283620        -7.7177 
  31   0.0000      -0.216229        -5.8839 
  32   0.0000      -0.097746        -2.6598 
  33   0.0000      -0.049416        -1.3447 
  34   0.0000      -0.008853        -0.2409 
  35   0.0000      -0.007346        -0.1999 
  36   0.0000      -0.001310        -0.0356 
  37   0.0000       0.008871         0.2414 
  38   0.0000       0.020762         0.5650 
  39   0.0000       0.027169         0.7393 
  40   0.0000       0.033234         0.9043 
  41   0.0000       0.036825         1.0021 
*Only the first 10 virtual orbitals were printed.

                    ********************************
                    * MULLIKEN POPULATION ANALYSIS *
                    ********************************

--------------------------------------------
MULLIKEN ATOMIC CHARGES AND SPIN POPULATIONS
--------------------------------------------
   0 C :   -0.581994    0.046899
   1 C :   -0.375731   -0.025460
   2 C :   -0.046007    0.264053
   3 C :   -0.544890   -0.069648
   4 C :   -0.492030    0.098870
   5 C :    1.260062    0.202242
   6 C :    0.518836   -0.004732
   7 N :   -0.441726    0.287804
   8 O :   -0.195237    0.202391
   9 H :    0.216994   -0.003509
  10 H :    0.316801    0.000376
  11 H :    0.060605    0.001338
  12 H :    0.466425   -0.002307
  13 H :    0.406033    0.004639
  14 H :    0.489684   -0.000762
  15 H :   -0.057825   -0.002195
Sum of atomic charges         :    1.0000000
Sum of atomic spin populations:    1.0000000

-----------------------------------------------------
MULLIKEN REDUCED ORBITAL CHARGES AND SPIN POPULATIONS
-----------------------------------------------------
CHARGE
  0 C s       :     3.874630  s :     3.874630
      pz      :     0.867751  p :     2.561013
      px      :     0.791432
      py      :     0.901830
      dz2     :    -0.015582  d :     0.157562
      dxz     :    -0.003415
      dyz     :     0.000937
      dx2y2   :     0.037400
      dxy     :     0.138221
      f0      :     0.001053  f :    -0.011210
      f+1     :    -0.000395
      f-1     :     0.000038
      f+2     :     0.000841
      f-2     :     0.000906
      f+3     :     0.003066
      f-3     :    -0.016719

  1 C s       :     3.459904  s :     3.459904
      pz      :     0.906977  p :     2.732631
      px      :     0.973787
      py      :     0.851867
      dz2     :     0.004569  d :     0.191664
      dxz     :     0.017085
      dyz     :     0.013509
      dx2y2   :    -0.013033
      dxy     :     0.169535
      f0      :     0.000832  f :    -0.008469
      f+1     :     0.000811
      f-1     :     0.000298
      f+2     :     0.001313
      f-2     :     0.000135
      f+3     :    -0.002341
      f-3     :    -0.009518

  2 C s       :     3.476246  s :     3.476246
      pz      :     0.769160  p :     2.515351
      px      :     0.890265
      py      :     0.855926
      dz2     :    -0.018340  d :     0.058176
      dxz     :    -0.000876
      dyz     :     0.024345
      dx2y2   :     0.043570
      dxy     :     0.009476
      f0      :     0.001078  f :    -0.003765
      f+1     :     0.000311
      f-1     :     0.000714
      f+2     :     0.000558
      f-2     :     0.001449
      f+3     :    -0.001878
      f-3     :    -0.005999

  3 C s       :     3.576807  s :     3.576807
      pz      :     0.916893  p :     2.744248
      px      :     1.011271
      py      :     0.816084
      dz2     :     0.004385  d :     0.233660
      dxz     :     0.014445
      dyz     :     0.019231
      dx2y2   :     0.068270
      dxy     :     0.127329
      f0      :     0.000854  f :    -0.009826
      f+1     :     0.000783
      f-1     :     0.000141
      f+2     :     0.000783
      f-2     :     0.000628
      f+3     :    -0.004329
      f-3     :    -0.008684

  4 C s       :     3.815873  s :     3.815873
      pz      :     0.843505  p :     2.496247
      px      :     0.729671
      py      :     0.923071
      dz2     :    -0.017394  d :     0.192585
      dxz     :     0.012928
      dyz     :    -0.008646
      dx2y2   :    -0.081861
      dxy     :     0.287559
      f0      :     0.000581  f :    -0.012675
      f+1     :     0.000406
      f-1     :    -0.000105
      f+2     :     0.002016
      f-2     :    -0.000121
      f+3     :    -0.008781
      f-3     :    -0.006671

  5 C s       :     2.862628  s :     2.862628
      pz      :     0.922189  p :     1.936079
      px      :     0.383733
      py      :     0.630157
      dz2     :    -0.016657  d :     0.021242
      dxz     :     0.014553
      dyz     :    -0.016173
      dx2y2   :    -0.040718
      dxy     :     0.080237
      f0      :     0.002549  f :    -0.080011
      f+1     :    -0.005335
      f-1     :    -0.000812
      f+2     :     0.000410
      f-2     :     0.001030
      f+3     :    -0.036667
      f-3     :    -0.041186

  6 C s       :     3.520582  s :     3.520582
      pz      :     0.738681  p :     2.012803
      px      :     0.544453
      py      :     0.729669
      dz2     :    -0.005763  d :    -0.050524
      dxz     :     0.021182
      dyz     :     0.000428
      dx2y2   :     0.020229
      dxy     :    -0.086600
      f0      :     0.000926  f :    -0.001696
      f+1     :    -0.001357
      f-1     :     0.000558
      f+2     :     0.001621
      f-2     :     0.002670
      f+3     :    -0.003389
      f-3     :    -0.002724

  7 N s       :     4.201963  s :     4.201963
      pz      :     1.038717  p :     3.128037
      px      :     0.714182
      py      :     1.375138
      dz2     :    -0.005413  d :     0.098998
      dxz     :     0.033392
      dyz     :     0.013298
      dx2y2   :     0.045235
      dxy     :     0.012484
      f0      :     0.002038  f :     0.012728
      f+1     :    -0.000170
      f-1     :    -0.000168
      f+2     :     0.001439
      f-2     :     0.004517
      f+3     :     0.002789
      f-3     :     0.002282

  8 O s       :     3.954690  s :     3.954690
      pz      :     1.646505  p :     4.186830
      px      :     1.102600
      py      :     1.437725
      dz2     :     0.000084  d :     0.047968
      dxz     :     0.017922
      dyz     :     0.003567
      dx2y2   :     0.016097
      dxy     :     0.010298
      f0      :     0.001117  f :     0.005749
      f+1     :     0.000208
      f-1     :     0.000102
      f+2     :     0.000607
      f-2     :     0.000606
      f+3     :     0.002709
      f-3     :     0.000399

  9 H s       :     0.682080  s :     0.682080
      pz      :     0.032737  p :     0.078467
      px      :     0.031671
      py      :     0.014059
      dz2     :     0.000658  d :     0.022459
      dxz     :     0.003738
      dyz     :     0.006511
      dx2y2   :     0.011365
      dxy     :     0.000187

 10 H s       :     0.735976  s :     0.735976
      pz      :    -0.002239  p :    -0.053723
      px      :    -0.010214
      py      :    -0.041269
      dz2     :    -0.001377  d :     0.000946
      dxz     :     0.001006
      dyz     :     0.003200
      dx2y2   :    -0.002174
      dxy     :     0.000291

 11 H s       :     0.876473  s :     0.876473
      pz      :     0.009712  p :     0.055438
      px      :     0.026579
      py      :     0.019147
      dz2     :    -0.000192  d :     0.007485
      dxz     :     0.002449
      dyz     :     0.002111
      dx2y2   :     0.001817
      dxy     :     0.001299

 12 H s       :     0.515076  s :     0.515076
      pz      :     0.019534  p :     0.011210
      px      :    -0.010452
      py      :     0.002128
      dz2     :    -0.000512  d :     0.007289
      dxz     :     0.000553
      dyz     :     0.004734
      dx2y2   :     0.000596
      dxy     :     0.001917

 13 H s       :     0.597223  s :     0.597223
      pz      :     0.009929  p :    -0.009632
      px      :    -0.010474
      py      :    -0.009088
      dz2     :    -0.000488  d :     0.006376
      dxz     :     0.003869
      dyz     :     0.000124
      dx2y2   :     0.001145
      dxy     :     0.001726

 14 H s       :     0.508468  s :     0.508468
      pz      :     0.018437  p :    -0.005349
      px      :    -0.018554
      py      :    -0.005232
      dz2     :    -0.000526  d :     0.007197
      dxz     :     0.002066
      dyz     :     0.003046
      dx2y2   :     0.001910
      dxy     :     0.000701

 15 H s       :     1.000202  s :     1.000202
      pz      :     0.013017  p :     0.050460
      px      :    -0.014627
      py      :     0.052070
      dz2     :    -0.000416  d :     0.007163
      dxz     :     0.000885
      dyz     :     0.004054
      dx2y2   :     0.002539
      dxy     :     0.000101


SPIN
  0 C s       :    -0.009832  s :    -0.009832
      pz      :     0.058947  p :     0.047190
      px      :    -0.010919
      py      :    -0.000838
      dz2     :    -0.000606  d :     0.011376
      dxz     :     0.005703
      dyz     :     0.001900
      dx2y2   :     0.002040
      dxy     :     0.002340
      f0      :    -0.000222  f :    -0.001835
      f+1     :    -0.000225
      f-1     :     0.000052
      f+2     :     0.000005
      f-2     :    -0.000383
      f+3     :    -0.000191
      f-3     :    -0.000871

  1 C s       :    -0.001019  s :    -0.001019
      pz      :    -0.017303  p :    -0.027721
      px      :    -0.007914
      py      :    -0.002503
      dz2     :     0.000030  d :     0.004094
      dxz     :     0.005159
      dyz     :     0.002828
      dx2y2   :    -0.001619
      dxy     :    -0.002305
      f0      :    -0.000038  f :    -0.000814
      f+1     :    -0.000025
      f-1     :     0.000012
      f+2     :    -0.000091
      f-2     :    -0.000062
      f+3     :    -0.000469
      f-3     :    -0.000140

  2 C s       :     0.006337  s :     0.006337
      pz      :     0.234655  p :     0.259022
      px      :     0.010877
      py      :     0.013490
      dz2     :    -0.001359  d :    -0.000009
      dxz     :     0.001126
      dyz     :     0.000307
      dx2y2   :     0.000490
      dxy     :    -0.000572
      f0      :    -0.000681  f :    -0.001297
      f+1     :    -0.000393
      f-1     :    -0.000208
      f+2     :     0.000293
      f-2     :     0.000103
      f+3     :    -0.000242
      f-3     :    -0.000169

  3 C s       :    -0.005247  s :    -0.005247
      pz      :    -0.043370  p :    -0.061467
      px      :    -0.014645
      py      :    -0.003451
      dz2     :    -0.000055  d :    -0.002542
      dxz     :     0.001451
      dyz     :    -0.000880
      dx2y2   :    -0.002791
      dxy     :    -0.000267
      f0      :     0.000021  f :    -0.000391
      f+1     :    -0.000036
      f-1     :     0.000100
      f+2     :     0.000042
      f-2     :     0.000135
      f+3     :    -0.000259
      f-3     :    -0.000394

  4 C s       :    -0.002348  s :    -0.002348
      pz      :     0.102724  p :     0.094792
      px      :    -0.006056
      py      :    -0.001876
      dz2     :    -0.000302  d :     0.007797
      dxz     :    -0.001697
      dyz     :     0.001941
      dx2y2   :     0.005031
      dxy     :     0.002824
      f0      :    -0.000231  f :    -0.001370
      f+1     :    -0.000163
      f-1     :    -0.000067
      f+2     :     0.000315
      f-2     :    -0.000248
      f+3     :    -0.000520
      f-3     :    -0.000455

  5 C s       :     0.019501  s :     0.019501
      pz      :     0.144588  p :     0.168396
      px      :    -0.002674
      py      :     0.026481
      dz2     :    -0.001131  d :     0.015580
      dxz     :     0.010726
      dyz     :     0.002893
      dx2y2   :    -0.005420
      dxy     :     0.008511
      f0      :    -0.000602  f :    -0.001234
      f+1     :    -0.000201
      f-1     :    -0.000097
      f+2     :     0.000136
      f-2     :     0.000193
      f+3     :     0.000311
      f-3     :    -0.000975

  6 C s       :     0.009120  s :     0.009120
      pz      :    -0.012348  p :    -0.027371
      px      :    -0.012728
      py      :    -0.002295
      dz2     :    -0.000197  d :     0.012112
      dxz     :     0.007099
      dyz     :     0.000765
      dx2y2   :     0.001146
      dxy     :     0.003298
      f0      :     0.000219  f :     0.001407
      f+1     :    -0.000043
      f-1     :     0.000121
      f+2     :     0.001518
      f-2     :     0.000212
      f+3     :     0.000146
      f-3     :    -0.000765

  7 N s       :    -0.003191  s :    -0.003191
      pz      :     0.285888  p :     0.285916
      px      :     0.001707
      py      :    -0.001679
      dz2     :     0.000119  d :     0.004253
      dxz     :     0.002792
      dyz     :     0.001034
      dx2y2   :     0.000257
      dxy     :     0.000052
      f0      :    -0.000308  f :     0.000825
      f+1     :    -0.000200
      f-1     :    -0.000089
      f+2     :     0.000690
      f-2     :     0.000855
      f+3     :    -0.000012
      f-3     :    -0.000111

  8 O s       :     0.005548  s :     0.005548
      pz      :     0.192093  p :     0.195183
      px      :     0.002871
      py      :     0.000219
      dz2     :     0.000064  d :     0.001666
      dxz     :     0.001850
      dyz     :    -0.000127
      dx2y2   :    -0.000288
      dxy     :     0.000166
      f0      :     0.000041  f :    -0.000006
      f+1     :    -0.000071
      f-1     :    -0.000062
      f+2     :    -0.000013
      f-2     :     0.000191
      f+3     :     0.000005
      f-3     :    -0.000096

  9 H s       :    -0.007644  s :    -0.007644
      pz      :     0.002934  p :     0.003276
      px      :     0.000208
      py      :     0.000134
      dz2     :     0.000053  d :     0.000859
      dxz     :     0.000159
      dyz     :     0.000744
      dx2y2   :    -0.000184
      dxy     :     0.000087

 10 H s       :     0.001610  s :     0.001610
      pz      :    -0.001989  p :    -0.000866
      px      :    -0.002063
      py      :     0.003185
      dz2     :     0.000027  d :    -0.000368
      dxz     :    -0.000128
      dyz     :    -0.000247
      dx2y2   :     0.000102
      dxy     :    -0.000121

 11 H s       :    -0.000852  s :    -0.000852
      pz      :     0.001152  p :     0.001659
      px      :    -0.000401
      py      :     0.000908
      dz2     :     0.000098  d :     0.000531
      dxz     :     0.000255
      dyz     :     0.000119
      dx2y2   :     0.000021
      dxy     :     0.000037

 12 H s       :    -0.000760  s :    -0.000760
      pz      :    -0.001811  p :    -0.001367
      px      :    -0.000211
      py      :     0.000655
      dz2     :     0.000028  d :    -0.000179
      dxz     :    -0.000052
      dyz     :    -0.000156
      dx2y2   :     0.000009
      dxy     :    -0.000009

 13 H s       :    -0.003526  s :    -0.003526
      pz      :     0.005924  p :     0.006750
      px      :     0.000101
      py      :     0.000725
      dz2     :     0.000120  d :     0.001415
      dxz     :     0.001046
      dyz     :     0.000048
      dx2y2   :     0.000011
      dxy     :     0.000190

 14 H s       :    -0.000254  s :    -0.000254
      pz      :    -0.001042  p :    -0.000396
      px      :    -0.000002
      py      :     0.000649
      dz2     :     0.000034  d :    -0.000112
      dxz     :    -0.000093
      dyz     :    -0.000079
      dx2y2   :     0.000028
      dxy     :    -0.000001

 15 H s       :    -0.002125  s :    -0.002125
      pz      :     0.000224  p :    -0.000289
      px      :    -0.000515
      py      :     0.000003
      dz2     :     0.000040  d :     0.000220
      dxz     :    -0.000084
      dyz     :     0.000246
      dx2y2   :    -0.000004
      dxy     :     0.000023



                     *******************************
                     * LOEWDIN POPULATION ANALYSIS *
                     *******************************

-------------------------------------------
LOEWDIN ATOMIC CHARGES AND SPIN POPULATIONS
-------------------------------------------
   0 C :    0.265851    0.057080
   1 C :    0.265858    0.040882
   2 C :    0.280027    0.133392
   3 C :    0.262697    0.031527
   4 C :    0.257971    0.072131
   5 C :   -0.105376    0.112875
   6 C :    0.091913    0.066831
   7 N :    0.197739    0.230899
   8 O :    0.752257    0.200453
   9 H :   -0.396585    0.014867
  10 H :   -0.139720   -0.002319
  11 H :   -0.164761    0.009324
  12 H :   -0.148072   -0.003626
  13 H :   -0.134655    0.029109
  14 H :   -0.146142   -0.000413
  15 H :   -0.139002    0.006987

----------------------------------------------------
LOEWDIN REDUCED ORBITAL CHARGES AND SPIN POPULATIONS
----------------------------------------------------
CHARGE
  0 C s       :     2.487696  s :     2.487696
      pz      :     0.554038  p :     2.238978
      px      :     0.858027
      py      :     0.826913
      dz2     :     0.069213  d :     0.676308
      dxz     :     0.105696
      dyz     :     0.042992
      dx2y2   :     0.239218
      dxy     :     0.219189
      f0      :     0.021577  f :     0.331168
      f+1     :     0.030964
      f-1     :     0.020782
      f+2     :     0.024649
      f-2     :     0.037873
      f+3     :     0.084125
      f-3     :     0.111198

  1 C s       :     2.494092  s :     2.494092
      pz      :     0.579356  p :     2.270418
      px      :     0.853871
      py      :     0.837191
      dz2     :     0.067714  d :     0.648552
      dxz     :     0.060409
      dyz     :     0.059839
      dx2y2   :     0.175013
      dxy     :     0.285576
      f0      :     0.020453  f :     0.321080
      f+1     :     0.026714
      f-1     :     0.024787
      f+2     :     0.043873
      f-2     :     0.010757
      f+3     :     0.081532
      f-3     :     0.112964

  2 C s       :     2.501353  s :     2.501353
      pz      :     0.505081  p :     2.211529
      px      :     0.847609
      py      :     0.858839
      dz2     :     0.068094  d :     0.677770
      dxz     :     0.039199
      dyz     :     0.112100
      dx2y2   :     0.270685
      dxy     :     0.187692
      f0      :     0.019923  f :     0.329321
      f+1     :     0.020187
      f-1     :     0.030373
      f+2     :     0.015437
      f-2     :     0.051446
      f+3     :     0.080018
      f-3     :     0.111936

  3 C s       :     2.493494  s :     2.493494
      pz      :     0.585906  p :     2.275632
      px      :     0.853664
      py      :     0.836062
      dz2     :     0.067657  d :     0.647298
      dxz     :     0.073633
      dyz     :     0.044403
      dx2y2   :     0.237934
      dxy     :     0.223672
      f0      :     0.020534  f :     0.320879
      f+1     :     0.030356
      f-1     :     0.021224
      f+2     :     0.026189
      f-2     :     0.027547
      f+3     :     0.080043
      f-3     :     0.114985

  4 C s       :     2.487527  s :     2.487527
      pz      :     0.547361  p :     2.238384
      px      :     0.867073
      py      :     0.823950
      dz2     :     0.069897  d :     0.684777
      dxz     :     0.087638
      dyz     :     0.065487
      dx2y2   :     0.190098
      dxy     :     0.271656
      f0      :     0.021771  f :     0.331342
      f+1     :     0.027992
      f-1     :     0.023990
      f+2     :     0.047291
      f-2     :     0.016728
      f+3     :     0.081119
      f-3     :     0.112449

  5 C s       :     2.474736  s :     2.474736
      pz      :     0.568868  p :     2.249945
      px      :     0.838867
      py      :     0.842210
      dz2     :     0.091189  d :     0.895743
      dxz     :     0.115454
      dyz     :     0.114689
      dx2y2   :     0.297097
      dxy     :     0.277315
      f0      :     0.031310  f :     0.484953
      f+1     :     0.036783
      f-1     :     0.034030
      f+2     :     0.036852
      f-2     :     0.053681
      f+3     :     0.118162
      f-3     :     0.174134

  6 C s       :     2.511011  s :     2.511011
      pz      :     0.544908  p :     2.220198
      px      :     0.840427
      py      :     0.834862
      dz2     :     0.081202  d :     0.767812
      dxz     :     0.120371
      dyz     :     0.043332
      dx2y2   :     0.263200
      dxy     :     0.259706
      f0      :     0.029665  f :     0.409066
      f+1     :     0.038279
      f-1     :     0.025162
      f+2     :     0.024657
      f-2     :     0.043716
      f+3     :     0.136336
      f-3     :     0.111252

  7 N s       :     2.840133  s :     2.840133
      pz      :     0.781645  p :     2.891998
      px      :     0.884206
      py      :     1.226148
      dz2     :     0.074211  d :     0.731303
      dxz     :     0.164327
      dyz     :     0.021037
      dx2y2   :     0.232575
      dxy     :     0.239154
      f0      :     0.024436  f :     0.338827
      f+1     :     0.030807
      f-1     :     0.014880
      f+2     :     0.025268
      f-2     :     0.045979
      f+3     :     0.092459
      f-3     :     0.104998

  8 O s       :     3.021405  s :     3.021405
      pz      :     1.274158  p :     3.722849
      px      :     1.111364
      py      :     1.337327
      dz2     :     0.038935  d :     0.381828
      dxz     :     0.068919
      dyz     :     0.004744
      dx2y2   :     0.088734
      dxy     :     0.180496
      f0      :     0.010239  f :     0.121661
      f+1     :     0.012167
      f-1     :     0.004625
      f+2     :     0.012405
      f-2     :     0.006625
      f+3     :     0.045257
      f-3     :     0.030342

  9 H s       :     0.564484  s :     0.564484
      pz      :     0.121425  p :     0.478033
      px      :     0.149873
      py      :     0.206736
      dz2     :     0.036251  d :     0.354068
      dxz     :     0.045154
      dyz     :     0.063470
      dx2y2   :     0.126520
      dxy     :     0.082673

 10 H s       :     0.644669  s :     0.644669
      pz      :     0.055947  p :     0.282494
      px      :     0.084890
      py      :     0.141658
      dz2     :     0.025916  d :     0.212556
      dxz     :     0.009296
      dyz     :     0.047978
      dx2y2   :     0.059355
      dxy     :     0.070011

 11 H s       :     0.643279  s :     0.643279
      pz      :     0.066322  p :     0.302274
      px      :     0.123344
      py      :     0.112608
      dz2     :     0.026160  d :     0.219208
      dxz     :     0.029089
      dyz     :     0.028993
      dx2y2   :     0.082268
      dxy     :     0.052698

 12 H s       :     0.655386  s :     0.655386
      pz      :     0.071659  p :     0.285927
      px      :     0.079974
      py      :     0.134294
      dz2     :     0.022454  d :     0.206759
      dxz     :     0.009615
      dyz     :     0.049713
      dx2y2   :     0.058665
      dxy     :     0.066312

 13 H s       :     0.654414  s :     0.654414
      pz      :     0.059742  p :     0.279694
      px      :     0.142723
      py      :     0.077229
      dz2     :     0.022669  d :     0.200548
      dxz     :     0.046251
      dyz     :     0.004609
      dx2y2   :     0.050534
      dxy     :     0.076485

 14 H s       :     0.654998  s :     0.654998
      pz      :     0.070681  p :     0.285126
      px      :     0.103183
      py      :     0.111262
      dz2     :     0.022443  d :     0.206018
      dxz     :     0.028156
      dyz     :     0.030468
      dx2y2   :     0.079528
      dxy     :     0.045423

 15 H s       :     0.642951  s :     0.642951
      pz      :     0.067420  p :     0.287492
      px      :     0.086144
      py      :     0.133927
      dz2     :     0.023482  d :     0.208559
      dxz     :     0.010022
      dyz     :     0.047520
      dx2y2   :     0.059541
      dxy     :     0.067993


SPIN
  0 C s       :     0.000908  s :     0.000908
      pz      :     0.037164  p :     0.036850
      px      :     0.000072
      py      :    -0.000385
      dz2     :    -0.000312  d :     0.008975
      dxz     :     0.006089
      dyz     :     0.003392
      dx2y2   :    -0.000356
      dxy     :     0.000162
      f0      :     0.000028  f :     0.010347
      f+1     :    -0.000090
      f-1     :    -0.000134
      f+2     :     0.002599
      f-2     :     0.008030
      f+3     :     0.000129
      f-3     :    -0.000215

  1 C s       :    -0.000752  s :    -0.000752
      pz      :    -0.004537  p :    -0.008271
      px      :    -0.000987
      py      :    -0.002747
      dz2     :     0.000001  d :     0.031613
      dxz     :     0.017321
      dyz     :     0.013021
      dx2y2   :     0.000815
      dxy     :     0.000456
      f0      :     0.001343  f :     0.018293
      f+1     :    -0.000059
      f-1     :    -0.000060
      f+2     :     0.013825
      f-2     :     0.002540
      f+3     :     0.000302
      f-3     :     0.000401

  2 C s       :     0.004319  s :     0.004319
      pz      :     0.132370  p :     0.138617
      px      :     0.003061
      py      :     0.003187
      dz2     :    -0.001072  d :    -0.006423
      dxz     :    -0.000295
      dyz     :    -0.003590
      dx2y2   :    -0.000773
      dxy     :    -0.000693
      f0      :    -0.002006  f :    -0.003122
      f+1     :    -0.000336
      f-1     :    -0.000218
      f+2     :     0.001584
      f-2     :    -0.001571
      f+3     :    -0.000335
      f-3     :    -0.000240

  3 C s       :    -0.001274  s :    -0.001274
      pz      :    -0.019136  p :    -0.023861
      px      :    -0.002723
      py      :    -0.002002
      dz2     :     0.000124  d :     0.035935
      dxz     :     0.029710
      dyz     :     0.004550
      dx2y2   :     0.000566
      dxy     :     0.000984
      f0      :     0.001728  f :     0.020726
      f+1     :    -0.000080
      f-1     :     0.000011
      f+2     :     0.004473
      f-2     :     0.013771
      f+3     :     0.000513
      f-3     :     0.000311

  4 C s       :     0.001636  s :     0.001636
      pz      :     0.057416  p :     0.058246
      px      :     0.001358
      py      :    -0.000529
      dz2     :    -0.000511  d :     0.003220
      dxz     :    -0.001736
      dyz     :     0.006051
      dx2y2   :    -0.000105
      dxy     :    -0.000480
      f0      :    -0.000433  f :     0.009029
      f+1     :    -0.000120
      f-1     :    -0.000177
      f+2     :     0.009810
      f-2     :     0.000162
      f+3     :    -0.000253
      f-3     :     0.000040

  5 C s       :     0.002400  s :     0.002400
      pz      :     0.083581  p :     0.084852
      px      :     0.001354
      py      :    -0.000083
      dz2     :    -0.000544  d :     0.011550
      dxz     :     0.006946
      dyz     :     0.005079
      dx2y2   :     0.000060
      dxy     :     0.000009
      f0      :    -0.000920  f :     0.014073
      f+1     :    -0.000152
      f-1     :    -0.000215
      f+2     :     0.014112
      f-2     :     0.001156
      f+3     :     0.000079
      f-3     :     0.000014

  6 C s       :    -0.000609  s :    -0.000609
      pz      :     0.002730  p :    -0.001224
      px      :    -0.002407
      py      :    -0.001546
      dz2     :    -0.000118  d :     0.039450
      dxz     :     0.030123
      dyz     :     0.008938
      dx2y2   :    -0.000612
      dxy     :     0.001119
      f0      :     0.002085  f :     0.029214
      f+1     :    -0.000113
      f-1     :    -0.000096
      f+2     :     0.012688
      f-2     :     0.013987
      f+3     :     0.000726
      f-3     :    -0.000063

  7 N s       :     0.005117  s :     0.005117
      pz      :     0.195090  p :     0.195373
      px      :     0.000460
      py      :    -0.000177
      dz2     :     0.000424  d :     0.014939
      dxz     :     0.017316
      dyz     :    -0.002040
      dx2y2   :    -0.000355
      dxy     :    -0.000406
      f0      :     0.001347  f :     0.015471
      f+1     :    -0.000147
      f-1     :    -0.000052
      f+2     :     0.007969
      f-2     :     0.006064
      f+3     :     0.000122
      f-3     :     0.000167

  8 O s       :     0.003058  s :     0.003058
      pz      :     0.155779  p :     0.156372
      px      :    -0.000229
      py      :     0.000821
      dz2     :     0.000115  d :     0.029651
      dxz     :     0.027067
      dyz     :     0.002578
      dx2y2   :     0.000235
      dxy     :    -0.000344
      f0      :     0.004573  f :     0.011373
      f+1     :    -0.000077
      f-1     :    -0.000053
      f+2     :     0.004737
      f-2     :     0.001899
      f+3     :    -0.000024
      f-3     :     0.000318

  9 H s       :    -0.003194  s :    -0.003194
      pz      :     0.008820  p :     0.008728
      px      :    -0.000183
      py      :     0.000091
      dz2     :    -0.000044  d :     0.009333
      dxz     :     0.000552
      dyz     :     0.008672
      dx2y2   :    -0.000180
      dxy     :     0.000333

 10 H s       :    -0.000451  s :    -0.000451
      pz      :    -0.002081  p :    -0.002448
      px      :    -0.000340
      py      :    -0.000027
      dz2     :    -0.000020  d :     0.000581
      dxz     :    -0.000797
      dyz     :     0.001709
      dx2y2   :    -0.000069
      dxy     :    -0.000242

 11 H s       :    -0.001961  s :    -0.001961
      pz      :     0.004950  p :     0.005172
      px      :    -0.000126
      py      :     0.000348
      dz2     :    -0.000066  d :     0.006114
      dxz     :     0.002189
      dyz     :     0.003938
      dx2y2   :    -0.000088
      dxy     :     0.000141

 12 H s       :     0.000448  s :     0.000448
      pz      :    -0.002421  p :    -0.002991
      px      :    -0.000314
      py      :    -0.000256
      dz2     :    -0.000011  d :    -0.001084
      dxz     :    -0.000065
      dyz     :    -0.000600
      dx2y2   :    -0.000208
      dxy     :    -0.000201

 13 H s       :    -0.003965  s :    -0.003965
      pz      :     0.016783  p :     0.018545
      px      :     0.001491
      py      :     0.000271
      dz2     :    -0.000023  d :     0.014529
      dxz     :     0.013153
      dyz     :     0.000500
      dx2y2   :     0.000539
      dxy     :     0.000361

 14 H s       :     0.000026  s :     0.000026
      pz      :    -0.000506  p :    -0.000860
      px      :    -0.000228
      py      :    -0.000127
      dz2     :    -0.000011  d :     0.000421
      dxz     :    -0.001278
      dyz     :     0.002001
      dx2y2   :    -0.000213
      dxy     :    -0.000078

 15 H s       :    -0.001327  s :    -0.001327
      pz      :     0.003858  p :     0.004180
      px      :    -0.000059
      py      :     0.000380
      dz2     :    -0.000016  d :     0.004134
      dxz     :    -0.000530
      dyz     :     0.004598
      dx2y2   :     0.000044
      dxy     :     0.000039



                      *****************************
                      * MAYER POPULATION ANALYSIS *
                      *****************************

  NA   - Mulliken gross atomic population
  ZA   - Total nuclear charge
  QA   - Mulliken gross atomic charge
  VA   - Mayer's total valence
  BVA  - Mayer's bonded valence
  FA   - Mayer's free valence

  ATOM       NA         ZA         QA         VA         BVA        FA
  0 C      6.5820     6.0000    -0.5820     3.1913     3.1856     0.0057
  1 C      6.3757     6.0000    -0.3757     3.4870     3.4853     0.0017
  2 C      6.0460     6.0000    -0.0460     3.4336     3.3790     0.0546
  3 C      6.5449     6.0000    -0.5449     3.4615     3.4591     0.0024
  4 C      6.4920     6.0000    -0.4920     3.3909     3.3793     0.0116
  5 C      4.7399     6.0000     1.2601     1.7745     1.7454     0.0291
  6 C      5.4812     6.0000     0.5188     1.9748     1.9700     0.0048
  7 N      7.4417     7.0000    -0.4417     1.5189     1.4273     0.0916
  8 O      8.1952     8.0000    -0.1952     1.9045     1.8609     0.0435
  9 H      0.7830     1.0000     0.2170     0.9895     0.9894     0.0001
 10 H      0.6832     1.0000     0.3168     0.6633     0.6632     0.0000
 11 H      0.9394     1.0000     0.0606     1.1991     1.1991     0.0000
 12 H      0.5336     1.0000     0.4664     0.7063     0.7063     0.0000
 13 H      0.5940     1.0000     0.4060     0.7487     0.7487     0.0001
 14 H      0.5103     1.0000     0.4897     0.6108     0.6108     0.0000
 15 H      1.0578     1.0000    -0.0578     1.2648     1.2648     0.0000

  Mayer bond orders larger than 0.100000
B(  0-C ,  1-C ) :   1.5292 B(  0-C ,  4-C ) :  -0.2321 B(  0-C ,  5-C ) :   0.4663 
B(  0-C , 14-H ) :  -0.1057 B(  0-C , 15-H ) :   1.4353 B(  1-C ,  2-C ) :   1.3174 
B(  1-C , 14-H ) :   0.5028 B(  2-C ,  3-C ) :   1.2530 B(  2-C ,  5-C ) :  -0.1533 
B(  2-C ,  6-C ) :   0.1440 B(  2-C , 12-H ) :   0.1112 B(  2-C , 13-H ) :   0.6030 
B(  3-C ,  4-C ) :   1.5216 B(  3-C , 12-H ) :   0.5345 B(  4-C ,  5-C ) :   0.6277 
B(  4-C ,  6-C ) :   0.1597 B(  4-C , 11-H ) :   1.0980 B(  5-C ,  6-C ) :   0.5492 
B(  5-C , 12-H ) :   0.1118 B(  5-C , 14-H ) :   0.1130 B(  6-C ,  7-N ) :   0.5205 
B(  6-C , 10-H ) :   0.6788 B(  6-C , 15-H ) :  -0.1389 B(  7-N ,  8-O ) :   0.7164 
B(  8-O ,  9-H ) :   0.9621 B( 11-H , 15-H ) :   0.1012 

-------
TIMINGS
-------

Total SCF time: 0 days 0 hours 5 min 15 sec 

Total time                  ....     315.056 sec
Sum of individual times     ....     314.375 sec  ( 99.8%)

SCF preparation             ....       1.159 sec  (  0.4%)
Fock matrix formation       ....     299.624 sec  ( 95.1%)
  Startup                   ....       1.405 sec  (  0.5% of F)
  Split-RI-J                ....      12.237 sec  (  4.1% of F)
  Chain of spheres X        ....     154.135 sec  ( 51.4% of F)
  XC integration            ....     123.270 sec  ( 41.1% of F)
    XC Preparation          ....       0.000 sec  (  0.0% of XC)
    Basis function eval.    ....       7.049 sec  (  5.7% of XC)
    Density eval.           ....      37.868 sec  ( 30.7% of XC)
    XC-Functional eval.     ....       1.216 sec  (  1.0% of XC)
    XC-Potential eval.      ....      73.973 sec  ( 60.0% of XC)
  CPCM terms                ....       5.090 sec  (  1.7% of F)
Diagonalization             ....       0.000 sec  (  0.0%)
Density matrix formation    ....       3.015 sec  (  1.0%)
Total Energy calculation    ....       1.346 sec  (  0.4%)
Population analysis         ....       0.406 sec  (  0.1%)
Orbital Transformation      ....       0.937 sec  (  0.3%)
Orbital Orthonormalization  ....       0.000 sec  (  0.0%)
DIIS solution               ....       5.476 sec  (  1.7%)
SOSCF solution              ....       2.412 sec  (  0.8%)
Finished LeanSCF after 315.3 sec

Maximum memory used throughout the entire LEANSCF-calculation: 87.0 MB


-------------------------------------------------------------------------------
                          DFT DISPERSION CORRECTION                            
                                                                               
                              DFTD3 V3.1  Rev 1                                
                          USING Becke-Johnson damping                          
-------------------------------------------------------------------------------
The TPSSH functional is recognized
Active option DFTDOPT                   ...         4   

molecular C6(AA) [au] = 3025.262318 


            DFT-D V3
 parameters
 s6 scaling factor         :     1.0000 
 a1 scaling factor         :     0.4529 
 s8 scaling factor         :     2.2382 
 a2 scaling factor         :     4.6550 
 ad hoc parameters k1-k3   :    16.0000     1.3333    -4.0000 

 Edisp/kcal,au: -11.626005099522  -0.018527216464 
 E6   /kcal   :  -5.505828958 
 E8   /kcal   :  -6.120176141 
 % E8         :  52.642125037 

-------------------------   ----------------
Dispersion correction           -0.018527216
-------------------------   ----------------


-------------------------   --------------------
FINAL SINGLE POINT ENERGY      -400.852005576870
-------------------------   --------------------



           ************************************************************
           *        Program running with 4 parallel MPI-processes     *
           *              working on a common directory               *
           ************************************************************

------------------------------------------------------------------------------
                              ORCA PROPERTY CALCULATIONS
------------------------------------------------------------------------------

GBWName                                 ... cs_rporg_140_ox_solv_01.gbw
Number of atoms                         ...     16
Number of basis functions               ...    629
Max core memory                         ...   3000 MB

Electric properties:
Dipole moment                           ... YES
Quadrupole moment                       ...  NO
Static polarizability (Dipole/Dipole)   ...  NO
Static polarizability (Dipole/Quad.)    ...  NO
Static polarizability (Quad./Quad.)     ...  NO
Static polarizability (Velocity)        ...  NO

Atomic electric properties:
Dipole moment                           ...  NO
Quadrupole moment                       ...  NO
Static polarizability                   ...  NO

Choice of electric origin               ... Center of mass
Position of electric origin             ...     0.014956     0.006418     0.000030

General magnetic properties:
Magnetizability                         ...  NO

EPR properties:
g-Tensor (aka g-matrix)                 ...  NO
Zero-Field splitting spin-orbit         ...  NO
Zero-field splitting spin-spin          ...  NO
Hyperfine couplings                     ...  NO (   0 nuclei)
Quadrupole couplings                    ...  NO (   0 nuclei)
Contact density                         ...  NO (   0 nuclei)

NMR properties:
Chemical shifts                         ...  NO (   0 nuclei)
Spin-rotation constants                 ...  NO (   0 nuclei)
Spin-spin couplings                     ...  NO (   0 nuclei,    0 pairs)

Choice of magnetic origin               ... GIAO
Position of magnetic origin             ...     0.000000     0.000000     0.000000

Properties with geometric perturbations:
SCF Hessian                             ...  NO
IR spectrum                             ...  NO
VCD spectrum                            ...  NO
X-ray spectroscopy properties:
SCF XES/XAS/RIXS spectra                ...  NO


-------------
DIPOLE MOMENT
-------------

Method             : SCF
Type of density    : Electron Density
Multiplicity       :   2
Irrep              :   0
Energy             :  -400.8334783604059908 Eh
Relativity type    : 
Basis              : AO
                                X                 Y                 Z
Electronic contribution:     -3.484738160       0.169084555       0.000433460
Nuclear contribution   :      3.309117951      -0.259125904      -0.000059906
                        -----------------------------------------
Total Dipole Moment    :     -0.175620209      -0.090041349       0.000373554
                        -----------------------------------------
Magnitude (a.u.)       :      0.197357650
Magnitude (Debye)      :      0.501643280



--------------------
Rotational spectrum 
--------------------
 
Rotational constants in cm-1:             0.166470             0.031016             0.026145 
Rotational constants in MHz :          4990.645062           929.841763           783.805511 

Dipole components along the rotational axes: 
x,y,z [a.u.] :    -0.175130     0.090992     0.000372 
x,y,z [Debye]:    -0.445144     0.231282     0.000946 

 

Dipole moment calculation done in   0.0 sec 

Maximum memory used throughout the entire PROP-calculation: 48.9 MB

--------------------------------
SUGGESTED CITATIONS FOR THIS RUN
--------------------------------

Below you find a list of papers that are relevant to this ORCA run
We neither can nor want to force you to cite these papers, but we appreciate if you do
You receive ORCA, which is the product of decades of hard work by many enthusiastic individuals, for free
The only thing we kindly ask in return is that you cite our papers,
We deeply appreciate it, if you show your appreciation for ORCA by not just citing the generic ORCA reference.

Please note that relegating all ORCA citations to the supporting information does *not* help us.
SI sections are not indexed - citations you put there will not count into any citation statistics
But we need these citations in order to attract the funding resources that allow us to do what we are doing

Therefore, if you are a happy ORCA user, please consider citing a few of the papers listed below in the main body of your paper

In addition to the list printed below, the program has created the file cs_rporg_140_ox_solv_01.bibtex that contains the list in bibtex format
You can import this file easily into all common literature databanks and citation aid programs


List of essential papers. We consider these as the minimum necessary citations

  1. Neese,F.
     Software update: the ORCA program system, version 5.0
     WIRES Comput. Molec. Sci., 2022 12(1)e1606
     doi.org/10.1002/wcms.1606

List of papers to cite with high priority. The work reported in these papers was absolutely
necessary for this run to complete.
Our perspective: the developers of density functionals and basis sets usually get cited in chemistry papers
Good! But without the algorithms to do something with them, the functionals or basis sets would not do anything.
Hence, in our opinion, the algorithm design and method developments papers are equally worthy of getting cited

  1. Neese,F.
     An improvement of the resolution of the identity approximation for the formation of the Coulomb matrix
     J. Comp. Chem., 2003 24(14)1740-1747
     doi.org/10.1002/jcc.10318
  2. Neese,F.; Wennmohs,F.; Hansen,A.; Becker,U.
     Efficient, approximate and parallel Hartree-Fock and hybrid DFT calculations. A 'chain-of-spheres' algorithm for the Hartree-Fock exchange
     Chem. Phys., 2009 356(1-3)98-109
     doi.org/10.1016/j.chemphys.2008.10.036
  3. Garcia-Rates,M.; Neese,F.
     Effect of the Solute Cavity on the Solvation Energy and its Derivatives within the Framework of the Gaussian Charge Scheme
     J. Comput. Chem., 2020 41 922-939
     doi.org/10.1002/jcc.26139
  4. Helmich-Paris,B.; de Souza,B.; Neese,F.; Izsák,R.
     An improved chain of spheres for exchange algorithm
     J. Chem. Phys., 2021 155 104109
     doi.org/doi: 10.1063/5.0058766.
  5. Neese,F.
     The SHARK Integral Generation and Digestion System
     J. Comp. Chem., 2022  1-16
     doi.org/10.1002/jcc.26942
  6. Grimme,S.; Antony,J.; Ehrlich,S.; Krieg,H.
     A consistent and accurate ab initio parametrization of density functional dispersion correction (DFT-D) for the 94 elements H-Pu
     J. Chem. Phys., 2010 132 154104-XXXX
     doi.org/10.1063/1.3382344
  7. Grimme,S.; Ehrlich,S.; Goerigk,L.
     Effect of the damping function in dispersion corrected density functional theory
     J. Comput. Chem., 2011 32(7)1456-1465
     doi.org/10.1002/jcc.21759

List of suggested additional citations. These are papers that are important in the 'surrounding' of 
of this run, or papers that preceded the highly important papers. If you like your results we are grateful for a citation.

  1. Izsak,R.; Neese,F.
     An overlap fitted chain of spheres exchange method
     J. Chem. Phys., 2011 135 144105
     doi.org/10.1063/1.3646921
  2. Izsak,R.; Hansen,A.; Neese,F.
     The resolution of identity and chain of spheres approximations for the LPNO-CCSD singles Fock term
     Molec. Phys., 2012 110 2413-2417
     doi.org/10.1080/00268976.2012.687466
  3. Neese,F.
     The ORCA program system
     WIRES Comput. Molec. Sci., 2012 2(1)73-78
     doi.org/10.1002/wcms.81
  4. Izsak,R.; Neese,F.; Klopper,W.
     Robust fitting techniques in the chain of spheres approximation to the Fock exchange: The role of the complementary space
     J. Chem. Phys., 2013 139 
     doi.org/10.1063/1.4819264
  5. Neese,F.
     Software update: the ORCA program system, version 4.0
     WIRES Comput. Molec. Sci., 2018 8(1)1-6
     doi.org/10.1002/wcms.1327
  6. Neese,F.; Wennmohs,F.; Becker,U.; Riplinger,C.
     The ORCA quantum chemistry program package
     J. Chem. Phys., 2020 152 Art. No. L224108
     doi.org/10.1063/5.0004608

List of optional additional citations

  1. Neese,F.
     Approximate second-order SCF convergence for spin unrestricted wavefunctions
     Chem. Phys. Lett., 2000 325(1-3)93-98
     doi.org/10.1016/s0009-2614(00)00662-x

Timings for individual modules:

Sum of individual times          ...      332.682 sec (=   5.545 min)
Startup calculation              ...       10.026 sec (=   0.167 min)   3.0 %
SCF iterations                   ...      320.777 sec (=   5.346 min)  96.4 %
Property calculations            ...        1.879 sec (=   0.031 min)   0.6 %
                             ****ORCA TERMINATED NORMALLY****
TOTAL RUN TIME: 0 days 0 hours 5 minutes 35 seconds 194 msec
