
                                 *****************
                                 * O   R   C   A *
                                 *****************

                                            #,                                       
                                            ###                                      
                                            ####                                     
                                            #####                                    
                                            ######                                   
                                           ########,                                 
                                     ,,################,,,,,                         
                               ,,#################################,,                 
                          ,,##########################################,,             
                       ,#########################################, ''#####,          
                    ,#############################################,,   '####,        
                  ,##################################################,,,,####,       
                ,###########''''           ''''###############################       
              ,#####''   ,,,,##########,,,,          '''####'''          '####       
            ,##' ,,,,###########################,,,                        '##       
           ' ,,###''''                  '''############,,,                           
         ,,##''                                '''############,,,,        ,,,,,,###''
      ,#''                                            '''#######################'''  
     '                                                          ''''####''''         
             ,#######,   #######,   ,#######,      ##                                
            ,#'     '#,  ##    ##  ,#'     '#,    #''#        ,####,   ,####,        
            ##       ##  ##   ,#'  ##            #'  '#       #'       #'  '#        
            ##       ##  #######   ##           ,######,      #####,   #    #        
            '#,     ,#'  ##    ##  '#,     ,#' ,#      #,     #,   #   #,  ,#        
             '#######'   ##     ##  '#######'  #'      '#     '####' # '####'        



                #########################################################
                #                        -***-                          #
                #          Department of theory and spectroscopy        #
                #                                                       #
                #                      Frank Neese                      #
                #                                                       #
                #     Directorship, Architecture, Infrastructure        #
                #                    SHARK, DRIVERS                     #
                #        Core code/Algorithms in most modules           #
                #                                                       #
                #        Max Planck Institute fuer Kohlenforschung      #
                #                Kaiser Wilhelm Platz 1                 #
                #                 D-45470 Muelheim/Ruhr                 #
                #                      Germany                          #
                #                                                       #
                #                  All rights reserved                  #
                #                        -***-                          #
                #########################################################


                         Program Version 6.0.0  -   RELEASE  -


 With contributions from (in alphabetic order):
   Daniel Aravena         : Magnetic Suceptibility
   Michael Atanasov       : Ab Initio Ligand Field Theory (pilot matlab implementation)
   Alexander A. Auer      : GIAO ZORA, VPT2 properties, NMR spectrum
   Ute Becker             : All parallelization in ORCA, NUMFREQ, NUMCALC
   Giovanni Bistoni       : ED, misc. LED, open-shell LED, HFLD
   Martin Brehm           : Molecular dynamics
   Dmytro Bykov           : pre 5.0 version of the SCF Hessian
   Marcos Casanova-Páez   : Triplet and SCS-CIS(D). UHF-(DLPNO)-IP/EA/STEOM-CCSD. UHF-CVS-IP/STEOM-CCSD
   Vijay G. Chilkuri      : MRCI spin determinant printing, contributions to CSF-ICE
   Pauline Colinet        : FMM embedding
   Dipayan Datta          : RHF DLPNO-CCSD density
   Achintya Kumar Dutta   : EOM-CC, STEOM-CC
   Nicolas Foglia         : Exact transition moments, OPA infrastructure, MCD improvements
   Dmitry Ganyushin       : Spin-Orbit,Spin-Spin,Magnetic field MRCI
   Miquel Garcia          : C-PCM and meta-GGA Hessian, CCSD/C-PCM, Gaussian charge scheme
   Tiago L. C. Gouveia    : GS-ROHF, GS-ROCIS
   Yang Guo               : DLPNO-NEVPT2, F12-NEVPT2, CIM, IAO-localization
   Andreas Hansen         : Spin unrestricted coupled pair/coupled cluster methods
   Ingolf Harden          : AUTO-CI MPn and infrastructure 
   Benjamin Helmich-Paris : MC-RPA, TRAH-(SCF,CASSCF), AVAS, COSX integrals, SCF dyn. polar.
   Lee Huntington         : MR-EOM, pCC
   Robert Izsak           : Overlap fitted RIJCOSX, COSX-SCS-MP3, EOM
   Riya Kayal             : Wick's Theorem for AUTO-CI, AUTO-CI UHF-CCSDT
   Emily Kempfer          : AUTO-CI, RHF CISDT and CCSDT
   Christian Kollmar      : KDIIS, OOCD, Brueckner-CCSD(T), CCSD density, CASPT2, CASPT2-K, improved NEVPT2
   Axel Koslowski         : Symmetry handling
   Simone Kossmann        : Meta GGA functionals, TD-DFT gradient, OOMP2, (MP2 Hessian; deprecated post 5.0)
   Lucas Lang             : DCDCAS
   Marvin Lechner         : AUTO-CI (C++ implementation), FIC-MRCC
   Spencer Leger          : CASSCF response
   Dagmar Lenk            : GEPOL surface, SMD, ORCA-2-JSON
   Dimitrios Liakos       : Extrapolation schemes; Compound Job, initial MDCI parallelization
   Dimitrios Manganas     : Further ROCIS development; embedding schemes. LFT, Crystal Embedding
   Dimitrios Pantazis     : SARC Basis sets
   Anastasios Papadopoulos: AUTO-CI, single reference methods and gradients
   Taras Petrenko         : pre 6.0 DFT Hessian and TD-DFT gradient, (ASA, deprecated), ECA, 1-Electron XAS/XES, NRVS
   Peter Pinski           : DLPNO-MP2, DLPNO-MP2 Gradient
   Christoph Reimann      : Effective Core Potentials
   Marius Retegan         : Local ZFS, SOC
   Christoph Riplinger    : Optimizer, TS searches, QM/MM, DLPNO-CCSD(T), (RO)-DLPNO pert. Triples
   Michael Roemelt        : Original ROCIS implementation
   Masaaki Saitow         : Open-shell DLPNO-CCSD energy and density
   Barbara Sandhoefer     : DKH picture change effects
   Kantharuban Sivalingam : CASSCF convergence/infrastructure, NEVPT2 and variants, FIC-MRCI
   Bernardo de Souza      : ESD, SOC TD-DFT
   Georgi Stoychev        : AutoAux, RI-MP2 NMR, DLPNO-MP2 response, X2C
   Van Anh Tran           : RI-MP2 g-tensors
   Willem Van den Heuvel  : Paramagnetic NMR
   Zikuan Wang            : NOTCH, Electric field optimization 
   Frank Wennmohs         : Technical directorship and infrastructure
   Hang Xu                : AUTO-CI-Response properties 


 We gratefully acknowledge several colleagues who have allowed us to
 interface, adapt or use parts of their codes:
   Stefan Grimme, W. Hujo, H. Kruse, P. Pracht,  : VdW corrections, initial TS optimization,
                  C. Bannwarth, S. Ehlert,         DFT functionals, gCP, sTDA/sTD-DF
                  L. Wittmann, M. Mueller
   Ed Valeev, F. Pavosevic, A. Kumar             : LibInt (2-el integral package), F12 methods
   Garnet Chan, S. Sharma, J. Yang, R. Olivares  : DMRG
   Ulf Ekstrom                                   : XCFun DFT Library
   Mihaly Kallay                                 : mrcc  (arbitrary order and MRCC methods)
   Frank Weinhold                                : gennbo (NPA and NBO analysis)
   Simon Mueller                                 : openCOSMO-RS
   Christopher J. Cramer and Donald G. Truhlar   : smd solvation model
   Lars Goerigk                                  : TD-DFT with DH, B97 family of functionals
   V. Asgeirsson, H. Jonsson                     : NEB implementation
   FAccTs GmbH                                   : IRC, NEB, NEB-TS, DLPNO-Multilevel, CI-OPT
                                                   MM, QMMM, 2- and 3-layer-ONIOM, Crystal-QMMM,
                                                   LR-CPCM, SF, NACMEs, symmetry and pop. for TD-DFT,
                                                   nearIR, NL-DFT gradient (VV10), updates on ESD,
                                                   ML-optimized integration grids, MBIS, APM,
                                                   GOAT, DOCKER, SOLVATOR, interface openCOSMO-RS
   S Lehtola, MJT Oliveira, MAL Marques          : LibXC Library
   Liviu Ungur et al                             : ANISO software


 Your calculation uses the libint2 library for the computation of 2-el integrals
 For citations please refer to: http://libint.valeyev.net

 Your ORCA version has been built with support for libXC version: 6.2.2
 For citations please refer to: https://libxc.gitlab.io

 This ORCA versions uses:
   CBLAS   interface :  Fast vector & matrix operations
   LAPACKE interface :  Fast linear algebra routines
   SCALAPACK package :  Parallel linear algebra routines
   Shared memory     :  Shared parallel matrices
   BLAS/LAPACK       :  OpenBLAS 0.3.27  USE64BITINT DYNAMIC_ARCH NO_AFFINITY SkylakeX SINGLE_THREADED
        Core in use  :  SkylakeX
   Copyright (c) 2011-2014, The OpenBLAS Project


NOTE: MaxCore=3000 MB was set to SCF,MP2,MDCI,CIPSI,MRCI and CIS
      => If you want to overwrite this, your respective input block should be placed after the MaxCore statement
Your calculation utilizes the atom-pairwise dispersion correction
with the Becke-Johnson damping scheme (D3BJ)


Warning: RI is on but no J-basis has been assigned. Assigning Def2/J (nothing to worry about!)
================================================================================

----- Orbital basis set information -----
Your calculation utilizes the basis: def2-SV(P)
   F. Weigend and R. Ahlrichs, Phys. Chem. Chem. Phys. 7, 3297 (2005).

----- AuxJ basis set information -----
Your calculation utilizes the auxiliary basis: def2/J
   F. Weigend, Phys. Chem. Chem. Phys. 8, 1057 (2006).

================================================================================
                                        WARNINGS
                       Please study these warnings very carefully!
================================================================================


WARNING: Geometry Optimization
  ===> : Switching off AutoStart
         For restart on a previous wavefunction, please use MOREAD

================================================================================
                                       INPUT FILE
================================================================================
NAME = cs_rporg_074_red_opt_01.inp
|  1> !PBE0 def2-SV(p) Opt Freq d3 TightSCF SlowConv RIJCOSX defgrid2
|  2>  
|  3> %pal
|  4> nprocs 4
|  5> end
|  6>  
|  7> %scf
|  8> MaxIter 1500
|  9> end
| 10>  
| 11> %maxcore 3000
| 12>  
| 13> 
| 14>  
| 15> * xyz 0 1
| 16> C    -1.4647708    0.0000363    0.2428003 
| 17> C    -0.7246445   -1.2447692   -0.2389684 
| 18> C     0.7273306   -1.1993298    0.2329732 
| 19> N     1.3602635   -0.0000363   -0.2860153 
| 20> H     2.3478521   -0.0000611   -0.0531922 
| 21> C     0.7273914    1.1992909    0.2329696 
| 22> C    -0.7245814    1.2448027   -0.2389722 
| 23> H    -1.2056892    2.1483633    0.1394953 
| 24> H    -0.7362531    1.2737377   -1.3293095 
| 25> H     1.2734101    2.0675715   -0.1452733 
| 26> H     0.7470402    1.2348181    1.3394904 
| 27> H     1.2733050   -2.0676393   -0.1452676 
| 28> H     0.7469779   -1.2348551    1.3394940 
| 29> H    -1.2057981   -2.1483042    0.1395020 
| 30> H    -0.7363178   -1.2737072   -1.3293056 
| 31> H    -2.4898348    0.0000618   -0.1326105 
| 32> H    -1.5046662    0.0000391    1.3355520
| 33> *
| 34> 
| 35>                          ****END OF INPUT****
================================================================================

                       *****************************
                       * Geometry Optimization Run *
                       *****************************

Geometry optimization settings:
Update method            Update   .... BFGS
Choice of coordinates    CoordSys .... (2022) Redundant Internals
Initial Hessian          InHess   .... Almloef's Model
Max. no of cycles        MaxIter  .... 51

Convergence Tolerances:
Energy Change            TolE     ....  5.0000e-06 Eh
Max. Gradient            TolMAXG  ....  3.0000e-04 Eh/bohr
RMS Gradient             TolRMSG  ....  1.0000e-04 Eh/bohr
Max. Displacement        TolMAXD  ....  4.0000e-03 bohr
RMS Displacement         TolRMSD  ....  2.0000e-03 bohr
Strict Convergence                .... False

------------------------------------------------------------------------------
                        ORCA OPTIMIZATION COORDINATE SETUP
------------------------------------------------------------------------------

The optimization will be done in redundant internal coordinates (2022)
Making redundant internal coordinates   ...  (2022 redundants) done
Evaluating the initial hessian          ...  (Almloef) done
Evaluating the coordinates              ...  done
Calculating the B-matrix                .... done
Calculating the G-matrix                .... done
Diagonalizing the G-matrix              .... done
The first mode is                       ....   39
The number of degrees of freedom        ....   45

    -----------------------------------------------------------------
                    Redundant Internal Coordinates


    -----------------------------------------------------------------
         Definition                    Initial Value    Approx d2E/dq
    -----------------------------------------------------------------
      1. B(C   1,C   0)                  1.5262         0.378761   
      2. B(C   2,C   1)                  1.5274         0.377126   
      3. B(N   3,C   2)                  1.4520         0.445640   
      4. B(H   4,N   3)                  1.0147         0.425361   
      5. B(C   5,N   3)                  1.4520         0.445639   
      6. B(C   6,C   5)                  1.5274         0.377126   
      7. B(C   6,C   0)                  1.5262         0.378762   
      8. B(H   7,C   6)                  1.0914         0.358271   
      9. B(H   8,C   6)                  1.0908         0.359065   
     10. B(H   9,C   5)                  1.0932         0.355874   
     11. B(H  10,C   5)                  1.1073         0.337969   
     12. B(H  11,C   2)                  1.0932         0.355874   
     13. B(H  12,C   2)                  1.1073         0.337969   
     14. B(H  13,C   1)                  1.0914         0.358271   
     15. B(H  14,C   1)                  1.0908         0.359065   
     16. B(H  15,C   0)                  1.0916         0.357930   
     17. B(H  16,C   0)                  1.0935         0.355526   
     18. A(C   6,C   0,H  15)          110.2931         0.324732   
     19. A(C   1,C   0,C   6)          109.2908         0.365069   
     20. A(C   6,C   0,H  16)          109.4595         0.324372   
     21. A(C   1,C   0,H  16)          109.4595         0.324372   
     22. A(C   1,C   0,H  15)          110.2931         0.324732   
     23. A(H  15,C   0,H  16)          108.0234         0.289981   
     24. A(H  13,C   1,H  14)          108.6603         0.290476   
     25. A(C   0,C   1,H  14)          109.3887         0.324901   
     26. A(C   0,C   1,H  13)          110.6075         0.324782   
     27. A(C   0,C   1,C   2)          109.8272         0.364799   
     28. A(C   2,C   1,H  14)          108.6517         0.324670   
     29. A(C   2,C   1,H  13)          109.6680         0.324552   
     30. A(H  11,C   2,H  12)          108.1444         0.287432   
     31. A(N   3,C   2,H  12)          112.0836         0.328427   
     32. A(C   1,C   2,H  12)          108.9464         0.321462   
     33. A(N   3,C   2,H  11)          108.3411         0.331240   
     34. A(C   1,C   2,H  11)          110.1342         0.324194   
     35. A(C   1,C   2,N   3)          109.1783         0.372784   
     36. A(C   2,N   3,H   4)          110.0135         0.338281   
     37. A(H   4,N   3,C   5)          110.0135         0.338281   
     38. A(C   2,N   3,C   5)          111.3760         0.381286   
     39. A(C   6,C   5,H   9)          110.1342         0.324194   
     40. A(N   3,C   5,H   9)          108.3411         0.331240   
     41. A(N   3,C   5,C   6)          109.1783         0.372784   
     42. A(H   9,C   5,H  10)          108.1444         0.287432   
     43. A(C   6,C   5,H  10)          108.9464         0.321462   
     44. A(N   3,C   5,H  10)          112.0836         0.328427   
     45. A(H   7,C   6,H   8)          108.6603         0.290476   
     46. A(C   5,C   6,H   8)          108.6517         0.324670   
     47. A(C   0,C   6,H   8)          109.3887         0.324901   
     48. A(C   5,C   6,H   7)          109.6680         0.324552   
     49. A(C   0,C   6,H   7)          110.6075         0.324782   
     50. A(C   0,C   6,C   5)          109.8272         0.364799   
     51. D(H  13,C   1,C   0,H  15)    -61.6585         0.011438   
     52. D(H  13,C   1,C   0,C   6)    176.9290         0.011438   
     53. D(C   2,C   1,C   0,H  15)    177.1558         0.011438   
     54. D(C   2,C   1,C   0,C   6)     55.7433         0.011438   
     55. D(H  13,C   1,C   0,H  16)     57.0607         0.011438   
     56. D(C   2,C   1,C   0,H  16)    -64.1251         0.011438   
     57. D(N   3,C   2,C   1,C   0)    -58.7548         0.011344   
     58. D(H  11,C   2,C   1,H  14)    -57.9805         0.011344   
     59. D(H  11,C   2,C   1,C   0)   -177.5948         0.011344   
     60. D(N   3,C   2,C   1,H  14)     60.8595         0.011344   
     61. D(H  11,C   2,C   1,H  13)     60.6565         0.011344   
     62. D(N   3,C   2,C   1,H  13)    179.4965         0.011344   
     63. D(H   4,N   3,C   2,H  12)     64.4702         0.016938   
     64. D(H   4,N   3,C   2,C   1)   -174.7263         0.016938   
     65. D(H   4,N   3,C   2,H  11)    -54.7755         0.016938   
     66. D(C   5,N   3,C   2,H  11)   -177.0321         0.016938   
     67. D(C   5,N   3,C   2,C   1)     63.0171         0.016938   
     68. D(H  10,C   5,N   3,C   2)     57.7863         0.016938   
     69. D(H   9,C   5,N   3,H   4)     54.7755         0.016938   
     70. D(H   9,C   5,N   3,C   2)    177.0321         0.016938   
     71. D(C   6,C   5,N   3,H   4)    174.7263         0.016938   
     72. D(C   6,C   5,N   3,C   2)    -63.0171         0.016938   
     73. D(C   0,C   6,C   5,H   9)    177.5948         0.011344   
     74. D(C   0,C   6,C   5,N   3)     58.7548         0.011344   
     75. D(H   7,C   6,C   0,H  16)    -57.0607         0.011438   
     76. D(H   7,C   6,C   0,H  15)     61.6585         0.011438   
     77. D(H   7,C   6,C   0,C   1)   -176.9290         0.011438   
     78. D(C   5,C   6,C   0,H  16)     64.1251         0.011438   
     79. D(C   5,C   6,C   0,H  15)   -177.1558         0.011438   
     80. D(C   0,C   6,C   5,H  10)    -63.9458         0.011344   
     81. D(C   5,C   6,C   0,C   1)    -55.7433         0.011438   
     82. D(H   7,C   6,C   5,H  10)     57.8030         0.011344   
     83. D(H   7,C   6,C   5,H   9)    -60.6565         0.011344   
     84. D(H   7,C   6,C   5,N   3)   -179.4965         0.011344   
    -----------------------------------------------------------------

Number of atoms                         .... 17
Number of degrees of freedom            .... 84


         *************************************************************
         *                GEOMETRY OPTIMIZATION CYCLE   1            *
         *************************************************************
---------------------------------
CARTESIAN COORDINATES (ANGSTROEM)
---------------------------------
  C     -1.464771    0.000036    0.242800
  C     -0.724645   -1.244769   -0.238968
  C      0.727331   -1.199330    0.232973
  N      1.360263   -0.000036   -0.286015
  H      2.347852   -0.000061   -0.053192
  C      0.727391    1.199291    0.232970
  C     -0.724581    1.244803   -0.238972
  H     -1.205689    2.148363    0.139495
  H     -0.736253    1.273738   -1.329309
  H      1.273410    2.067572   -0.145273
  H      0.747040    1.234818    1.339490
  H      1.273305   -2.067639   -0.145268
  H      0.746978   -1.234855    1.339494
  H     -1.205798   -2.148304    0.139502
  H     -0.736318   -1.273707   -1.329306
  H     -2.489835    0.000062   -0.132610
  H     -1.504666    0.000039    1.335552

----------------------------
CARTESIAN COORDINATES (A.U.)
----------------------------
  NO LB      ZA    FRAG     MASS         X           Y           Z
   0 C     6.0000    0    12.011   -2.768016    0.000069    0.458826
   1 C     6.0000    0    12.011   -1.369380   -2.352273   -0.451585
   2 C     6.0000    0    12.011    1.374456   -2.266405    0.440256
   3 N     7.0000    0    14.007    2.570525   -0.000069   -0.540491
   4 H     1.0000    0     1.008    4.436797   -0.000115   -0.100519
   5 C     6.0000    0    12.011    1.374571    2.266331    0.440249
   6 C     6.0000    0    12.011   -1.369260    2.352336   -0.451592
   7 H     1.0000    0     1.008   -2.278422    4.059818    0.263608
   8 H     1.0000    0     1.008   -1.391317    2.407015   -2.512031
   9 H     1.0000    0     1.008    2.406396    3.907144   -0.274527
  10 H     1.0000    0     1.008    1.411701    2.333468    2.531270
  11 H     1.0000    0     1.008    2.406198   -3.907272   -0.274516
  12 H     1.0000    0     1.008    1.411584   -2.333538    2.531277
  13 H     1.0000    0     1.008   -2.278628   -4.059707    0.263621
  14 H     1.0000    0     1.008   -1.391439   -2.406958   -2.512024
  15 H     1.0000    0     1.008   -4.705106    0.000117   -0.250598
  16 H     1.0000    0     1.008   -2.843407    0.000074    2.523828

--------------------------------
INTERNAL COORDINATES (ANGSTROEM)
--------------------------------
 C      0   0   0     0.000000000000     0.00000000     0.00000000
 C      1   0   0     1.526246622627     0.00000000     0.00000000
 C      2   1   0     1.527424402025   109.82717665     0.00000000
 N      3   2   1     1.451984165953   109.17829635   301.24519380
 H      4   3   2     1.014661440757   110.01350252   185.27371597
 C      4   3   2     1.451984212740   111.37601178    63.01712154
 C      1   2   3     1.526246533230   109.29077003    55.74326220
 H      7   1   2     1.091386330155   110.60751329   183.07097243
 H      7   1   2     1.090783613086   109.38865852    63.41996764
 H      6   4   3     1.093213296885   108.34110394   177.03209051
 H      6   4   3     1.107265342235   112.08359377    57.78632154
 H      3   2   1     1.093213399127   110.13416570   182.40519830
 H      3   2   1     1.107265254657   108.94643091    63.94578190
 H      2   1   3     1.091386332466   110.60751064   121.18575869
 H      2   1   3     1.090783609833   109.38866566   240.83675696
 H      1   2   3     1.091645305721   110.29306955   177.15576581
 H      1   2   3     1.093479730403   109.45949968   295.87490392

---------------------------
INTERNAL COORDINATES (A.U.)
---------------------------
 C      0   0   0     0.000000000000     0.00000000     0.00000000
 C      1   0   0     2.884188129588     0.00000000     0.00000000
 C      2   1   0     2.886413810097   109.82717665     0.00000000
 N      3   2   1     2.743852424440   109.17829635   301.24519380
 H      4   3   2     1.917432241680   110.01350252   185.27371597
 C      4   3   2     2.743852512856   111.37601178    63.01712154
 C      1   2   3     2.884187960652   109.29077003    55.74326220
 H      7   1   2     2.062421270299   110.60751329   183.07097243
 H      7   1   2     2.061282300102   109.38865852    63.41996764
 H      6   4   3     2.065873737074   108.34110394   177.03209051
 H      6   4   3     2.092428254406   112.08359377    57.78632154
 H      3   2   1     2.065873930283   110.13416570   182.40519830
 H      3   2   1     2.092428088908   108.94643091    63.94578190
 H      2   1   3     2.062421274666   110.60751064   121.18575869
 H      2   1   3     2.061282293955   109.38866566   240.83675696
 H      1   2   3     2.062910663194   110.29306955   177.15576581
 H      1   2   3     2.066377223455   109.45949968   295.87490392

---------------------
BASIS SET INFORMATION
---------------------
There are 3 groups of distinct atoms

 Group   1 Type C   : 7s4p1d contracted to 3s2p1d pattern {511/31/1}
 Group   2 Type N   : 7s4p1d contracted to 3s2p1d pattern {511/31/1}
 Group   3 Type H   : 4s contracted to 2s pattern {31}

Atom   0C    basis set group =>   1
Atom   1C    basis set group =>   1
Atom   2C    basis set group =>   1
Atom   3N    basis set group =>   2
Atom   4H    basis set group =>   3
Atom   5C    basis set group =>   1
Atom   6C    basis set group =>   1
Atom   7H    basis set group =>   3
Atom   8H    basis set group =>   3
Atom   9H    basis set group =>   3
Atom  10H    basis set group =>   3
Atom  11H    basis set group =>   3
Atom  12H    basis set group =>   3
Atom  13H    basis set group =>   3
Atom  14H    basis set group =>   3
Atom  15H    basis set group =>   3
Atom  16H    basis set group =>   3
---------------------------------
AUXILIARY/J BASIS SET INFORMATION
---------------------------------
There are 3 groups of distinct atoms

 Group   1 Type C   : 12s5p4d2f1g contracted to 6s4p3d1f1g pattern {711111/2111/211/2/1}
 Group   2 Type N   : 12s5p4d2f1g contracted to 6s4p3d1f1g pattern {711111/2111/211/2/1}
 Group   3 Type H   : 5s2p1d contracted to 3s1p1d pattern {311/2/1}

Atom   0C    basis set group =>   1
Atom   1C    basis set group =>   1
Atom   2C    basis set group =>   1
Atom   3N    basis set group =>   2
Atom   4H    basis set group =>   3
Atom   5C    basis set group =>   1
Atom   6C    basis set group =>   1
Atom   7H    basis set group =>   3
Atom   8H    basis set group =>   3
Atom   9H    basis set group =>   3
Atom  10H    basis set group =>   3
Atom  11H    basis set group =>   3
Atom  12H    basis set group =>   3
Atom  13H    basis set group =>   3
Atom  14H    basis set group =>   3
Atom  15H    basis set group =>   3
Atom  16H    basis set group =>   3


           ************************************************************
           *        Program running with 4 parallel MPI-processes     *
           *              working on a common directory               *
           ************************************************************
------------------------------------------------------------------------------
                             ORCA STARTUP CALCULATIONS
                           -- RI-GTO INTEGRALS CHOSEN --
------------------------------------------------------------------------------
------------------------------------------------------------------------------
                   ___                                                        
                  /   \      - P O W E R E D   B Y -                         
                 /     \                                                     
                 |  |  |   _    _      __       _____    __    __             
                 |  |  |  | |  | |    /  \     |  _  \  |  |  /  |          
                  \  \/   | |  | |   /    \    | | | |  |  | /  /          
                 / \  \   | |__| |  /  /\  \   | |_| |  |  |/  /          
                |  |  |   |  __  | /  /__\  \  |    /   |      \           
                |  |  |   | |  | | |   __   |  |    \   |  |\   \          
                \     /   | |  | | |  |  |  |  | |\  \  |  | \   \       
                 \___/    |_|  |_| |__|  |__|  |_| \__\ |__|  \__/        
                                                                              
                      - O R C A' S   B I G   F R I E N D -                    
                                      &                                       
                       - I N T E G R A L  F E E D E R -                       
                                                                              
 v1 FN, 2020, v2 2021, v3 2022-2024                                           
------------------------------------------------------------------------------


----------------------
SHARK INTEGRAL PACKAGE
----------------------

Number of atoms                             ...     17
Number of basis functions                   ...    106
Number of shells                            ...     58
Maximum angular momentum                    ...      2
Integral batch strategy                     ... SHARK/LIBINT Hybrid
RI-J (if used) integral strategy            ... SPLIT-RIJ (Revised 2003 algorithm where possible)
Printlevel                                  ...      1
Contraction scheme used                     ... SEGMENTED contraction
Prescreening option                         ... SCHWARTZ
   Thresh                                   ... 2.500e-11
   Tcut                                     ... 2.500e-12
   Tpresel                                  ... 2.500e-12 
Coulomb Range Separation                    ... NOT USED
Exchange Range Separation                   ... NOT USED
Multipole approximations                    ... NOT USED
Finite Nucleus Model                        ... NOT USED
CABS basis                                  ... NOT available
Auxiliary Coulomb fitting basis             ... AVAILABLE
   # of basis functions in Aux-J            ...    415
   # of shells in Aux-J                     ...    145
   Maximum angular momentum in Aux-J        ...      4
Auxiliary J/K fitting basis                 ... NOT available
Auxiliary Correlation fitting basis         ... NOT available
Auxiliary 'external' fitting basis          ... NOT available

Checking pre-screening integrals            ... done (  0.0 sec) Dimension = 58
Check shell pair data                       ... done (  0.0 sec)
Shell pair information
Shell pair cut-off parameter TPreSel        ...   2.5e-12
Total number of shell pairs                 ...      1711
Shell pairs after pre-screening             ...      1702
Total number of primitive shell pairs       ...      6897
Primitive shell pairs kept                  ...      5354
          la=0 lb=0:    811 shell pairs
          la=1 lb=0:    480 shell pairs
          la=1 lb=1:     78 shell pairs
          la=2 lb=0:    240 shell pairs
          la=2 lb=1:     72 shell pairs
          la=2 lb=2:     21 shell pairs

Calculating one electron integrals          ... done (  0.0 sec)
Calculating RI/J V-Matrix + Cholesky decomp.... done (  0.1 sec)
Calculating Nuclear repulsion               ... done (  0.0 sec) ENN=    260.548068827200 Eh

Diagonalization of the overlap matrix:
Smallest eigenvalue                        ... 1.576e-03
Time for diagonalization                   ...    0.002 sec
Threshold for overlap eigenvalues          ... 1.000e-07
Number of eigenvalues below threshold      ... 0
Time for construction of square roots      ...    0.020 sec
Total time needed                          ...    0.061 sec

-------------------
DFT GRID GENERATION
-------------------

General Integration Accuracy     IntAcc      ... 4.388
Radial Grid Type                 RadialGrid  ... OptM3 with GC (2021)
Angular Grid (max. ang.)         AngularGrid ... 4 (Lebedev-302)
Angular grid pruning method      GridPruning ... 4 (adaptive)
Weight generation scheme         WeightScheme... mBecke (2022)
Basis function cutoff            BFCut       ... 1.0000e-11
Integration weight cutoff        WCut        ... 1.0000e-14
Partially contracted basis set               ... off
Rotationally invariant grid construction     ... off
Angular grids for H and He will be reduced by one unit

Total number of grid points                  ...    71079
Total number of batches                      ...     1117
Average number of points per batch           ...       63
Average number of grid points per atom       ...     4181

--------------------
COSX GRID GENERATION
--------------------

GRIDX 1
-------
General Integration Accuracy     IntAcc      ... 3.816
Radial Grid Type                 RadialGrid  ... OptM3 with GC (2021)
Angular Grid (max. ang.)         AngularGrid ... 1 (Lebedev-50)
Angular grid pruning method      GridPruning ... 4 (adaptive)
Weight generation scheme         WeightScheme... mBecke (2022)
Basis function cutoff            BFCut       ... 1.0000e-11
Integration weight cutoff        WCut        ... 1.0000e-14
Partially contracted basis set               ... on
Rotationally invariant grid construction     ... off
Angular grids for H and He will be reduced by one unit

Total number of grid points                  ...     9099
Total number of batches                      ...       86
Average number of points per batch           ...      105
Average number of grid points per atom       ...      535
UseSFitting                                  ... on

GRIDX 2
-------
General Integration Accuracy     IntAcc      ... 4.020
Radial Grid Type                 RadialGrid  ... OptM3 with GC (2021)
Angular Grid (max. ang.)         AngularGrid ... 2 (Lebedev-110)
Angular grid pruning method      GridPruning ... 4 (adaptive)
Weight generation scheme         WeightScheme... mBecke (2022)
Basis function cutoff            BFCut       ... 1.0000e-11
Integration weight cutoff        WCut        ... 1.0000e-14
Partially contracted basis set               ... on
Rotationally invariant grid construction     ... off
Angular grids for H and He will be reduced by one unit

Total number of grid points                  ...    18959
Total number of batches                      ...      155
Average number of points per batch           ...      122
Average number of grid points per atom       ...     1115
UseSFitting                                  ... on

GRIDX 3
-------
General Integration Accuracy     IntAcc      ... 4.338
Radial Grid Type                 RadialGrid  ... OptM3 with GC (2021)
Angular Grid (max. ang.)         AngularGrid ... 3 (Lebedev-194)
Angular grid pruning method      GridPruning ... 4 (adaptive)
Weight generation scheme         WeightScheme... mBecke (2022)
Basis function cutoff            BFCut       ... 1.0000e-11
Integration weight cutoff        WCut        ... 1.0000e-14
Partially contracted basis set               ... on
Rotationally invariant grid construction     ... off
Angular grids for H and He will be reduced by one unit

Total number of grid points                  ...    41428
Total number of batches                      ...      333
Average number of points per batch           ...      124
Average number of grid points per atom       ...     2437
UseSFitting                                  ... on
Initializing property integral containers    ... done (  0.1 sec)

SHARK setup successfully completed in   2.4 seconds

Maximum memory used throughout the entire STARTUP-calculation: 18.9 MB


           ************************************************************
           *        Program running with 4 parallel MPI-processes     *
           *              working on a common directory               *
           ************************************************************
-------------------------------------------------------------------------------
                                 ORCA GUESS
                   Start orbitals & Density for SCF / CASSCF
-------------------------------------------------------------------------------

------------
SCF SETTINGS
------------
Hamiltonian:
 Density Functional     Method          .... DFT(GTOs)
 Exchange Functional    Exchange        .... PBE
   PBE kappa parameter   XKappa         ....  0.804000
   PBE mue parameter    XMuePBE         ....  0.219520
 Correlation Functional Correlation     .... PBE
   PBE beta parameter  CBetaPBE         ....  0.066725
 LDA part of GGA corr.  LDAOpt          .... PW91-LDA
 Gradients option       PostSCFGGA      .... off
 Hybrid DFT is turned on
   Fraction HF Exchange ScalHFX         ....  0.250000
   Scaling of DF-GGA-X  ScalDFX         ....  0.750000
   Scaling of DF-GGA-C  ScalDFC         ....  1.000000
   Scaling of DF-LDA-C  ScalLDAC        ....  1.000000
   Perturbative correction              ....  0.000000
   NL short-range parameter             ....  6.900000
 RI-approximation to the Coulomb term is turned on
   Number of AuxJ basis functions       .... 415
   RIJ-COSX (HFX calculated with COS-X)).... on


General Settings:
 Integral files         IntName         .... cs_rporg_074_red_opt_01
 Hartree-Fock type      HFTyp           .... RHF
 Total Charge           Charge          ....    0
 Multiplicity           Mult            ....    1
 Number of Electrons    NEL             ....   48
 Basis Dimension        Dim             ....  106
 Nuclear Repulsion      ENuc            ....    260.5480688272 Eh

Convergence Acceleration:
 AO-DIIS                CNVDIIS         .... on
   Start iteration      DIISMaxIt       ....     0
   Startup error        DIISStart       ....  0.200000
   # of expansion vecs  DIISMaxEq       ....     5
   Bias factor          DIISBfac        ....   1.050
   Max. coefficient     DIISMaxC        ....  10.000
 MO-DIIS                CNVKDIIS        .... off
 Trust-Rad. Augm. Hess. CNVTRAH         .... auto
   Auto Start mean grad. ratio tolernc. ....  1.125000
   Auto Start start iteration           ....    50
   Auto Start num. interpolation iter.  ....    10
   Max. Number of Micro iterations      ....    24
   Max. Number of Macro iterations      .... Maxiter - #DIIS iter
   Number of Davidson start vectors     ....     2
   Converg. threshold    (grad. norm)   ....   1.000e-05
   Grad. Scal. Fac. for Micro threshold ....   0.100
   Minimum threshold for Micro iter.    ....   1.000e-02
   NR start threshold (gradient norm)   ....   1.000e-04
   Initial trust radius                 ....   0.400
   Minimum AH scaling param. (alpha)    ....   1.000
   Maximum AH scaling param. (alpha)    .... 1000.000
   Quad. conv. algorithm                .... NR
   White noise on init. David. guess    .... on
   Maximum white noise                  ....   0.010
   Pseudo random numbers                .... off
   Inactive MOs                         .... canonical
   Orbital update algorithm             .... Taylor
   Preconditioner                       .... Diag
   Full preconditioner red. dimension   ....   250
 SOSCF                  CNVSOSCF        .... on
   Start iteration      SOSCFMaxIt      ....   150
   Startup grad/error   SOSCFStart      ....  0.001000
   Hessian update       SOSCFHessUp     .... L-BFGS
 Level Shifting         CNVShift        .... on
   Level shift para.    LevelShift      ....    0.2500
   Turn off err/grad.   ShiftErr        ....    0.0000
 Zerner damping         CNVZerner       .... off
 Static damping         CNVDamp         .... on
   Fraction old density DampFac         ....    0.8500
   Max. Damping (<1)    DampMax         ....    0.9800
   Min. Damping (>=0)   DampMin         ....    0.0000
   Turn off err/grad.   DampErr         ....    0.0300

SCF Procedure:
 Maximum # iterations   MaxIter         ....  1500
 SCF integral mode      SCFMode         .... Direct
   Integral package                     .... SHARK and LIBINT hybrid scheme
 Reset frequency        DirectResetFreq ....    20
 Integral Threshold     Thresh          ....  2.500e-11 Eh
 Primitive CutOff       TCut            ....  2.500e-12 Eh

Convergence Tolerance:
 Convergence Check Mode ConvCheckMode   .... Total+1el-Energy
 Convergence forced     ConvForced      .... 0
 Energy Change          TolE            ....  1.000e-08 Eh
 1-El. energy change                    ....  1.000e-05 Eh
 Orbital Gradient       TolG            ....  1.000e-05
 Orbital Rotation angle TolX            ....  1.000e-05
 DIIS Error             TolErr          ....  5.000e-07

------------------------------
INITIAL GUESS: MODEL POTENTIAL
------------------------------
Loading Hartree-Fock densities                     ... done
Calculating cut-offs                               ... done
Initializing the effective Hamiltonian             ... done
Setting up the integral package (SHARK)            ... done
Starting the Coulomb interaction                   ... done (   0.1 sec)
Making the grid                                    ... done (   0.2 sec)
Mapping shells                                     ... done
Starting the XC term evaluation                    ... done (   0.0 sec)
  promolecular density results
     # of electrons  =     47.991039369
     EX              =    -35.395174150
     EC              =     -1.583542341
     EX+EC           =    -36.978716492
Transforming the Hamiltonian                       ... done (   0.0 sec)
Diagonalizing the Hamiltonian                      ... done (   0.0 sec)
Back transforming the eigenvectors                 ... done (   0.0 sec)
Now organizing SCF variables                       ... done
                      ------------------
                      INITIAL GUESS DONE (   0.6 sec)
                      ------------------
             **** ENERGY FILE WAS UPDATED (cs_rporg_074_red_opt_01.en.tmp) ****
Finished Guess after   1.6 sec
Maximum memory used throughout the entire GUESS-calculation: 10.0 MB


           ************************************************************
           *        Program running with 4 parallel MPI-processes     *
           *              working on a common directory               *
           ************************************************************

-------------------------------------------------------------------------------------------
                                      ORCA LEAN-SCF
                              memory conserving SCF solver
-------------------------------------------------------------------------------------------

----------------------------------------D-I-I-S--------------------------------------------
Iteration    Energy (Eh)           Delta-E    RMSDP     MaxDP     DIISErr   Damp  Time(sec)
-------------------------------------------------------------------------------------------
               ***  Starting incremental Fock matrix formation  ***
    1    -251.2111193458029561     0.00e+00  2.43e-03  3.64e-02  2.12e-01  0.850   1.8
    2    -251.2597006368932284    -4.86e-02  2.39e-03  3.08e-02  1.56e-01  0.850   1.4
                               ***Turning on AO-DIIS***
    3    -251.2918091493108932    -3.21e-02  1.36e-03  1.60e-02  1.05e-01  0.850   1.8
    4    -251.3126341366618703    -2.08e-02  9.45e-04  1.10e-02  8.20e-02  0.850   1.5
    5    -251.3276234911456299    -1.50e-02  7.23e-04  8.43e-03  6.78e-02  0.850   1.6
    6    -251.3392791949364096    -1.17e-02  5.84e-04  6.87e-03  5.71e-02  0.850   1.9
    7    -251.3487195539560730    -9.44e-03  4.89e-04  5.84e-03  4.81e-02  0.850   1.5
    8    -251.3565018233502428    -7.78e-03  4.13e-04  5.02e-03  4.02e-02  0.850   1.6
    9    -251.3629262129927611    -6.42e-03  3.49e-04  4.27e-03  3.36e-02  0.850   1.6
   10    -251.3682365874781794    -5.31e-03  2.94e-04  3.59e-03  2.82e-02  0.850   1.4
   11    -251.3726434042987421    -4.41e-03  1.65e-03  2.00e-02  2.36e-02  0.000   1.5
   12    -251.3959808150719368    -2.33e-02  7.78e-05  1.04e-03  1.86e-03  0.000   1.4
                              *** Initializing SOSCF ***
---------------------------------------S-O-S-C-F--------------------------------------
Iteration    Energy (Eh)           Delta-E    RMSDP     MaxDP     MaxGrad    Time(sec)
--------------------------------------------------------------------------------------
   13    -251.3959959759307594    -1.52e-05  1.91e-05  1.81e-04  1.68e-04     1.6
               *** Restarting incremental Fock matrix formation ***
   14    -251.3961406752741823    -1.45e-04  2.50e-05  2.93e-04  3.17e-05     1.5
   15    -251.3961407561025680    -8.08e-08  7.78e-06  9.89e-05  3.14e-05     1.4
   16    -251.3961407705857596    -1.45e-08  5.10e-06  6.43e-05  1.63e-05     1.5
   17    -251.3961407764710998    -5.89e-09  3.57e-07  5.40e-06  1.38e-06     1.4
                 **** Energy Check signals convergence ****

               *****************************************************
               *                     SUCCESS                       *
               *           SCF CONVERGED AFTER  17 CYCLES          *
               *****************************************************

Recomputing exchange energy using gridx3       ... done (    1.245 sec)
Old exchange energy                            :     -9.114160554 Eh
New exchange energy                            :     -9.114197820 Eh
Exchange energy change after final integration :     -0.000037266 Eh
Total energy after final integration           :   -251.396178043 Eh
             **** ENERGY FILE WAS UPDATED (cs_rporg_074_red_opt_01.en.tmp) ****

----------------
TOTAL SCF ENERGY
----------------

Total Energy       :       -251.39617804264503 Eh           -6840.83779 eV

Components:
Nuclear Repulsion  :        260.54806882719998 Eh            7089.87339 eV
Electronic Energy  :       -511.94420960367108 Eh          -13930.71017 eV
One Electron Energy:       -854.35158555852593 Eh          -23248.08855 eV
Two Electron Energy:        342.40737595485484 Eh            9317.37839 eV

Virial components:
Potential Energy   :       -500.43518875495977 Eh          -13617.53379 eV
Kinetic Energy     :        249.03901071231476 Eh            6776.69600 eV
Virial Ratio       :          2.00946505257786

DFT components:
N(Alpha)           :       23.999999771217 electrons
N(Beta)            :       23.999999771217 electrons
N(Total)           :       47.999999542435 electrons
E(X)               :      -27.191132132368 Eh       
E(C)               :       -1.591440296902 Eh       
E(XC)              :      -28.782572429270 Eh       

---------------
SCF CONVERGENCE
---------------

  Last Energy change         ...    5.8853e-09  Tolerance :   1.0000e-08
  Last MAX-Density change    ...    5.3993e-06  Tolerance :   1.0000e-07
  Last RMS-Density change    ...    3.5671e-07  Tolerance :   5.0000e-09
  Last DIIS Error            ...    1.6820e-04  Tolerance :   5.0000e-07
  Last Orbital Gradient      ...    1.3836e-06  Tolerance :   1.0000e-05
  Last Orbital Rotation      ...    1.6087e-06  Tolerance :   1.0000e-05


----------------
ORBITAL ENERGIES
----------------

  NO   OCC          E(Eh)            E(eV) 
   0   2.0000     -14.364100      -390.8670 
   1   2.0000     -10.241199      -278.6772 
   2   2.0000     -10.241197      -278.6771 
   3   2.0000     -10.216614      -278.0082 
   4   2.0000     -10.214355      -277.9467 
   5   2.0000     -10.214331      -277.9461 
   6   2.0000      -0.928677       -25.2706 
   7   2.0000      -0.800432       -21.7809 
   8   2.0000      -0.762574       -20.7507 
   9   2.0000      -0.643642       -17.5144 
  10   2.0000      -0.628208       -17.0944 
  11   2.0000      -0.563132       -15.3236 
  12   2.0000      -0.526595       -14.3294 
  13   2.0000      -0.463334       -12.6079 
  14   2.0000      -0.462212       -12.5774 
  15   2.0000      -0.437180       -11.8963 
  16   2.0000      -0.420626       -11.4458 
  17   2.0000      -0.409871       -11.1532 
  18   2.0000      -0.392195       -10.6722 
  19   2.0000      -0.355325        -9.6689 
  20   2.0000      -0.339005        -9.2248 
  21   2.0000      -0.319630        -8.6976 
  22   2.0000      -0.318617        -8.6700 
  23   2.0000      -0.230032        -6.2595 
  24   0.0000       0.065426         1.7803 
  25   0.0000       0.093209         2.5363 
  26   0.0000       0.103548         2.8177 
  27   0.0000       0.107137         2.9153 
  28   0.0000       0.137891         3.7522 
  29   0.0000       0.147117         4.0032 
  30   0.0000       0.149428         4.0661 
  31   0.0000       0.162453         4.4206 
  32   0.0000       0.164873         4.4864 
  33   0.0000       0.167666         4.5624 
  34   0.0000       0.178756         4.8642 
*Only the first 10 virtual orbitals were printed.

                    ********************************
                    * MULLIKEN POPULATION ANALYSIS *
                    ********************************

-----------------------
MULLIKEN ATOMIC CHARGES
-----------------------
   0 C :   -0.227529
   1 C :   -0.205518
   2 C :   -0.087304
   3 N :   -0.435477
   4 H :    0.222413
   5 C :   -0.087305
   6 C :   -0.205518
   7 H :    0.110921
   8 H :    0.109577
   9 H :    0.107432
  10 H :    0.077894
  11 H :    0.107432
  12 H :    0.077894
  13 H :    0.110921
  14 H :    0.109578
  15 H :    0.115534
  16 H :    0.099057
Sum of atomic charges:   -0.0000000

--------------------------------
MULLIKEN REDUCED ORBITAL CHARGES
--------------------------------
  0 C s       :     3.095449  s :     3.095449
      pz      :     1.046808  p :     3.091752
      px      :     1.054857
      py      :     0.990087
      dz2     :     0.012668  d :     0.040328
      dxz     :     0.004042
      dyz     :     0.005336
      dx2y2   :     0.011242
      dxy     :     0.007040

  1 C s       :     3.074646  s :     3.074646
      pz      :     1.063464  p :     3.091592
      px      :     0.999055
      py      :     1.029073
      dz2     :     0.012325  d :     0.039280
      dxz     :     0.004992
      dyz     :     0.004562
      dx2y2   :     0.008451
      dxy     :     0.008950

  2 C s       :     3.046923  s :     3.046923
      pz      :     1.021086  p :     2.984872
      px      :     1.022203
      py      :     0.941583
      dz2     :     0.016398  d :     0.055510
      dxz     :     0.006442
      dyz     :     0.009136
      dx2y2   :     0.009777
      dxy     :     0.013757

  3 N s       :     3.519089  s :     3.519089
      pz      :     1.693342  p :     3.888888
      px      :     1.096773
      py      :     1.098773
      dz2     :     0.003069  d :     0.027499
      dxz     :     0.004414
      dyz     :     0.006894
      dx2y2   :     0.009274
      dxy     :     0.003848

  4 H s       :     0.777587  s :     0.777587

  5 C s       :     3.046923  s :     3.046923
      pz      :     1.021086  p :     2.984872
      px      :     1.022213
      py      :     0.941574
      dz2     :     0.016398  d :     0.055510
      dxz     :     0.006442
      dyz     :     0.009136
      dx2y2   :     0.009777
      dxy     :     0.013757

  6 C s       :     3.074645  s :     3.074645
      pz      :     1.063464  p :     3.091592
      px      :     0.999053
      py      :     1.029075
      dz2     :     0.012325  d :     0.039280
      dxz     :     0.004992
      dyz     :     0.004562
      dx2y2   :     0.008452
      dxy     :     0.008949

  7 H s       :     0.889079  s :     0.889079

  8 H s       :     0.890423  s :     0.890423

  9 H s       :     0.892568  s :     0.892568

 10 H s       :     0.922106  s :     0.922106

 11 H s       :     0.892568  s :     0.892568

 12 H s       :     0.922106  s :     0.922106

 13 H s       :     0.889079  s :     0.889079

 14 H s       :     0.890422  s :     0.890422

 15 H s       :     0.884466  s :     0.884466

 16 H s       :     0.900943  s :     0.900943



                     *******************************
                     * LOEWDIN POPULATION ANALYSIS *
                     *******************************

----------------------
LOEWDIN ATOMIC CHARGES
----------------------
   0 C :   -0.236328
   1 C :   -0.239045
   2 C :   -0.165800
   3 N :   -0.290797
   4 H :    0.213052
   5 C :   -0.165800
   6 C :   -0.239045
   7 H :    0.118906
   8 H :    0.122730
   9 H :    0.113822
  10 H :    0.089721
  11 H :    0.113822
  12 H :    0.089721
  13 H :    0.118906
  14 H :    0.122730
  15 H :    0.118650
  16 H :    0.114755

-------------------------------
LOEWDIN REDUCED ORBITAL CHARGES
-------------------------------
  0 C s       :     2.908782  s :     2.908782
      pz      :     1.097098  p :     3.235579
      px      :     1.079764
      py      :     1.058716
      dz2     :     0.028046  d :     0.091967
      dxz     :     0.008424
      dyz     :     0.012074
      dx2y2   :     0.025034
      dxy     :     0.018390

  1 C s       :     2.911228  s :     2.911228
      pz      :     1.104661  p :     3.237425
      px      :     1.059938
      py      :     1.072825
      dz2     :     0.027286  d :     0.090393
      dxz     :     0.011201
      dyz     :     0.009806
      dx2y2   :     0.020920
      dxy     :     0.021179

  2 C s       :     2.907881  s :     2.907881
      pz      :     1.080748  p :     3.135457
      px      :     1.057563
      py      :     0.997146
      dz2     :     0.036644  d :     0.122462
      dxz     :     0.013964
      dyz     :     0.019751
      dx2y2   :     0.022743
      dxy     :     0.029361

  3 N s       :     3.193698  s :     3.193698
      pz      :     1.718221  p :     4.040644
      px      :     1.163790
      py      :     1.158633
      dz2     :     0.005329  d :     0.056455
      dxz     :     0.006665
      dyz     :     0.012508
      dx2y2   :     0.020645
      dxy     :     0.011308

  4 H s       :     0.786948  s :     0.786948

  5 C s       :     2.907881  s :     2.907881
      pz      :     1.080748  p :     3.135457
      px      :     1.057569
      py      :     0.997140
      dz2     :     0.036644  d :     0.122462
      dxz     :     0.013963
      dyz     :     0.019751
      dx2y2   :     0.022743
      dxy     :     0.029361

  6 C s       :     2.911228  s :     2.911228
      pz      :     1.104661  p :     3.237425
      px      :     1.059938
      py      :     1.072826
      dz2     :     0.027286  d :     0.090393
      dxz     :     0.011201
      dyz     :     0.009806
      dx2y2   :     0.020921
      dxy     :     0.021178

  7 H s       :     0.881094  s :     0.881094

  8 H s       :     0.877270  s :     0.877270

  9 H s       :     0.886178  s :     0.886178

 10 H s       :     0.910279  s :     0.910279

 11 H s       :     0.886178  s :     0.886178

 12 H s       :     0.910279  s :     0.910279

 13 H s       :     0.881094  s :     0.881094

 14 H s       :     0.877270  s :     0.877270

 15 H s       :     0.881350  s :     0.881350

 16 H s       :     0.885245  s :     0.885245



                      *****************************
                      * MAYER POPULATION ANALYSIS *
                      *****************************

  NA   - Mulliken gross atomic population
  ZA   - Total nuclear charge
  QA   - Mulliken gross atomic charge
  VA   - Mayer's total valence
  BVA  - Mayer's bonded valence
  FA   - Mayer's free valence

  ATOM       NA         ZA         QA         VA         BVA        FA
  0 C      6.2275     6.0000    -0.2275     4.0562     4.0562    -0.0000
  1 C      6.2055     6.0000    -0.2055     4.0706     4.0706    -0.0000
  2 C      6.0873     6.0000    -0.0873     4.0458     4.0458    -0.0000
  3 N      7.4355     7.0000    -0.4355     3.0291     3.0291    -0.0000
  4 H      0.7776     1.0000     0.2224     0.9003     0.9003    -0.0000
  5 C      6.0873     6.0000    -0.0873     4.0458     4.0458     0.0000
  6 C      6.2055     6.0000    -0.2055     4.0706     4.0706    -0.0000
  7 H      0.8891     1.0000     0.1109     0.9423     0.9423     0.0000
  8 H      0.8904     1.0000     0.1096     0.9556     0.9556    -0.0000
  9 H      0.8926     1.0000     0.1074     0.9472     0.9472     0.0000
 10 H      0.9221     1.0000     0.0779     0.9511     0.9511    -0.0000
 11 H      0.8926     1.0000     0.1074     0.9472     0.9472    -0.0000
 12 H      0.9221     1.0000     0.0779     0.9511     0.9511     0.0000
 13 H      0.8891     1.0000     0.1109     0.9423     0.9423     0.0000
 14 H      0.8904     1.0000     0.1096     0.9556     0.9556    -0.0000
 15 H      0.8845     1.0000     0.1155     0.9391     0.9391    -0.0000
 16 H      0.9009     1.0000     0.0991     0.9524     0.9524    -0.0000

  Mayer bond orders larger than 0.100000
B(  0-C ,  1-C ) :   1.1023 B(  0-C ,  6-C ) :   1.1023 B(  0-C , 15-H ) :   0.9347 
B(  0-C , 16-H ) :   0.9275 B(  1-C ,  2-C ) :   1.1148 B(  1-C , 13-H ) :   0.9317 
B(  1-C , 14-H ) :   0.9189 B(  2-C ,  3-N ) :   1.0485 B(  2-C , 11-H ) :   0.9361 
B(  2-C , 12-H ) :   0.9137 B(  3-N ,  4-H ) :   0.8790 B(  3-N ,  5-C ) :   1.0485 
B(  5-C ,  6-C ) :   1.1148 B(  5-C ,  9-H ) :   0.9361 B(  5-C , 10-H ) :   0.9137 
B(  6-C ,  7-H ) :   0.9317 B(  6-C ,  8-H ) :   0.9189 

-------
TIMINGS
-------

Total SCF time: 0 days 0 hours 0 min 29 sec 

Total time                  ....      29.099 sec
Sum of individual times     ....      28.253 sec  ( 97.1%)

SCF preparation             ....       0.821 sec  (  2.8%)
Fock matrix formation       ....      20.960 sec  ( 72.0%)
  Startup                   ....       1.047 sec  (  5.0% of F)
  Split-RI-J                ....       2.847 sec  ( 13.6% of F)
  Chain of spheres X        ....       9.394 sec  ( 44.8% of F)
  XC integration            ....       5.653 sec  ( 27.0% of F)
    XC Preparation          ....       0.000 sec  (  0.0% of XC)
    Basis function eval.    ....       1.579 sec  ( 27.9% of XC)
    Density eval.           ....       0.533 sec  (  9.4% of XC)
    XC-Functional eval.     ....       0.421 sec  (  7.5% of XC)
    XC-Potential eval.      ....       0.862 sec  ( 15.3% of XC)
Diagonalization             ....       0.000 sec  (  0.0%)
Density matrix formation    ....       1.849 sec  (  6.4%)
Total Energy calculation    ....       0.758 sec  (  2.6%)
Population analysis         ....       0.203 sec  (  0.7%)
Orbital Transformation      ....       0.182 sec  (  0.6%)
Orbital Orthonormalization  ....       0.000 sec  (  0.0%)
DIIS solution               ....       3.115 sec  ( 10.7%)
SOSCF solution              ....       0.365 sec  (  1.3%)
Finished LeanSCF after  29.3 sec

Maximum memory used throughout the entire LEANSCF-calculation: 13.1 MB


           ************************************************************
           *        Program running with 4 parallel MPI-processes     *
           *              working on a common directory               *
           ************************************************************

------------------------------------------------------------------------------
                         ORCA PROPERTY INTEGRAL CALCULATIONS
------------------------------------------------------------------------------

GBWName                                   ... cs_rporg_074_red_opt_01.gbw
Number of atoms                           ...     17
Number of basis functions                 ...    106
Max core memory                           ...   3000 MB

Dipole integrals                          ... YES
Quadrupole integrals                      ...  NO
Linear momentum integrals                 ...  NO
Angular momentum integrals                ...  NO
Higher moments length integrals           ...  NO
Higher moments velocity integrals         ...  NO
Kinetic energy integrals                  ...  NO
GIAO right hand sides                     ...  NO
GIAO dipole derivative integrals          ...  NO
SOC integrals                             ...  NO
EPR diamagnetic integrals (GIAO)          ...  NO
EPR gauge integrals                       ...  NO
Field gradient integrals                  ...  NO (   0 nuclei)
Spin-dipole/Fermi contact integrals       ...  NO (   0 nuclei)
Contact density integrals                 ...  NO (   0 nuclei)
Nucleus-orbit integrals                   ...  NO (   0 nuclei)
Geometric perturbations                   ...  NO (  17 nuclei)

Choice of electric origin   ... Center of mass
Position of electric origin ... (  0.0005, -0.0000, -0.0015) 
Choice of magnetic origin   ... GIAO
Position of magnetic origin ... (  0.0000,  0.0000,  0.0000) 

Calculating integrals                     ... Electric Dipole (Length)     done (  0.0 sec)

Property integrals calculated in   0.0 sec

Maximum memory used throughout the entire PROPINT-calculation: 8.0 MB


-------------------------------------------------------------------------------
                          DFT DISPERSION CORRECTION                            
                                                                               
                              DFTD3 V3.1  Rev 1                                
                          USING Becke-Johnson damping                          
-------------------------------------------------------------------------------
The PBE0 functional is recognized
Active option DFTDOPT                   ...         4   

molecular C6(AA) [au] = 1985.122756 


            DFT-D V3
 parameters
 s6 scaling factor         :     1.0000 
 a1 scaling factor         :     0.4145 
 s8 scaling factor         :     1.2177 
 a2 scaling factor         :     4.8593 
 ad hoc parameters k1-k3   :    16.0000     1.3333    -4.0000 

 Edisp/kcal,au: -7.779391633177  -0.012397248368 
 E6   /kcal   :  -5.059184596 
 E8   /kcal   :  -2.720207037 
 % E8         :  34.966835005 

-------------------------   ----------------
Dispersion correction           -0.012397248
-------------------------   ----------------


-------------------------   --------------------
FINAL SINGLE POINT ENERGY      -251.408575291013
-------------------------   --------------------



           ************************************************************
           *        Program running with 4 parallel MPI-processes     *
           *              working on a common directory               *
           ************************************************************
------------------------------------------------------------------------------
                         ORCA SCF GRADIENT CALCULATION
------------------------------------------------------------------------------

Nuc. rep. gradient        (SHARK) ... done (  0.0 sec)
HCore & Overlap gradient  (SHARK) ... done (  0.1 sec)
Split-RIJ-J gradient      (SHARK) ... done (  0.5 sec)
COSX-gradient                     ... done (  5.2 sec)
XC gradient                       ... done (  1.3 sec)
Dispersion correction             ... done (  0.1 sec)

-------------------
DISPERSION GRADIENT
-------------------

   1   C   :   -0.000199235    0.000000005    0.000011960
   2   C   :   -0.000094183   -0.000181175   -0.000031726
   3   C   :    0.000115739   -0.000178051    0.000019707
   4   N   :    0.000219191   -0.000000006   -0.000031692
   5   H   :    0.000172761   -0.000000004   -0.000003364
   6   C   :    0.000115748    0.000178045    0.000019706
   7   C   :   -0.000094173    0.000181179   -0.000031726
   8   H   :   -0.000076873    0.000146351    0.000004001
   9   H   :   -0.000059270    0.000112636   -0.000107447
  10   H   :    0.000092868    0.000140126   -0.000013267
  11   H   :    0.000073611    0.000105973    0.000094318
  12   H   :    0.000092861   -0.000140131   -0.000013266
  13   H   :    0.000073605   -0.000105976    0.000094318
  14   H   :   -0.000076881   -0.000146347    0.000004002
  15   H   :   -0.000059276   -0.000112634   -0.000107446
  16   H   :   -0.000166387    0.000000004   -0.000009973
  17   H   :   -0.000130109    0.000000003    0.000101895

Difference to translation invariance:
           :    0.0000000000    0.0000000000    0.0000000000

Difference to rotation invariance:
           :   -0.0000000000   -0.0000000000    0.0000000000

Norm of the Dispersion gradient    ...    0.0007538916
RMS gradient                       ...    0.0001055659
MAX gradient                       ...    0.0002191906

------------------
CARTESIAN GRADIENT
------------------

   1   C   :   -0.008396546    0.000000398    0.011352306
   2   C   :   -0.005421276   -0.006304084   -0.012009728
   3   C   :    0.003877709   -0.006180296    0.009330210
   4   N   :    0.002526490   -0.000000172   -0.003902317
   5   H   :   -0.003194973    0.000000167    0.000121210
   6   C   :    0.003877889    0.006180378    0.009329735
   7   C   :   -0.005421446    0.006304580   -0.012009575
   8   H   :    0.004151711   -0.007761711   -0.001796676
   9   H   :    0.000114238   -0.001707282    0.008966110
  10   H   :   -0.003404997   -0.006195414    0.001212317
  11   H   :    0.000028048   -0.001778980   -0.005776359
  12   H   :   -0.003404652    0.006195346    0.001212185
  13   H   :    0.000027896    0.001779034   -0.005776561
  14   H   :    0.004151845    0.007761194   -0.001796724
  15   H   :    0.000114509    0.001707113    0.008966168
  16   H   :    0.008723910   -0.000000113    0.001169518
  17   H   :    0.001649644   -0.000000158   -0.008591817

Difference to translation invariance:
           :    0.0000000000    0.0000000000   -0.0000000000

Difference to rotation invariance:
           :   -0.0000002644   -0.0002952865    0.0000003018

Norm of the Cartesian gradient     ...    0.0399566172
RMS gradient                       ...    0.0055950455
MAX gradient                       ...    0.0120097284

-------
TIMINGS
-------

Total SCF gradient time     ....        7.079 sec

Densities                   ....       0.000 sec  (  0.0%)
One electron gradient       ....       0.075 sec  (  1.1%)
RI-J Coulomb gradient       ....       0.479 sec  (  6.8%)
COSX gradient               ....       5.190 sec  ( 73.3%)
XC gradient                 ....       1.265 sec  ( 17.9%)

Maximum memory used throughout the entire SCFGRAD-calculation: 27.7 MB
------------------------------------------------------------------------------
                         ORCA GEOMETRY RELAXATION STEP
------------------------------------------------------------------------------

Reading the OPT-File                    .... done
Getting information on internals        .... done
Copying old internal coords+grads       .... done
Making the new internal coordinates     .... (2022 redundants) done
Validating the new internal coordinates .... (2022 redundants) done
Calculating the B-matrix                .... done
Calculating the G,G- and P matrices     .... done
Transforming gradient to internals      .... done
Projecting the internal gradient        .... done
Number of atoms                         ....  17
Number of internal coordinates          ....  84
Current Energy                          ....  -251.408575291 Eh
Current gradient norm                   ....     0.039956617 Eh/bohr
Maximum allowed component of the step   ....  0.300
Current trust radius                    ....  0.300
Evaluating the initial hessian          ....  (Almloef) done
Projecting the Hessian                  .... done
Forming the augmented Hessian           .... done
Diagonalizing the augmented Hessian     .... done
Last element of RFO vector              ....  0.990756278
Lowest eigenvalues of augmented Hessian:
 -0.002487970  0.017568700  0.017760439  0.025827715  0.044401344
Length of the computed step             ....  0.136919607
The final length of the internal step   ....  0.136919607
Converting the step to Cartesian space:
 Initial RMS(Int)=    0.0149391539
Transforming coordinates:
 Iter   0:  RMS(Cart)=    0.0223859055 RMS(Int)=    0.9669339685
done
Storing new coordinates                 .... done

                                .--------------------.
          ----------------------|Geometry convergence|-------------------------
          Item                value                   Tolerance       Converged
          ---------------------------------------------------------------------
          RMS gradient        0.0029261133            0.0001000000      NO
          MAX gradient        0.0090116181            0.0003000000      NO
          RMS step            0.0149391539            0.0020000000      NO
          MAX step            0.0301829632            0.0040000000      NO
          ........................................................
          Max(Bonds)      0.0132      Max(Angles)    0.81
          Max(Dihed)        1.73      Max(Improp)    0.00
          ---------------------------------------------------------------------

The optimization has not yet converged - more geometry cycles are needed


    ---------------------------------------------------------------------------
                         Redundant Internal Coordinates
                            (Angstroem and degrees)

        Definition                    Value    dE/dq     Step     New-Value
    ----------------------------------------------------------------------------
     1. B(C   1,C   0)                1.5262 -0.002148  0.0032    1.5294   
     2. B(C   2,C   1)                1.5274  0.001041 -0.0014    1.5260   
     3. B(N   3,C   2)                1.4520 -0.001231  0.0013    1.4533   
     4. B(H   4,N   3)                1.0147 -0.003085  0.0038    1.0185   
     5. B(C   5,N   3)                1.4520 -0.001242  0.0013    1.4533   
     6. B(C   6,C   5)                1.5274  0.001027 -0.0015    1.5259   
     7. B(C   6,C   0)                1.5262 -0.002160  0.0032    1.5294   
     8. B(H   7,C   6)                1.0914 -0.008878  0.0130    1.1044   
     9. B(H   8,C   6)                1.0908 -0.009012  0.0132    1.1040   
    10. B(H   9,C   5)                1.0932 -0.007039  0.0104    1.1036   
    11. B(H  10,C   5)                1.1073 -0.005832  0.0091    1.1163   
    12. B(H  11,C   2)                1.0932 -0.007039  0.0104    1.1036   
    13. B(H  12,C   2)                1.1073 -0.005833  0.0091    1.1163   
    14. B(H  13,C   1)                1.0914 -0.008877  0.0130    1.1044   
    15. B(H  14,C   1)                1.0908 -0.009012  0.0132    1.1040   
    16. B(H  15,C   0)                1.0916 -0.008597  0.0126    1.1043   
    17. B(H  16,C   0)                1.0935 -0.008641  0.0128    1.1063   
    18. A(C   6,C   0,H  15)          110.29 -0.000615    0.20    110.49   
    19. A(C   1,C   0,C   6)          109.29 -0.000846    0.80    110.09   
    20. A(C   6,C   0,H  16)          109.46  0.000540   -0.29    109.17   
    21. A(C   1,C   0,H  16)          109.46  0.000480   -0.29    109.17   
    22. A(C   1,C   0,H  15)          110.29 -0.000556    0.20    110.49   
    23. A(H  15,C   0,H  16)          108.02  0.001036   -0.64    107.39   
    24. A(H  13,C   1,H  14)          108.66  0.001049   -0.55    108.11   
    25. A(C   0,C   1,H  14)          109.39  0.000033   -0.04    109.35   
    26. A(C   0,C   1,H  13)          110.61 -0.000778    0.14    110.75   
    27. A(C   0,C   1,C   2)          109.83 -0.000159    0.49    110.32   
    28. A(C   2,C   1,H  14)          108.65  0.000436   -0.24    108.41   
    29. A(C   2,C   1,H  13)          109.67 -0.000545    0.17    109.84   
    30. A(H  11,C   2,H  12)          108.14  0.002092   -0.56    107.58   
    31. A(N   3,C   2,H  12)          112.08 -0.001605    0.17    112.25   
    32. A(C   1,C   2,H  12)          108.95  0.000843   -0.24    108.70   
    33. A(N   3,C   2,H  11)          108.34 -0.000926    0.21    108.55   
    34. A(C   1,C   2,H  11)          110.13  0.000239   -0.02    110.12   
    35. A(C   1,C   2,N   3)          109.18 -0.000615    0.44    109.61   
    36. A(C   2,N   3,H   4)          110.01 -0.000140    0.25    110.26   
    37. A(H   4,N   3,C   5)          110.01 -0.000184    0.25    110.27   
    38. A(C   2,N   3,C   5)          111.38 -0.001451    0.81    112.19   
    39. A(C   6,C   5,H   9)          110.13 -0.000226    0.03    110.17   
    40. A(N   3,C   5,H   9)          108.34 -0.001183    0.23    108.57   
    41. A(N   3,C   5,C   6)          109.18 -0.000165    0.39    109.57   
    42. A(H   9,C   5,H  10)          108.14  0.000765   -0.45    107.69   
    43. A(C   6,C   5,H  10)          108.95  0.001034   -0.29    108.66   
    44. A(N   3,C   5,H  10)          112.08 -0.000237    0.08    112.16   
    45. A(H   7,C   6,H   8)          108.66  0.002229   -0.62    108.04   
    46. A(C   5,C   6,H   8)          108.65  0.000375   -0.23    108.42   
    47. A(C   0,C   6,H   8)          109.39 -0.001247    0.05    109.44   
    48. A(C   5,C   6,H   7)          109.67 -0.000162    0.14    109.81   
    49. A(C   0,C   6,H   7)          110.61 -0.000563    0.13    110.74   
    50. A(C   0,C   6,C   5)          109.83 -0.000590    0.50    110.33   
    51. D(H  13,C   1,C   0,H  15)    -61.66 -0.001239   -0.20    -61.86   
    52. D(H  13,C   1,C   0,C   6)    176.93  0.000427   -1.09    175.84   
    53. D(C   2,C   1,C   0,H  15)    177.16  0.000053   -0.83    176.33   
    54. D(C   2,C   1,C   0,C   6)     55.74  0.001718   -1.72     54.02   
    55. D(H  13,C   1,C   0,H  16)     57.06 -0.000009   -1.04     56.02   
    56. D(C   2,C   1,C   0,H  16)    -64.13  0.001282   -1.67    -65.80   
    57. D(N   3,C   2,C   1,C   0)    -58.75 -0.001905    1.63    -57.13   
    58. D(H  11,C   2,C   1,H  14)    -57.98 -0.000332    1.21    -56.77   
    59. D(H  11,C   2,C   1,C   0)   -177.59 -0.000542    1.11   -176.48   
    60. D(N   3,C   2,C   1,H  14)     60.86 -0.001695    1.73     62.59   
    61. D(H  11,C   2,C   1,H  13)     60.66  0.000879    0.50     61.16   
    62. D(N   3,C   2,C   1,H  13)    179.50 -0.000484    1.02    180.52   
    63. D(H   4,N   3,C   2,H  12)     64.47  0.000223   -0.12     64.35   
    64. D(H   4,N   3,C   2,C   1)   -174.73 -0.000173   -0.02   -174.75   
    65. D(H   4,N   3,C   2,H  11)    -54.78 -0.000791    0.34    -54.44   
    66. D(C   5,N   3,C   2,H  11)   -177.03  0.000523   -0.71   -177.74   
    67. D(C   5,N   3,C   2,C   1)     63.02  0.001142   -1.07     61.95   
    68. D(H  10,C   5,N   3,C   2)     57.79 -0.000379    1.01     58.79   
    69. D(H   9,C   5,N   3,H   4)     54.78  0.000944   -0.40     54.38   
    70. D(H   9,C   5,N   3,C   2)    177.03 -0.000346    0.64    177.68   
    71. D(C   6,C   5,N   3,H   4)    174.73 -0.000126    0.01    174.74   
    72. D(C   6,C   5,N   3,C   2)    -63.02 -0.001416    1.05    -61.96   
    73. D(C   0,C   6,C   5,H   9)    177.59  0.000229   -1.02    176.58   
    74. D(C   0,C   6,C   5,N   3)     58.75  0.001911   -1.56     57.19   
    75. D(H   7,C   6,C   0,H  16)    -57.06 -0.000110    1.04    -56.02   
    76. D(H   7,C   6,C   0,H  15)     61.66  0.001120    0.19     61.85   
    77. D(H   7,C   6,C   0,C   1)   -176.93 -0.000509    1.08   -175.85   
    78. D(C   5,C   6,C   0,H  16)     64.13 -0.001066    1.63     65.75   
    79. D(C   5,C   6,C   0,H  15)   -177.16  0.000164    0.78   -176.37   
    80. D(C   0,C   6,C   5,H  10)    -63.95  0.001651   -1.73    -65.67   
    81. D(C   5,C   6,C   0,C   1)    -55.74 -0.001465    1.67    -54.07   
    82. D(H   7,C   6,C   5,H  10)     57.80  0.000467   -1.15     56.66   
    83. D(H   7,C   6,C   5,H   9)    -60.66 -0.000955   -0.44    -61.10   
    84. D(H   7,C   6,C   5,N   3)   -179.50  0.000727   -0.98   -180.48   
    ----------------------------------------------------------------------------

Geometry step timings:
Preparation and reading OPT file:      0.004 s (10.216 %)
Internal coordinates            :      0.000 s ( 0.280 %)
B/P matrices and projection     :      0.003 s ( 6.307 %)
Hessian update/contruction      :      0.017 s (39.318 %)
Making the step                 :      0.002 s ( 5.298 %)
Converting the step to Cartesian:      0.000 s ( 0.741 %)
Storing new data                :      0.007 s (15.610 %)
Checking convergence            :      0.000 s ( 0.058 %)
Final printing                  :      0.009 s (22.109 %)
Total time                      :      0.043 s

Time for energy+gradient        :     50.383 s
Time for complete geometry iter :     52.648 s

         *************************************************************
         *                GEOMETRY OPTIMIZATION CYCLE   2            *
         *************************************************************
---------------------------------
CARTESIAN COORDINATES (ANGSTROEM)
---------------------------------
  C     -1.467568    0.000080    0.231772
  C     -0.723478   -1.253628   -0.230447
  C      0.730928   -1.205890    0.229022
  N      1.363270    0.000224   -0.278412
  H      2.356091    0.000170   -0.051253
  C      0.730910    1.206350    0.228988
  C     -0.723190    1.253285   -0.231351
  H     -1.210210    2.164277    0.159318
  H     -0.738629    1.303413   -1.334078
  H      1.281031    2.081248   -0.158143
  H      0.754321    1.257100    1.343919
  H      1.280610   -2.080573   -0.159215
  H      0.756113   -1.259415    1.343785
  H     -1.210534   -2.164328    0.160857
  H     -0.739320   -1.302837   -1.333209
  H     -2.502035    0.000046   -0.154601
  H     -1.527294    0.000498    1.336410

----------------------------
CARTESIAN COORDINATES (A.U.)
----------------------------
  NO LB      ZA    FRAG     MASS         X           Y           Z
   0 C     6.0000    0    12.011   -2.773301    0.000150    0.437986
   1 C     6.0000    0    12.011   -1.367176   -2.369013   -0.435481
   2 C     6.0000    0    12.011    1.381254   -2.278801    0.432789
   3 N     7.0000    0    14.007    2.576207    0.000424   -0.526123
   4 H     1.0000    0     1.008    4.452367    0.000322   -0.096854
   5 C     6.0000    0    12.011    1.381219    2.279671    0.432725
   6 C     6.0000    0    12.011   -1.366631    2.368365   -0.437191
   7 H     1.0000    0     1.008   -2.286966    4.089891    0.301068
   8 H     1.0000    0     1.008   -1.395807    2.463093   -2.521042
   9 H     1.0000    0     1.008    2.420798    3.932988   -0.298848
  10 H     1.0000    0     1.008    1.425459    2.375575    2.539639
  11 H     1.0000    0     1.008    2.420001   -3.931714   -0.300873
  12 H     1.0000    0     1.008    1.428846   -2.379950    2.539385
  13 H     1.0000    0     1.008   -2.287578   -4.089988    0.303976
  14 H     1.0000    0     1.008   -1.397111   -2.462005   -2.519399
  15 H     1.0000    0     1.008   -4.728160    0.000087   -0.292154
  16 H     1.0000    0     1.008   -2.886167    0.000940    2.525449

--------------------------------
INTERNAL COORDINATES (ANGSTROEM)
--------------------------------
 C      0   0   0     0.000000000000     0.00000000     0.00000000
 C      1   0   0     1.529411024513     0.00000000     0.00000000
 C      2   1   0     1.526003753928   110.30719644     0.00000000
 N      3   2   1     1.453291819732   109.60463912   302.87375678
 H      4   3   2     1.018476718950   110.25683443   185.25071400
 C      4   3   2     1.453297748613   112.18124424    61.94285808
 C      6   4   3     1.525949296682   109.56244828   298.04028483
 H      7   6   4     1.104408511947   109.80821264   179.51849078
 H      7   6   4     1.103973151438   108.42462042   297.35616573
 H      6   4   3     1.103607876882   108.57592570   177.67894219
 H      6   4   3     1.116330794573   112.16679522    58.79370263
 H      3   2   1     1.103607609366   110.12032207   183.51747321
 H      3   2   1     1.116331032803   108.70355438    65.89449633
 H      2   1   3     1.104407998983   110.75143983   121.81990059
 H      2   1   3     1.103973223606   109.35659247   240.86017634
 H      1   2   3     1.104267211157   110.48722039   176.32472231
 H      1   2   3     1.106251338683   109.16903584   294.20266906

---------------------------
INTERNAL COORDINATES (A.U.)
---------------------------
 C      0   0   0     0.000000000000     0.00000000     0.00000000
 C      1   0   0     2.890167982529     0.00000000     0.00000000
[...]
     47       0.156773   0.006394  -0.064131  -0.065667   0.146252  -0.263509
     48       0.057689  -0.000898   0.008622   0.006343  -0.014139   0.025115
     49      -0.000181   0.000901   0.000079   0.000701   0.000396  -0.000047
     50      -0.899619   0.007577  -0.071174  -0.073679   0.163322  -0.275664
                 48         49         50    
      0      -0.000744   0.015828   0.000109
      1      -0.000240   0.000000  -0.000000
      2      -0.001078   0.027129  -0.000044
      3      -0.019850  -0.018181   0.000422
      4      -0.034778  -0.032764  -0.000249
      5       0.050647   0.053072   0.000324
      6      -0.001242  -0.001519  -0.000479
      7       0.001922   0.001970   0.001362
      8       0.004364   0.005104  -0.001730
      9      -0.000010   0.000310  -0.071014
     10       0.000429   0.000015  -0.000006
     11       0.000009  -0.000313  -0.011424
     12       0.000072  -0.001765   0.978320
     13      -0.000353  -0.000019   0.000066
     14       0.000098  -0.002809   0.193875
     15       0.001470  -0.001507  -0.000479
     16       0.002245  -0.001947  -0.001362
     17      -0.004796   0.004880  -0.001729
     18       0.020873  -0.016835   0.000421
     19      -0.036615   0.030397   0.000249
     20      -0.053946   0.049716   0.000323
     21      -0.255358   0.211442  -0.000541
     22       0.468952  -0.390348  -0.001472
     23       0.205080  -0.171600  -0.000714
     24       0.010674  -0.008776   0.000210
     25      -0.029284   0.031410  -0.000143
     26       0.439725  -0.425071  -0.000794
     27      -0.021181   0.020069   0.002981
     28      -0.031939   0.029793   0.006049
     29       0.016086  -0.015528  -0.000650
     30       0.003234  -0.004019   0.001767
     31       0.001340  -0.002857  -0.001936
     32       0.034339  -0.037087   0.001605
     33       0.018414   0.020495   0.002971
     34      -0.027738  -0.030401  -0.006038
     35      -0.014039  -0.015910  -0.000648
     36      -0.002951  -0.004223   0.001772
     37       0.001133   0.002943   0.001932
     38      -0.031550  -0.038962   0.001611
     39       0.242448   0.227920  -0.000540
     40       0.445016   0.420505   0.001472
     41      -0.194750  -0.184977  -0.000715
     42      -0.010145  -0.009504   0.000210
     43      -0.027121  -0.033174   0.000143
     44      -0.410559  -0.451854  -0.000797
     45       0.009696  -0.212436  -0.000027
     46       0.001279   0.000019  -0.000000
     47       0.003730  -0.082182  -0.000231
     48      -0.000804   0.021182  -0.000242
     49      -0.003335  -0.000154  -0.000000
     50       0.009009  -0.236663   0.000238


-----------
IR SPECTRUM
-----------

 Mode   freq       eps      Int      T**2         TX        TY        TZ
       cm**-1   L/(mol*cm) km/mol    a.u.
----------------------------------------------------------------------------
  6:    249.39   0.000263    1.33  0.000329  ( 0.018103 -0.000023  0.001015)
  7:    255.82   0.000069    0.35  0.000084  (-0.000051 -0.009150 -0.000014)
  8:    405.54   0.000346    1.75  0.000266  ( 0.005415 -0.000001  0.015399)
  9:    440.71   0.001473    7.44  0.001043  (-0.027493  0.000008  0.016945)
 10:    456.65   0.000162    0.82  0.000111  ( 0.000021  0.010537 -0.000023)
 11:    550.80   0.004744   23.98  0.002688  (-0.033343  0.000001  0.039702)
 12:    774.48   0.017421   88.04  0.007020  ( 0.050499  0.000003 -0.066854)
 13:    830.96   0.000072    0.36  0.000027  ( 0.000007  0.005196 -0.000009)
 14:    851.37   0.000090    0.45  0.000033  ( 0.001484 -0.000001  0.005536)
 15:    885.84   0.003305   16.70  0.001164  ( 0.010619  0.000003 -0.032428)
 16:    908.57   0.000051    0.26  0.000018  ( 0.000013  0.004201 -0.000008)
 17:    934.81   0.000468    2.36  0.000156  (-0.011894  0.000020  0.003823)
 18:    989.95   0.000125    0.63  0.000039  ( 0.000008 -0.006270 -0.000006)
 19:   1069.16   0.002477   12.52  0.000723  ( 0.004331 -0.000025 -0.026538)
 20:   1080.56   0.000047    0.24  0.000014  (-0.002603  0.000036 -0.002596)
 21:   1086.50   0.000459    2.32  0.000132  ( 0.000007  0.011486 -0.000024)
 22:   1174.60   0.001205    6.09  0.000320  ( 0.007542  0.000018 -0.016225)
 23:   1175.62   0.000033    0.17  0.000009  (-0.000054  0.002978  0.000092)
 24:   1181.44   0.001356    6.85  0.000358  (-0.000004  0.018927 -0.000003)
 25:   1219.58   0.003158   15.96  0.000808  ( 0.000002  0.028429 -0.000020)
 26:   1295.37   0.000729    3.69  0.000176  (-0.008146 -0.000032 -0.010458)
 27:   1300.90   0.000777    3.93  0.000186  ( 0.000014 -0.013652  0.000011)
 28:   1323.76   0.000284    1.43  0.000067  (-0.002299  0.000011  0.007847)
 29:   1354.30   0.001406    7.11  0.000324  ( 0.000001 -0.017999  0.000007)
 30:   1380.69   0.007345   37.12  0.001660  ( 0.000021 -0.040745  0.000011)
 31:   1393.17   0.000058    0.29  0.000013  (-0.000874 -0.000046  0.003482)
 32:   1398.58   0.000014    0.07  0.000003  (-0.000001 -0.001780 -0.000013)
 33:   1441.48   0.000313    1.58  0.000068  (-0.008218 -0.000036 -0.000380)
 34:   1456.71   0.001166    5.89  0.000250  ( 0.000024  0.015806  0.000101)
 35:   1465.84   0.002185   11.04  0.000465  ( 0.000637  0.000073 -0.021559)
 36:   1480.92   0.002195   11.09  0.000462  (-0.021165 -0.000089 -0.003804)
 37:   1482.51   0.000133    0.67  0.000028  ( 0.000345 -0.005271  0.000008)
 38:   1499.63   0.000724    3.66  0.000151  (-0.006817  0.000003 -0.010208)
 39:   1513.82   0.000537    2.71  0.000111  ( 0.000006  0.010522  0.000001)
 40:   2900.92   0.006665   33.68  0.000717  ( 0.000090 -0.026768  0.000681)
 41:   2906.28   0.030524  154.25  0.003278  ( 0.006595  0.000304  0.056868)
 42:   3025.28   0.005435   27.47  0.000561  (-0.014974 -0.000009  0.018341)
 43:   3045.60   0.004189   21.17  0.000429  ( 0.001076 -0.020629  0.001576)
 44:   3045.83   0.003506   17.72  0.000359  (-0.010579 -0.002041 -0.015593)
 45:   3088.57   0.010763   54.39  0.001088  ( 0.011754 -0.030590 -0.003690)
 46:   3089.02   0.008504   42.98  0.000859  (-0.024066 -0.015465  0.006384)
 47:   3091.97   0.003422   17.29  0.000345  ( 0.013760 -0.001026  0.012449)
 48:   3102.96   0.003796   19.18  0.000382  ( 0.000108 -0.019508 -0.001081)
 49:   3106.06   0.009886   49.96  0.000993  (-0.005060 -0.000678  0.031100)
 50:   3530.38   0.000103    0.52  0.000009  ( 0.002547  0.000001  0.001620)

* The epsilon (eps) is given for a Dirac delta lineshape.
** The dipole moment derivative (T) already includes vibrational overlap.

The first frequency considered to be a vibration is 6
The total number of vibrations considered is 45


--------------------------
THERMOCHEMISTRY AT 298.15K
--------------------------

Temperature         ...   298.15 K
Pressure            ...     1.00 atm
Total Mass          ...    85.15 AMU
Quasi RRHO          ...     True
Cut-Off Frequency   ...     1.00 cm^-1

Throughout the following assumptions are being made:
  (1) The electronic state is orbitally nondegenerate
  (2) There are no thermally accessible electronically excited states
  (3) Hindered rotations indicated by low frequency modes are not
      treated as such but are treated as vibrations and this may
      cause some error
  (4) All equations used are the standard statistical mechanics
      equations for an ideal gas
  (5) All vibrations are strictly harmonic

freq.     249.39  E(vib)   ...       0.31 
freq.     255.82  E(vib)   ...       0.30 
freq.     405.54  E(vib)   ...       0.19 
freq.     440.71  E(vib)   ...       0.17 
freq.     456.65  E(vib)   ...       0.16 
freq.     550.80  E(vib)   ...       0.12 
freq.     774.48  E(vib)   ...       0.05 
freq.     830.96  E(vib)   ...       0.04 
freq.     851.37  E(vib)   ...       0.04 
freq.     885.84  E(vib)   ...       0.04 
freq.     908.57  E(vib)   ...       0.03 
freq.     934.81  E(vib)   ...       0.03 
freq.     989.95  E(vib)   ...       0.02 
freq.    1069.16  E(vib)   ...       0.02 
freq.    1080.56  E(vib)   ...       0.02 
freq.    1086.50  E(vib)   ...       0.02 
freq.    1174.60  E(vib)   ...       0.01 
freq.    1175.62  E(vib)   ...       0.01 
freq.    1181.44  E(vib)   ...       0.01 
freq.    1219.58  E(vib)   ...       0.01 
freq.    1295.37  E(vib)   ...       0.01 
freq.    1300.90  E(vib)   ...       0.01 
freq.    1323.76  E(vib)   ...       0.01 
freq.    1354.30  E(vib)   ...       0.01 
freq.    1380.69  E(vib)   ...       0.01 
freq.    1393.17  E(vib)   ...       0.00 
freq.    1398.58  E(vib)   ...       0.00 
freq.    1441.48  E(vib)   ...       0.00 
freq.    1456.71  E(vib)   ...       0.00 
freq.    1465.84  E(vib)   ...       0.00 
freq.    1480.92  E(vib)   ...       0.00 
freq.    1482.51  E(vib)   ...       0.00 
freq.    1499.63  E(vib)   ...       0.00 
freq.    1513.82  E(vib)   ...       0.00 
freq.    2900.92  E(vib)   ...       0.00 
freq.    2906.28  E(vib)   ...       0.00 
freq.    3025.28  E(vib)   ...       0.00 
freq.    3045.60  E(vib)   ...       0.00 
freq.    3045.83  E(vib)   ...       0.00 
freq.    3088.57  E(vib)   ...       0.00 
freq.    3089.02  E(vib)   ...       0.00 
freq.    3091.97  E(vib)   ...       0.00 
freq.    3102.96  E(vib)   ...       0.00 
freq.    3106.06  E(vib)   ...       0.00 
freq.    3530.38  E(vib)   ...       0.00 

------------
INNER ENERGY
------------

The inner energy is: U= E(el) + E(ZPE) + E(vib) + E(rot) + E(trans)
    E(el)   - is the total energy from the electronic structure calculation
              = E(kin-el) + E(nuc-el) + E(el-el) + E(nuc-nuc)
    E(ZPE)  - the the zero temperature vibrational energy from the frequency calculation
    E(vib)  - the the finite temperature correction to E(ZPE) due to population
              of excited vibrational states
    E(rot)  - is the rotational thermal energy
    E(trans)- is the translational thermal energy

Summary of contributions to the inner energy U:
Electronic energy                ...   -251.41012757 Eh
Zero point energy                ...      0.16002503 Eh     100.42 kcal/mol
Thermal vibrational correction   ...      0.00265957 Eh       1.67 kcal/mol
Thermal rotational correction    ...      0.00141627 Eh       0.89 kcal/mol
Thermal translational correction ...      0.00141627 Eh       0.89 kcal/mol
-----------------------------------------------------------------------
Total thermal energy                   -251.24461042 Eh


Summary of corrections to the electronic energy:
(perhaps to be used in another calculation)
Total thermal correction                  0.00549211 Eh       3.45 kcal/mol
Non-thermal (ZPE) correction              0.16002503 Eh     100.42 kcal/mol
-----------------------------------------------------------------------
Total correction                          0.16551714 Eh     103.86 kcal/mol


--------
ENTHALPY
--------

The enthalpy is H = U + kB*T
                kB is Boltzmann's constant
Total thermal energy              ...   -251.24461042 Eh 
Thermal Enthalpy correction       ...      0.00094421 Eh       0.59 kcal/mol
-----------------------------------------------------------------------
Total Enthalpy                    ...   -251.24366622 Eh


Note: Only C1 symmetry has been detected, increase convergence thresholds 
      if your molecule has a higher symmetry. Symmetry factor of 1.0 is   
      used for the rotational entropy correction. 
 

Note: Rotational entropy computed according to Herzberg 
Infrared and Raman Spectra, Chapter V,1, Van Nostrand Reinhold, 1945 
Point Group:  C1, Symmetry Number:   1  
Rotational constants in cm-1:     0.151873     0.148898     0.085191 

Vibrational entropy computed according to the QRRHO of S. Grimme
Chem.Eur.J. 2012 18 9955 using a reference frequency of 100.0 cm-1


-------
ENTROPY
-------

The entropy contributions are T*S = T*(S(el)+S(vib)+S(rot)+S(trans))
     S(el)   - electronic entropy
     S(vib)  - vibrational entropy
     S(rot)  - rotational entropy
     S(trans)- translational entropy
The entropies will be listed as multiplied by the temperature to get
units of energy

Electronic entropy                ...      0.00000000 Eh      0.00 kcal/mol
Vibrational entropy               ...      0.00391439 Eh      2.46 kcal/mol
Rotational entropy                ...      0.01246235 Eh      7.82 kcal/mol
Translational entropy             ...      0.01864357 Eh     11.70 kcal/mol
-----------------------------------------------------------------------
Final entropy term                ...      0.03502031 Eh     21.98 kcal/mol

In case the symmetry of your molecule has not been determined correctly
or in case you have a reason to use a different symmetry number we print 
out the resulting rotational entropy values for sn=1,12:

 non-linear molecules -----------------------------------
|  sn= 1 | S(rot)=       0.01246235 Eh      7.82 kcal/mol|
|  sn= 2 | S(rot)=       0.01180789 Eh      7.41 kcal/mol|
|  sn= 3 | S(rot)=       0.01142506 Eh      7.17 kcal/mol|
|  sn= 4 | S(rot)=       0.01115344 Eh      7.00 kcal/mol|
|  sn= 5 | S(rot)=       0.01094275 Eh      6.87 kcal/mol|
|  sn= 6 | S(rot)=       0.01077060 Eh      6.76 kcal/mol|
|  sn= 7 | S(rot)=       0.01062506 Eh      6.67 kcal/mol|
|  sn= 8 | S(rot)=       0.01049898 Eh      6.59 kcal/mol|
|  sn= 9 | S(rot)=       0.01038777 Eh      6.52 kcal/mol|
|  sn=10 | S(rot)=       0.01028829 Eh      6.46 kcal/mol|
|  sn=11 | S(rot)=       0.01019830 Eh      6.40 kcal/mol|
|  sn=12 | S(rot)=       0.01011615 Eh      6.35 kcal/mol|
 linear molecules ---------------------------------------
|  Dinfh | S(rot)=       0.00765119 Eh      4.80 kcal/mol|
|  Cinfv | S(rot)=       0.00830564 Eh      5.21 kcal/mol|
 --------------------------------------------------------


-------------------
GIBBS FREE ENERGY
-------------------

The Gibbs free energy is G = H - T*S

Total enthalpy                    ...   -251.24366622 Eh 
Total entropy correction          ...     -0.03502031 Eh    -21.98 kcal/mol
-----------------------------------------------------------------------
Final Gibbs free energy         ...   -251.27868653 Eh

For completeness - the Gibbs free energy minus the electronic energy
G-E(el)                           ...      0.13144104 Eh     82.48 kcal/mol


Maximum memory used throughout the entire PROP-calculation: 36.2 MB

--------------------------------
SUGGESTED CITATIONS FOR THIS RUN
--------------------------------

Below you find a list of papers that are relevant to this ORCA run
We neither can nor want to force you to cite these papers, but we appreciate if you do
You receive ORCA, which is the product of decades of hard work by many enthusiastic individuals, for free
The only thing we kindly ask in return is that you cite our papers,
We deeply appreciate it, if you show your appreciation for ORCA by not just citing the generic ORCA reference.

Please note that relegating all ORCA citations to the supporting information does *not* help us.
SI sections are not indexed - citations you put there will not count into any citation statistics
But we need these citations in order to attract the funding resources that allow us to do what we are doing

Therefore, if you are a happy ORCA user, please consider citing a few of the papers listed below in the main body of your paper

In addition to the list printed below, the program has created the file cs_rporg_074_red_opt_01.bibtex that contains the list in bibtex format
You can import this file easily into all common literature databanks and citation aid programs


List of essential papers. We consider these as the minimum necessary citations

  1. Neese,F.
     Software update: the ORCA program system, version 5.0
     WIRES Comput. Molec. Sci., 2022 12(1)e1606
     doi.org/10.1002/wcms.1606

List of papers to cite with high priority. The work reported in these papers was absolutely
necessary for this run to complete.
Our perspective: the developers of density functionals and basis sets usually get cited in chemistry papers
Good! But without the algorithms to do something with them, the functionals or basis sets would not do anything.
Hence, in our opinion, the algorithm design and method developments papers are equally worthy of getting cited

  1. Neese,F.
     An improvement of the resolution of the identity approximation for the formation of the Coulomb matrix
     J. Comp. Chem., 2003 24(14)1740-1747
     doi.org/10.1002/jcc.10318
  2. Neese,F.; Wennmohs,F.; Hansen,A.; Becker,U.
     Efficient, approximate and parallel Hartree-Fock and hybrid DFT calculations. A 'chain-of-spheres' algorithm for the Hartree-Fock exchange
     Chem. Phys., 2009 356(1-3)98-109
     doi.org/10.1016/j.chemphys.2008.10.036
  3. Bykov,D.; Petrenko,T.; Izsak,R.; Kossmann,S.; Becker,U.; Valeev,E.; Neese,F.
     Efficient implementation of the analytic second derivatives of Hartree-Fock and hybrid DFT energies: a detailed analysis of different approximations
     Molec. Phys., 2015 113 1961-1977
     doi.org/10.1080/00268976.2015.1025114
  4. Helmich-Paris,B.; de Souza,B.; Neese,F.; Izsák,R.
     An improved chain of spheres for exchange algorithm
     J. Chem. Phys., 2021 155 104109
     doi.org/doi: 10.1063/5.0058766.
  5. Neese,F.
     The SHARK Integral Generation and Digestion System
     J. Comp. Chem., 2022  1-16
     doi.org/10.1002/jcc.26942
  6. Grimme,S.; Antony,J.; Ehrlich,S.; Krieg,H.
     A consistent and accurate ab initio parametrization of density functional dispersion correction (DFT-D) for the 94 elements H-Pu
     J. Chem. Phys., 2010 132 154104-XXXX
     doi.org/10.1063/1.3382344
  7. Grimme,S.; Ehrlich,S.; Goerigk,L.
     Effect of the damping function in dispersion corrected density functional theory
     J. Comput. Chem., 2011 32(7)1456-1465
     doi.org/10.1002/jcc.21759

List of suggested additional citations. These are papers that are important in the 'surrounding' of 
of this run, or papers that preceded the highly important papers. If you like your results we are grateful for a citation.

  1. Izsak,R.; Neese,F.
     An overlap fitted chain of spheres exchange method
     J. Chem. Phys., 2011 135 144105
     doi.org/10.1063/1.3646921
  2. Izsak,R.; Hansen,A.; Neese,F.
     The resolution of identity and chain of spheres approximations for the LPNO-CCSD singles Fock term
     Molec. Phys., 2012 110 2413-2417
     doi.org/10.1080/00268976.2012.687466
  3. Neese,F.
     The ORCA program system
     WIRES Comput. Molec. Sci., 2012 2(1)73-78
     doi.org/10.1002/wcms.81
  4. Izsak,R.; Neese,F.; Klopper,W.
     Robust fitting techniques in the chain of spheres approximation to the Fock exchange: The role of the complementary space
     J. Chem. Phys., 2013 139 
     doi.org/10.1063/1.4819264
  5. Neese,F.
     Software update: the ORCA program system, version 4.0
     WIRES Comput. Molec. Sci., 2018 8(1)1-6
     doi.org/10.1002/wcms.1327
  6. Neese,F.; Wennmohs,F.; Becker,U.; Riplinger,C.
     The ORCA quantum chemistry program package
     J. Chem. Phys., 2020 152 Art. No. L224108
     doi.org/10.1063/5.0004608

List of optional additional citations

  1. Neese,F.
     Approximate second-order SCF convergence for spin unrestricted wavefunctions
     Chem. Phys. Lett., 2000 325(1-3)93-98
     doi.org/10.1016/s0009-2614(00)00662-x

Timings for individual modules:

Sum of individual times          ...      303.861 sec (=   5.064 min)
Startup calculation              ...       19.061 sec (=   0.318 min)   6.3 %
SCF iterations                   ...       97.194 sec (=   1.620 min)  32.0 %
Property integrals               ...       33.506 sec (=   0.558 min)  11.0 %
SCF Response                     ...       52.487 sec (=   0.875 min)  17.3 %
Property calculations            ...       66.829 sec (=   1.114 min)  22.0 %
SCF Gradient evaluation          ...       34.532 sec (=   0.576 min)  11.4 %
Geometry relaxation              ...        0.252 sec (=   0.004 min)   0.1 %
                             ****ORCA TERMINATED NORMALLY****
TOTAL RUN TIME: 0 days 0 hours 5 minutes 20 seconds 493 msec
