 vasp.6.4.2 20Jul23 (build Sep 06 2024 14:39:43) complex                        
  
 executed on             LinuxIFC date 2025.10.04  18:21:12
 running   90 mpi-ranks, on    6 nodes
 distrk:  each k-point on   90 cores,    1 groups
 distr:  one band on NCORE=  15 cores,    6 groups


--------------------------------------------------------------------------------------------------------


 INCAR:
   SYSTEM = 015_red
   ISTART = 1
   ICHARG = 2
   INIWAV = 1
   NELM = 100
   ALGO = fast   	
   ISPIN = 2
   EDIFF = 1E-05
   ISMEAR = 0
   SIGMA = 0.05
   PREC = accurate
   ENCUT = 500
   LREAL = auto  	
   LWAVE = .TRUE.
   LCHARG = .FALSE.
   LAECHG = .FALSE.
   LVHAR = .FALSE.
   LVTOT = .FALSE.
   EDIFFG = -0.02
   IBRION = 2
   NSW = 500
   ISIF = 2
   POTIM = 0.5
   IVDW = 11
   LPLANE = .TRUE.
   NCORE = 15
   LSCALU = .FALSE.
   NSIM = 4
   LSOL = .TRUE.
   EB_K = 35.6880
   LAMBDA_D_K = 6.60
   TAU = 0

 POTCAR:    PAW_PBE C 08Apr2002                   
 POTCAR:    PAW_PBE H 15Jun2001                   
 -----------------------------------------------------------------------------
|                                                                             |
|           W    W    AA    RRRRR   N    N  II  N    N   GGGG   !!!           |
|           W    W   A  A   R    R  NN   N  II  NN   N  G    G  !!!           |
|           W    W  A    A  R    R  N N  N  II  N N  N  G       !!!           |
|           W WW W  AAAAAA  RRRRR   N  N N  II  N  N N  G  GGG   !            |
|           WW  WW  A    A  R   R   N   NN  II  N   NN  G    G                |
|           W    W  A    A  R    R  N    N  II  N    N   GGGG   !!!           |
|                                                                             |
|     You use a magnetic or noncollinear calculation, but did not specify     |
|     the initial magnetic moment with the MAGMOM tag. Note that a            |
|     default of 1 will be used for all atoms. This ferromagnetic setup       |
|     may break the symmetry of the crystal, in particular it may rule        |
|     out finding an antiferromagnetic solution. Thence, we recommend         |
|     setting the initial magnetic moment manually or verifying carefully     |
|     that this magnetic setup is desired.                                    |
|                                                                             |
 -----------------------------------------------------------------------------

 POTCAR:    PAW_PBE C 08Apr2002                   
   SHA256 =  253f7b50bb8d59471dbedb8285d89021f4a42ed1a2c5d38a03a736e69125dd95 C/POTCAR              
   COPYR  = (c) Copyright 08Apr2002 Georg Kresse                                                    
   COPYR  = This file is part of the software VASP. Any use, copying, and all other rights are regul
   COPYR  = If you do not have a valid VASP license, you may not use, copy or distribute this file. 
   VRHFIN =C: s2p2                                                                                  
   LEXCH  = PE                                                                                      
   EATOM  =   147.1560 eV,   10.8157 Ry                                                             
                                                                                                    
   TITEL  = PAW_PBE C 08Apr2002                                                                     
   LULTRA =        F    use ultrasoft PP ?                                                          
   IUNSCR =        1    unscreen: 0-lin 1-nonlin 2-no                                               
   RPACOR =    1.200    partial core radius                                                         
   POMASS =   12.011; ZVAL   =    4.000    mass and valenz                                          
   RCORE  =    1.500    outmost cutoff radius                                                       
   RWIGS  =    1.630; RWIGS  =    0.863    wigner-seitz radius (au A)                               
   ENMAX  =  400.000; ENMIN  =  300.000 eV                                                          
   ICORE  =        2    local potential                                                             
   LCOR   =        T    correct aug charges                                                         
   LPAW   =        T    paw PP                                                                      
   EAUG   =  644.873                                                                                
   DEXC   =    0.000                                                                                
   RMAX   =    1.529    core radius for proj-oper                                                   
   RAUG   =    1.300    factor for augmentation sphere                                              
   RDEP   =    1.501    radius for radial grids                                                     
   RDEPT  =    1.300    core radius for aug-charge                                                  
                                                                                                    
   Atomic configuration                                                                             
    4 entries                                                                                       
     n  l   j            E        occ.                                                              
     1  0  0.50      -273.3789   2.0000                                                             
     2  0  0.50       -13.7508   2.0000                                                             
     2  1  0.50        -5.2854   2.0000                                                             
     3  2  1.50        -5.4423   0.0000                                                             
   Description                                                                                      
     l       E           TYP  RCUT    TYP  RCUT                                                     
     0    -13.7508458     23  1.200                                                                 
     0     -8.2022199     23  1.200                                                                 
     1     -5.2854383     23  1.500                                                                 
     1     34.0145650     23  1.500                                                                 
     2     -5.4423304      7  1.500                                                                 
  local pseudopotential read in
  partial core-charges read in
  partial kinetic energy density read in
  atomic valenz-charges read in
  non local Contribution for L=           0  read in
    real space projection operators read in
  non local Contribution for L=           0  read in
    real space projection operators read in
  non local Contribution for L=           1  read in
    real space projection operators read in
  non local Contribution for L=           1  read in
    real space projection operators read in
    PAW grid and wavefunctions read in
 
   number of l-projection  operators is LMAX  =           4
   number of lm-projection operators is LMMAX =           8
 
 POTCAR:    PAW_PBE H 15Jun2001                   
   SHA256 =  030f79b5d3ab3cf0e668861823c8fb652ff669f3e15e46930bd03bfd63a607b6 H/POTCAR              
   COPYR  = (c) Copyright 15Jun2001 Georg Kresse                                                    
   COPYR  = This file is part of the software VASP. Any use, copying, and all other rights are regul
   COPYR  = If you do not have a valid VASP license, you may not use, copy or distribute this file. 
   VRHFIN =H: ultrasoft test                                                                        
   LEXCH  = PE                                                                                      
   EATOM  =    12.4884 eV,    0.9179 Ry                                                             
                                                                                                    
   TITEL  = PAW_PBE H 15Jun2001                                                                     
   LULTRA =        F    use ultrasoft PP ?                                                          
   IUNSCR =        0    unscreen: 0-lin 1-nonlin 2-no                                               
   RPACOR =    0.000    partial core radius                                                         
   POMASS =    1.000; ZVAL   =    1.000    mass and valenz                                          
   RCORE  =    1.100    outmost cutoff radius                                                       
   RWIGS  =    0.700; RWIGS  =    0.370    wigner-seitz radius (au A)                               
   ENMAX  =  250.000; ENMIN  =  200.000 eV                                                          
   RCLOC  =    0.701    cutoff for local pot                                                        
   LCOR   =        T    correct aug charges                                                         
   LPAW   =        T    paw PP                                                                      
   EAUG   =  400.000                                                                                
   RMAX   =    1.123    core radius for proj-oper                                                   
   RAUG   =    1.200    factor for augmentation sphere                                              
   RDEP   =    1.112    radius for radial grids                                                     
   RDEPT  =    0.926    core radius for aug-charge                                                  
                                                                                                    
   Atomic configuration                                                                             
    2 entries                                                                                       
     n  l   j            E        occ.                                                              
     1  0  0.50        -6.4927   1.0000                                                             
     2  1  0.50        -3.4015   0.0000                                                             
   Description                                                                                      
     l       E           TYP  RCUT    TYP  RCUT                                                     
     0     -6.4927494     23  1.100                                                                 
     0      6.8029130     23  1.100                                                                 
     1     -4.0817478     23  1.100                                                                 
  local pseudopotential read in
  atomic valenz-charges read in
  non local Contribution for L=           0  read in
    real space projection operators read in
  non local Contribution for L=           0  read in
    real space projection operators read in
  non local Contribution for L=           1  read in
    real space projection operators read in
    PAW grid and wavefunctions read in
 
   number of l-projection  operators is LMAX  =           3
   number of lm-projection operators is LMMAX =           5
 
 Optimization of the real space projectors (new method)

 maximal supplied QI-value         = 25.13
 optimisation between [QCUT,QGAM] = [ 11.31, 22.87] = [ 35.82,146.48] Ry 
 Optimized for a Real-space Cutoff    1.03 Angstroem

   l    n(q)    QCUT    max X(q) W(low)/X(q) W(high)/X(q)  e(spline) 
   0      7    11.310   115.676    0.20E-03    0.90E-03    0.20E-06
   0      7    11.310    87.132    0.20E-03    0.89E-03    0.19E-06
   1      6    11.310     4.429    0.16E-03    0.28E-03    0.12E-06
   1      6    11.310     2.733    0.12E-03    0.21E-03    0.99E-07
 Optimization of the real space projectors (new method)

 maximal supplied QI-value         = 34.20
 optimisation between [QCUT,QGAM] = [ 11.29, 22.57] = [ 35.68,142.71] Ry 
 Optimized for a Real-space Cutoff    1.20 Angstroem

   l    n(q)    QCUT    max X(q) W(low)/X(q) W(high)/X(q)  e(spline) 
   0      8    11.287    19.460    0.22E-03    0.50E-03    0.19E-06
   0      8    11.287    12.209    0.21E-03    0.48E-03    0.18E-06
   1      8    11.287     4.655    0.21E-03    0.11E-04    0.26E-06
  PAW_PBE C 08Apr2002                   :
 energy of atom  1       EATOM= -147.1560
 kinetic energy error for atom=    0.0076 (will be added to EATOM!!)
  PAW_PBE H 15Jun2001                   :
 energy of atom  2       EATOM=  -12.4884
 kinetic energy error for atom=    0.0020 (will be added to EATOM!!)
 
 
 POSCAR: C H
  positions in direct lattice
  velocities in cartesian coordinates
 exchange correlation table for  LEXCH =        8
   RHO(1)=    0.500       N(1)  =     2000
   RHO(2)=  100.500       N(2)  =     4000
 


--------------------------------------------------------------------------------------------------------


 ion  position               nearest neighbor table
   1  0.560  0.480  0.517-  26 1.09   6 1.40   2 1.41
   2  0.532  0.490  0.499-   1 1.41   3 1.41   7 1.49
   3  0.535  0.520  0.480-  18 1.09   4 1.40   2 1.41
   4  0.565  0.537  0.478-  17 1.09   3 1.40   5 1.40
   5  0.593  0.526  0.495-  16 1.09   6 1.40   4 1.40
   6  0.590  0.497  0.515-  15 1.09   1 1.40   5 1.40
   7  0.500  0.471  0.500-   8 1.35   2 1.49   9 1.49
   8  0.500  0.437  0.500-  20 1.09  19 1.09   7 1.35
   9  0.468  0.490  0.501-  10 1.41  14 1.41   7 1.49
  10  0.440  0.480  0.483-  25 1.09  11 1.40   9 1.41
  11  0.410  0.497  0.485-  24 1.09  10 1.40  12 1.40
  12  0.407  0.526  0.505-  23 1.09  11 1.40  13 1.40
  13  0.435  0.537  0.522-  22 1.09  14 1.40  12 1.40
  14  0.465  0.520  0.520-  21 1.09  13 1.40   9 1.41
  15  0.612  0.488  0.530-   6 1.09
  16  0.616  0.540  0.494-   5 1.09
  17  0.566  0.559  0.462-   4 1.09
  18  0.513  0.528  0.466-   3 1.09
  19  0.477  0.423  0.502-   8 1.09
  20  0.523  0.423  0.498-   8 1.09
  21  0.487  0.528  0.534-  14 1.09
  22  0.434  0.559  0.538-  13 1.09
  23  0.384  0.540  0.506-  12 1.09
  24  0.388  0.488  0.470-  11 1.09
  25  0.442  0.457  0.467-  10 1.09
  26  0.558  0.457  0.533-   1 1.09
 
  LATTYP: Found a simple cubic cell.
 ALAT       =    40.0000000000
  
  Lattice vectors:
  
 A1 = (  40.0000000000,   0.0000000000,   0.0000000000)
 A2 = (   0.0000000000,  40.0000000000,   0.0000000000)
 A3 = (   0.0000000000,   0.0000000000,  40.0000000000)


Analysis of symmetry for initial positions (statically):
=====================================================================
 Subroutine PRICEL returns:
 Original cell was already a primitive cell.
 

 Routine SETGRP: Setting up the symmetry group for a 
 simple cubic supercell.


 Subroutine GETGRP returns: Found  2 space group operations
 (whereof  2 operations were pure point group operations)
 out of a pool of 48 trial point group operations.


The static configuration has the point symmetry C_2 .


Analysis of symmetry for dynamics (positions and initial velocities):
=====================================================================
 Subroutine PRICEL returns:
 Original cell was already a primitive cell.
 

 Routine SETGRP: Setting up the symmetry group for a 
 simple cubic supercell.


 Subroutine GETGRP returns: Found  2 space group operations
 (whereof  2 operations were pure point group operations)
 out of a pool of 48 trial point group operations.


The dynamic configuration has the point symmetry C_2 .


Analysis of constrained symmetry for selective dynamics:
=====================================================================
 Subroutine PRICEL returns:
 Original cell was already a primitive cell.
 

 Routine SETGRP: Setting up the symmetry group for a 
 simple cubic supercell.


 Subroutine GETGRP returns: Found  2 space group operations
 (whereof  2 operations were pure point group operations)
 out of a pool of 48 trial point group operations.


The constrained configuration has the point symmetry C_2 .


Analysis of structural, dynamic, and magnetic symmetry:
=====================================================================
 Subroutine PRICEL returns:
 Original cell was already a primitive cell.
 

 Routine SETGRP: Setting up the symmetry group for a 
 simple cubic supercell.


 Subroutine GETGRP returns: Found  2 space group operations
 (whereof  2 operations were pure point group operations)
 out of a pool of 48 trial point group operations.


The overall configuration has the point symmetry C_2 .


 Subroutine INISYM returns: Found  2 space group operations
 (whereof  2 operations are pure point group operations),
 and found     1 'primitive' translations


----------------------------------------------------------------------------------------

                                     Primitive cell                                     

  volume of cell :   64000.0000

  direct lattice vectors                    reciprocal lattice vectors
    40.000000000  0.000000000  0.000000000     0.025000000  0.000000000  0.000000000
     0.000000000 40.000000000  0.000000000     0.000000000  0.025000000  0.000000000
     0.000000000  0.000000000 40.000000000     0.000000000  0.000000000  0.025000000

  length of vectors
    40.000000000 40.000000000 40.000000000     0.025000000  0.025000000  0.025000000

  position of ions in fractional coordinates (direct lattice)
     0.560022379  0.479511875  0.516955484
     0.531821520  0.490331253  0.498984748
     0.534593642  0.519523083  0.479536618
     0.564740667  0.536978972  0.477661762
     0.592668979  0.525816385  0.495498386
     0.590155566  0.497038585  0.515197618
     0.500000000  0.471204680  0.500000000
     0.500000000  0.437447053  0.499999000
     0.468178480  0.490331253  0.501015252
     0.439977621  0.479512875  0.483044516
     0.409844434  0.497039585  0.484802382
     0.407331021  0.525817385  0.504501614
     0.435259333  0.536978972  0.522339238
     0.465406358  0.519523083  0.520464382
     0.611668899  0.488387245  0.529529886
     0.616157536  0.539578162  0.494213204
     0.566425295  0.559398493  0.462247463
     0.512946141  0.528398173  0.465538238
     0.476820759  0.423248708  0.501870216
     0.523178241  0.423247708  0.498127784
     0.487053859  0.528397173  0.534462762
     0.433574705  0.559397493  0.537754537
     0.383842464  0.539579162  0.505787796
     0.388331101  0.488388245  0.470469114
     0.441950838  0.457461700  0.467132441
     0.558049162  0.457460700  0.532865559

  ion indices of the primitive-cell ions
   primitive index   ion index
                 1           1
                 2           2
                 3           3
                 4           4
                 5           5
                 6           6
                 7           7
                 8           8
                 9           9
                10          10
                11          11
                12          12
                13          13
                14          14
                15          15
                16          16
                17          17
                18          18
                19          19
                20          20
                21          21
                22          22
                23          23
                24          24
                25          25
                26          26

----------------------------------------------------------------------------------------

 
 
 KPOINTS: K-Point Grid                            

Automatic generation of k-mesh.
 Grid dimensions read from file:
 generate k-points for:    1    1    1

 Generating k-lattice:

  Cartesian coordinates                     Fractional coordinates (reciprocal lattice)
     0.025000000  0.000000000  0.000000000     1.000000000  0.000000000  0.000000000
     0.000000000  0.025000000  0.000000000     0.000000000  1.000000000  0.000000000
     0.000000000  0.000000000  0.025000000     0.000000000  0.000000000  1.000000000

  Length of vectors
     0.025000000  0.025000000  0.025000000

  Shift w.r.t. Gamma in fractional coordinates (k-lattice)
     0.000000000  0.000000000  0.000000000

 
 Subroutine IBZKPT returns following result:
 ===========================================
 
 Found      1 irreducible k-points:
 
 Following reciprocal coordinates:
            Coordinates               Weight
  0.000000  0.000000  0.000000      1.000000
 
 Following cartesian coordinates:
            Coordinates               Weight
  0.000000  0.000000  0.000000      1.000000
 


--------------------------------------------------------------------------------------------------------




 Dimension of arrays:
   k-points           NKPTS =      1   k-points in BZ     NKDIM =      1   number of bands    NBANDS=     66
   number of dos      NEDOS =    301   number of ions     NIONS =     26
   non local maximal  LDIM  =      4   non local SUM 2l+1 LMDIM =      8
   total plane-waves  NPLWV = ******
   max r-space proj   IRMAX =   2915   max aug-charges    IRDMAX=   4885
   dimension x,y,z NGX =   294 NGY =  294 NGZ =  294
   dimension x,y,z NGXF=   588 NGYF=  588 NGZF=  588
   support grid    NGXF=   588 NGYF=  588 NGZF=  588
   ions per type =              14  12
   NGX,Y,Z   is equivalent  to a cutoff of  12.22, 12.22, 12.22 a.u.
   NGXF,Y,Z  is equivalent  to a cutoff of  24.44, 24.44, 24.44 a.u.

 SYSTEM =  015_red                                 
 POSCAR =  C H                                     

 Startparameter for this run:
   NWRITE =      2    write-flag & timer
   PREC   = accura    normal or accurate (medium, high low for compatibility)
   ISTART =      1    job   : 0-new  1-cont  2-samecut
   ICHARG =      2    charge: 1-file 2-atom 10-const
   ISPIN  =      2    spin polarized calculation?
   LNONCOLLINEAR =      F non collinear calculations
   LSORBIT =      F    spin-orbit coupling
   INIWAV =      1    electr: 0-lowe 1-rand  2-diag
   LASPH  =      F    aspherical Exc in radial PAW
 Electronic Relaxation 1
   ENCUT  =  500.0 eV  36.75 Ry    6.06 a.u.  72.93 72.93 72.93*2*pi/ulx,y,z
   ENINI  =  500.0     initial cutoff
   ENAUG  =  644.9 eV  augmentation charge cutoff
   NELM   =    100;   NELMIN=  2; NELMDL=  0     # of ELM steps 
   EDIFF  = 0.1E-04   stopping-criterion for ELM
   LREAL  =      T    real-space projection
   NLSPLINE    = F    spline interpolate recip. space projectors
   LCOMPAT=      F    compatible to vasp.4.4
   GGA_COMPAT  = T    GGA compatible to vasp.4.4-vasp.4.6
   LMAXPAW     = -100 max onsite density
   LMAXMIX     =    2 max onsite mixed and CHGCAR
   VOSKOWN=      0    Vosko Wilk Nusair interpolation
   ROPT   =   -0.00025  -0.00025
 Ionic relaxation
   EDIFFG = -.2E-01   stopping-criterion for IOM
   NSW    =    500    number of steps for IOM
   NBLOCK =      1;   KBLOCK =    500    inner block; outer block 
   IBRION =      2    ionic relax: 0-MD 1-quasi-New 2-CG
   NFREE  =      1    steps in history (QN), initial steepest desc. (CG)
   ISIF   =      2    stress and relaxation
   IWAVPR =     11    prediction:  0-non 1-charg 2-wave 3-comb
   ISYM   =      2    0-nonsym 1-usesym 2-fastsym
   LCORR  =      T    Harris-Foulkes like correction to forces

   POTIM  = 0.5000    time-step for ionic-motion
   TEIN   =    0.0    initial temperature
   TEBEG  =    0.0;   TEEND  =   0.0 temperature during run
   SMASS  =  -3.00    Nose mass-parameter (am)
   estimated Nose-frequenzy (Omega)   =  0.10E-29 period in steps = 0.13E+47 mass=  -0.366E-25a.u.
   SCALEE = 1.0000    scale energy and forces
   NPACO  =    256;   APACO  = 10.0  distance and # of slots for P.C.
   PSTRESS=    0.0 pullay stress

  Mass of Ions in am
   POMASS =  12.01  1.00
  Ionic Valenz
   ZVAL   =   4.00  1.00
  Atomic Wigner-Seitz radii
   RWIGS  =  -1.00 -1.00
  virtual crystal weights 
   VCA    =   1.00  1.00
   NELECT =      68.0000    total number of electrons
   NUPDOWN=      -1.0000    fix difference up-down

 DOS related values:
   EMIN   =  10.00;   EMAX   =-10.00  energy-range for DOS
   EFERMI =   0.00;   METHOD = LEGACY      
   ISMEAR =     0;   SIGMA  =   0.05  broadening in eV -4-tet -1-fermi 0-gaus

 Electronic relaxation 2 (details)
   IALGO  =     68    algorithm
   LDIAG  =      T    sub-space diagonalisation (order eigenvalues)
   LSUBROT=      F    optimize rotation matrix (better conditioning)
   TURBO    =      0    0=normal 1=particle mesh
   IRESTART =      0    0=no restart 2=restart with 2 vectors
   NREBOOT  =      0    no. of reboots
   NMIN     =      0    reboot dimension
   EREF     =   0.00    reference energy to select bands
   IMIX   =      4    mixing-type and parameters
     AMIX     =   0.40;   BMIX     =  1.00
     AMIX_MAG =   1.60;   BMIX_MAG =  1.00
     AMIN     =   0.10
     WC   =   100.;   INIMIX=   1;  MIXPRE=   1;  MAXMIX= -45

 Intra band minimization:
   WEIMIN = 0.0010     energy-eigenvalue tresh-hold
   EBREAK =  0.38E-07  absolut break condition
   DEPER  =   0.30     relativ break condition  

   TIME   =   0.40     timestep for ELM

  volume/ion in A,a.u.               =    2461.54     16611.28
  Fermi-wavevector in a.u.,A,eV,Ry     =   0.167052  0.315682  0.379688  0.027906
  Thomas-Fermi vector in A             =   0.871524
 
 Write flags
   LWAVE        =      T    write WAVECAR
   LDOWNSAMPLE  =      F    k-point downsampling of WAVECAR
   LCHARG       =      F    write CHGCAR
   LVTOT        =      F    write LOCPOT, total local potential
   LVHAR        =      F    write LOCPOT, Hartree potential only
   LELF         =      F    write electronic localiz. function (ELF)
   LORBIT       =      0    0 simple, 1 ext, 2 COOP (PROOUT), +10 PAW based schemes


 Dipole corrections
   LMONO  =      F    monopole corrections only (constant potential shift)
   LDIPOL =      F    correct potential (dipole corrections)
   IDIPOL =      0    1-x, 2-y, 3-z, 4-all directions 
   EPSILON=  1.0000000 bulk dielectric constant

 Exchange correlation treatment:
   GGA     =    --    GGA type
   LEXCH   =     8    internal setting for exchange type
   LIBXC   =     F    Libxc                    
   VOSKOWN =     0    Vosko Wilk Nusair interpolation
   LHFCALC =     F    Hartree Fock is set to
   LHFONE  =     F    Hartree Fock one center treatment
   AEXX    =    0.0000 exact exchange contribution

 Linear response parameters
   LEPSILON=     F    determine dielectric tensor
   LRPA    =     F    only Hartree local field effects (RPA)
   LNABLA  =     F    use nabla operator in PAW spheres
   LVEL    =     F    velocity operator in full k-point grid
   CSHIFT  =0.1000    complex shift for real part using Kramers Kronig
   OMEGAMAX=  -1.0    maximum frequency
   DEG_THRESHOLD= 0.2000000E-02 threshold for treating states as degnerate
   RTIME   =   -0.100 relaxation time in fs
  (WPLASMAI=    0.000 imaginary part of plasma frequency in eV, 0.658/RTIME)
   DFIELD  = 0.0000000 0.0000000 0.0000000 field for delta impulse in time
 
  Optional k-point grid parameters
   LKPOINTS_OPT  =     F    use optional k-point grid
   KPOINTS_OPT_MODE=     1    mode for optional k-point grid
 
 Orbital magnetization related:
   ORBITALMAG=     F  switch on orbital magnetization
   LCHIMAG   =     F  perturbation theory with respect to B field
   DQ        =  0.001000  dq finite difference perturbation B field
   LLRAUG    =     F  two centre corrections for induced B field
   LBONE     =     F  B-component reconstruction in AE one-centre
   LVGVCALC  =     T  calculate vGv susceptibility
   LVGVAPPL  =     F  apply vGv susceptibility instead of pGv for G=0

 Random number generation:
   RANDOM_GENERATOR = DEFAULT
   PCG_SEED         = not used
 Solvation model:
   LSOL    =     T         switch on solvation model
   EB_K    = 35.688000     relative permittivity of the bulk solvent
   SIGMA_K =  0.600000     width of the dielectric cavity
   NC_K    =  0.002500     cutoff charge density
   TAU     =  0.000000     cavity surface tension
   LAMBDA_D_K    =  6.600000     Debye length in Angstroms
   LRHOB     =     F     write boundcharge  density
   LRHOION     =     F     write ioniccharge density



--------------------------------------------------------------------------------------------------------


 conjugate gradient relaxation of ions
   using selective dynamics as specified on POSCAR
 charge density and potential will be updated during run
 spin polarized calculation
 RMM-DIIS sequential band-by-band and
  variant of blocked Davidson during initial phase
 perform sub-space diagonalisation
    before iterative eigenvector-optimisation
 modified Broyden-mixing scheme, WC =      100.0
 initial mixing is a Kerker type mixing with AMIX =  0.4000 and BMIX =      1.0000
 Hartree-type preconditioning will be used
 using additional bands           32
 real space projection scheme for non local part
 use partial core corrections
 calculate Harris-corrections to forces 
   (improved forces if not selfconsistent)
 use gradient corrections 
 use of overlap-Matrix (Vanderbilt PP)
 Gauss-broadening in eV      SIGMA  =   0.05


--------------------------------------------------------------------------------------------------------


  energy-cutoff  :      500.00
  volume of cell :    64000.00
      direct lattice vectors                 reciprocal lattice vectors
    40.000000000  0.000000000  0.000000000     0.025000000  0.000000000  0.000000000
     0.000000000 40.000000000  0.000000000     0.000000000  0.025000000  0.000000000
     0.000000000  0.000000000 40.000000000     0.000000000  0.000000000  0.025000000

  length of vectors
    40.000000000 40.000000000 40.000000000     0.025000000  0.025000000  0.025000000


 
 old parameters found on file WAVECAR:
  energy-cutoff  :      500.00
  volume of cell :    64000.00
      direct lattice vectors                 reciprocal lattice vectors
    40.000000000  0.000000000  0.000000000     0.025000000  0.000000000  0.000000000
     0.000000000 40.000000000  0.000000000     0.000000000  0.025000000  0.000000000
     0.000000000  0.000000000 40.000000000     0.000000000  0.000000000  0.025000000

  length of vectors

 
 k-points in units of 2pi/SCALE and weight: K-Point Grid                            
   0.00000000  0.00000000  0.00000000       1.000
 
 k-points in reciprocal lattice and weights: K-Point Grid                            
   0.00000000  0.00000000  0.00000000       1.000
 
 position of ions in fractional coordinates (direct lattice) 
   0.56002238  0.47951187  0.51695548
   0.53182152  0.49033125  0.49898475
   0.53459364  0.51952308  0.47953662
   0.56474067  0.53697897  0.47766176
   0.59266898  0.52581639  0.49549839
   0.59015557  0.49703858  0.51519762
   0.50000000  0.47120468  0.50000000
   0.50000000  0.43744705  0.49999900
   0.46817848  0.49033125  0.50101525
   0.43997762  0.47951287  0.48304452
   0.40984443  0.49703958  0.48480238
   0.40733102  0.52581739  0.50450161
   0.43525933  0.53697897  0.52233924
   0.46540636  0.51952308  0.52046438
   0.61166890  0.48838725  0.52952989
   0.61615754  0.53957816  0.49421320
   0.56642529  0.55939849  0.46224746
   0.51294614  0.52839817  0.46553824
   0.47682076  0.42324871  0.50187022
   0.52317824  0.42324771  0.49812778
   0.48705386  0.52839717  0.53446276
   0.43357471  0.55939749  0.53775454
   0.38384246  0.53957916  0.50578780
   0.38833110  0.48838825  0.47046911
   0.44195084  0.45746170  0.46713244
   0.55804916  0.45746070  0.53286556
 
 position of ions in cartesian coordinates  (Angst):
  22.40089514 19.18047499 20.67821935
  21.27286081 19.61325012 19.95938991
  21.38374567 20.78092330 19.18146473
  22.58962669 21.47915888 19.10647049
  23.70675916 21.03265541 19.81993544
  23.60622263 19.88154339 20.60790474
  20.00000000 18.84818722 20.00000000
  20.00000000 17.49788214 19.99996000
  18.72713919 19.61325012 20.04061009
  17.59910486 19.18051499 19.32178065
  16.39377737 19.88158339 19.39209526
  16.29324084 21.03269541 20.18006456
  17.41037331 21.47915888 20.89356951
  18.61625433 20.78092330 20.81857527
  24.46675597 19.53548982 21.18119545
  24.64630145 21.58312647 19.76852817
  22.65701179 22.37593973 18.48989854
  20.51784565 21.13592692 18.62152952
  19.07283034 16.92994830 20.07480864
  20.92712966 16.92990830 19.92511136
  19.48215435 21.13588692 21.37851048
  17.34298821 22.37589973 21.51018146
  15.35369855 21.58316647 20.23151183
  15.53324403 19.53552982 18.81876455
  17.67803352 18.29846799 18.68529764
  22.32196648 18.29842799 21.31462236
 


--------------------------------------------------------------------------------------------------------


 k-point   1 :   0.0000 0.0000 0.0000  plane waves: 1624525

 maximum and minimum number of plane-waves per node :    108307   108296

 maximum number of plane-waves:   1624525
 maximum index in each direction: 
   IXMAX=   72   IYMAX=   72   IZMAX=   72
   IXMIN=  -72   IYMIN=  -72   IZMIN=  -72


 real space projection operators:
  total allocation   :       2861.71 KBytes
  max/ min on nodes  :        202.81        181.46


 parallel 3D FFT for wavefunctions:
    minimum data exchange during FFTs selected (reduces bandwidth)
 parallel 3D FFT for charge:
    minimum data exchange during FFTs selected (reduces bandwidth)


 total amount of memory used by VASP MPI-rank0   533701. kBytes
=======================================================================

   base      :      30000. kBytes
   nonlr-proj:       1500. kBytes
   fftplans  :     131430. kBytes
   grid      :     332629. kBytes
   one-center:         12. kBytes
   wavefun   :      38130. kBytes
 
     INWAV:  cpu time     17.7362: real time     17.7958
 Broyden mixing: mesh for mixing (old mesh)
   NGX =145   NGY =145   NGZ =145
  (NGX  =588   NGY  =588   NGZ  =588)
  gives a total of ****** points

 initial charge density was supplied:
 charge density of overlapping atoms calculated
 number of electron      68.0000000 magnetization      26.0000000
 keeping initial charge density in first step


--------------------------------------------------------------------------------------------------------


 Maximum index for non-local projection operator          242
 Maximum index for augmentation-charges          290 (set IRDMAX)


--------------------------------------------------------------------------------------------------------


 First call to EWALD:  gamma=   0.044
 Maximum number of real-space cells 3x 3x 3
 Maximum number of reciprocal cells 3x 3x 3

    FEWALD:  cpu time      0.0031: real time      0.0031


--------------------------------------- Ionic step        1  -------------------------------------------




--------------------------------------- Iteration      1(   1)  ---------------------------------------


    POTLOK:  cpu time    346.6493: real time    346.9294
    SETDIJ:  cpu time      0.0348: real time      0.0348
     EDDAV:  cpu time     55.7054: real time     55.7111
       DOS:  cpu time      0.0038: real time      0.0038
    CHARGE:  cpu time      9.9023: real time      9.9033
    MIXING:  cpu time      0.0865: real time      0.0866
    --------------------------------------------
      LOOP:  cpu time    412.3821: real time    412.6689

 eigenvalue-minimisations  :   360
 total energy-change (2. order) :-0.1595893E+03  (-0.1305239E+02)
 number of electron      68.0000004 magnetization      24.9982776
 augmentation part        1.7504672 magnetization      25.0381075

 Broyden mixing:
  rms(total) = 0.33078E+01    rms(broyden)= 0.33076E+01
  rms(prec ) = 0.33437E+01
  weight for this iteration     100.00

 Free energy of the ion-electron system (eV)
  ---------------------------------------------------
  alpha Z        PSCENC =         0.33654424
  Ewald energy   TEWEN  =      8110.31325522
  -Hartree energ DENC   =     -9531.37010198
  -exchange      EXHF   =         0.00000000
  -V(xc)+E(xc)   XCENC  =       215.49285076
  PAW double counting   =      1539.04512886    -1546.99331561
  entropy T*S    EENTRO =        -0.00000000
  eigenvalues    EBANDS =     -1145.24084186
  atomic energy  EATOM  =      2209.91506195
  Solvation  Ediel_sol  =       -11.08790413
  ---------------------------------------------------
  free energy    TOTEN  =      -159.58932255 eV

  energy without entropy =     -159.58932255  energy(sigma->0) =     -159.58932255


--------------------------------------------------------------------------------------------------------




--------------------------------------- Iteration      1(   2)  ---------------------------------------


    POTLOK:  cpu time    358.2748: real time    358.3621
    SETDIJ:  cpu time      0.0335: real time      0.0335
    EDDIAG:  cpu time      7.0398: real time      7.0406
  RMM-DIIS:  cpu time     11.3671: real time     11.3683
    ORTHCH:  cpu time      1.2127: real time      1.2128
       DOS:  cpu time      0.3748: real time      0.3749
    CHARGE:  cpu time      9.8148: real time      9.8158
    MIXING:  cpu time      0.1199: real time      0.1199
    --------------------------------------------
      LOOP:  cpu time    388.2374: real time    388.3278

 eigenvalue-minimisations  :   264
 total energy-change (2. order) : 0.7708577E+02  (-0.1374455E+02)
 number of electron      68.0000003 magnetization      23.8944883
 augmentation part        1.7444630 magnetization      23.8300636

 Broyden mixing:
  rms(total) = 0.16490E+01    rms(broyden)= 0.16490E+01
  rms(prec ) = 0.16797E+01
  weight for this iteration     100.00

 eigenvalues of (default mixing * dielectric matrix)
  average eigenvalue GAMMA=   0.9564
  0.9564

 Free energy of the ion-electron system (eV)
  ---------------------------------------------------
  alpha Z        PSCENC =         0.33654424
  Ewald energy   TEWEN  =      8110.31325522
  -Hartree energ DENC   =     -9675.43838858
  -exchange      EXHF   =         0.00000000
  -V(xc)+E(xc)   XCENC  =       283.72515116
  PAW double counting   =      2934.44932148    -2943.82272543
  entropy T*S    EENTRO =        -0.00000000
  eigenvalues    EBANDS =      -978.48504285
  atomic energy  EATOM  =      2209.91506195
  Solvation  Ediel_sol  =       -23.49673064
  ---------------------------------------------------
  free energy    TOTEN  =       -82.50355346 eV

  energy without entropy =      -82.50355346  energy(sigma->0) =      -82.50355346


--------------------------------------------------------------------------------------------------------




--------------------------------------- Iteration      1(   3)  ---------------------------------------


    POTLOK:  cpu time    363.0459: real time    363.1035
    SETDIJ:  cpu time      0.0325: real time      0.0325
    EDDIAG:  cpu time      6.4181: real time      6.4189
  RMM-DIIS:  cpu time     11.6710: real time     11.6722
    ORTHCH:  cpu time      1.5334: real time      1.5336
       DOS:  cpu time      0.0042: real time      0.0042
    CHARGE:  cpu time      9.6666: real time      9.6676
    MIXING:  cpu time      0.1125: real time      0.1126
    --------------------------------------------
      LOOP:  cpu time    392.4843: real time    392.5450

 eigenvalue-minimisations  :   264
 total energy-change (2. order) :-0.4223139E+02  (-0.5048923E+01)
 number of electron      68.0000003 magnetization      22.5443022
 augmentation part        1.6884978 magnetization      22.4359517

 Broyden mixing:
  rms(total) = 0.98089E+00    rms(broyden)= 0.98082E+00
  rms(prec ) = 0.99142E+00
  weight for this iteration     100.00

 eigenvalues of (default mixing * dielectric matrix)
  average eigenvalue GAMMA=   1.1608
  0.7817  1.5400

 Free energy of the ion-electron system (eV)
  ---------------------------------------------------
  alpha Z        PSCENC =         0.33654424
  Ewald energy   TEWEN  =      8110.31325522
  -Hartree energ DENC   =     -9796.82943611
  -exchange      EXHF   =         0.00000000
  -V(xc)+E(xc)   XCENC  =       253.75827417
  PAW double counting   =      4207.87254620    -4218.10107713
  entropy T*S    EENTRO =        -0.00000000
  eigenvalues    EBANDS =      -856.95257878
  atomic energy  EATOM  =      2209.91506195
  Solvation  Ediel_sol  =       -35.04753603
  ---------------------------------------------------
  free energy    TOTEN  =      -124.73494627 eV

  energy without entropy =     -124.73494627  energy(sigma->0) =     -124.73494627


--------------------------------------------------------------------------------------------------------




--------------------------------------- Iteration      1(   4)  ---------------------------------------


    POTLOK:  cpu time    363.9301: real time    363.9924
    SETDIJ:  cpu time      0.0339: real time      0.0339
    EDDIAG:  cpu time      6.9171: real time      6.9179
  RMM-DIIS:  cpu time     11.4690: real time     11.4702
    ORTHCH:  cpu time      1.3842: real time      1.3843
       DOS:  cpu time      0.2145: real time      0.2145
    CHARGE:  cpu time      9.2451: real time      9.2461
    MIXING:  cpu time      0.1144: real time      0.1144
    --------------------------------------------
      LOOP:  cpu time    393.3083: real time    393.3737

 eigenvalue-minimisations  :   264
 total energy-change (2. order) :-0.1317038E+02  (-0.2304863E+01)
 number of electron      68.0000002 magnetization      21.4827127
 augmentation part        1.6347446 magnetization      21.3801363

 Broyden mixing:
  rms(total) = 0.67663E+00    rms(broyden)= 0.67656E+00
  rms(prec ) = 0.68155E+00
  weight for this iteration     100.00

 eigenvalues of (default mixing * dielectric matrix)
  average eigenvalue GAMMA=   1.1287
  1.6711  1.0366  0.6786

 Free energy of the ion-electron system (eV)
  ---------------------------------------------------
  alpha Z        PSCENC =         0.33654424
  Ewald energy   TEWEN  =      8110.31325522
  -Hartree energ DENC   =     -9877.41053722
  -exchange      EXHF   =         0.00000000
  -V(xc)+E(xc)   XCENC  =       247.77426614
  PAW double counting   =      5343.13089295    -5353.64090023
  entropy T*S    EENTRO =        -0.00000000
  eigenvalues    EBANDS =      -776.78955507
  atomic energy  EATOM  =      2209.91506195
  Solvation  Ediel_sol  =       -41.53435160
  ---------------------------------------------------
  free energy    TOTEN  =      -137.90532363 eV

  energy without entropy =     -137.90532363  energy(sigma->0) =     -137.90532363


--------------------------------------------------------------------------------------------------------




--------------------------------------- Iteration      1(   5)  ---------------------------------------


    POTLOK:  cpu time    367.3207: real time    367.3766
    SETDIJ:  cpu time      0.0347: real time      0.0347
    EDDIAG:  cpu time      6.5818: real time      6.5825
  RMM-DIIS:  cpu time     11.5055: real time     11.5066
    ORTHCH:  cpu time      1.2488: real time      1.2490
       DOS:  cpu time      0.1793: real time      0.1793
    CHARGE:  cpu time      9.0828: real time      9.0837
    MIXING:  cpu time      0.1207: real time      0.1207
    --------------------------------------------
      LOOP:  cpu time    396.0743: real time    396.1330

 eigenvalue-minimisations  :   264
 total energy-change (2. order) :-0.8835060E+01  (-0.5782152E+00)
 number of electron      68.0000002 magnetization      19.5137792
 augmentation part        1.6152358 magnetization      19.4251877

 Broyden mixing:
  rms(total) = 0.46833E+00    rms(broyden)= 0.46831E+00
  rms(prec ) = 0.47144E+00
  weight for this iteration     100.00

 eigenvalues of (default mixing * dielectric matrix)
  average eigenvalue GAMMA=   1.3767
  2.0094  2.0094  0.8395  0.6484

 Free energy of the ion-electron system (eV)
  ---------------------------------------------------
  alpha Z        PSCENC =         0.33654424
  Ewald energy   TEWEN  =      8110.31325522
  -Hartree energ DENC   =     -9884.07692373
  -exchange      EXHF   =         0.00000000
  -V(xc)+E(xc)   XCENC  =       241.83235633
  PAW double counting   =      5674.86499563    -5685.16241641
  entropy T*S    EENTRO =        -0.00000000
  eigenvalues    EBANDS =      -778.34924169
  atomic energy  EATOM  =      2209.91506195
  Solvation  Ediel_sol  =       -36.41401552
  ---------------------------------------------------
  free energy    TOTEN  =      -146.74038399 eV

  energy without entropy =     -146.74038399  energy(sigma->0) =     -146.74038399


--------------------------------------------------------------------------------------------------------




--------------------------------------- Iteration      1(   6)  ---------------------------------------


    POTLOK:  cpu time    376.5944: real time    376.6562
    SETDIJ:  cpu time      0.0364: real time      0.0364
    EDDIAG:  cpu time      7.6865: real time      7.6873
  RMM-DIIS:  cpu time     11.1690: real time     11.1701
    ORTHCH:  cpu time      1.9377: real time      1.9379
       DOS:  cpu time      0.0010: real time      0.0010
    CHARGE:  cpu time      9.4642: real time      9.4652
    MIXING:  cpu time      0.1352: real time      0.1352
    --------------------------------------------
      LOOP:  cpu time    407.0244: real time    407.0894

 eigenvalue-minimisations  :   264
 total energy-change (2. order) :-0.1317412E+02  (-0.7807422E+00)
 number of electron      68.0000002 magnetization      18.6882344
 augmentation part        1.6052743 magnetization      18.6227601

 Broyden mixing:
  rms(total) = 0.27425E+00    rms(broyden)= 0.27423E+00
  rms(prec ) = 0.27549E+00
  weight for this iteration     100.00

 eigenvalues of (default mixing * dielectric matrix)
  average eigenvalue GAMMA=   1.3674
  2.4740  1.8496  1.0632  0.8052  0.6450

 Free energy of the ion-electron system (eV)
  ---------------------------------------------------
  alpha Z        PSCENC =         0.33654424
  Ewald energy   TEWEN  =      8110.31325522
  -Hartree energ DENC   =     -9890.16666148
  -exchange      EXHF   =         0.00000000
  -V(xc)+E(xc)   XCENC  =       232.38044547
  PAW double counting   =      6085.76924049    -6095.68928647
  entropy T*S    EENTRO =        -0.00000000
  eigenvalues    EBANDS =      -790.23922446
  atomic energy  EATOM  =      2209.91506195
  Solvation  Ediel_sol  =       -22.53388236
  ---------------------------------------------------
  free energy    TOTEN  =      -159.91450741 eV

  energy without entropy =     -159.91450741  energy(sigma->0) =     -159.91450741


--------------------------------------------------------------------------------------------------------




--------------------------------------- Iteration      1(   7)  ---------------------------------------


    POTLOK:  cpu time    339.7656: real time    339.8219
    SETDIJ:  cpu time      0.0347: real time      0.0347
    EDDIAG:  cpu time      6.5950: real time      6.5956
  RMM-DIIS:  cpu time     11.3114: real time     11.3125
    ORTHCH:  cpu time      1.3253: real time      1.3254
       DOS:  cpu time      0.1659: real time      0.1659
    CHARGE:  cpu time      9.7118: real time      9.7127
    MIXING:  cpu time      0.1257: real time      0.1257
    --------------------------------------------
      LOOP:  cpu time    369.0354: real time    369.0945

 eigenvalue-minimisations  :   264
 total energy-change (2. order) :-0.1911078E+01  (-0.1999685E+00)
 number of electron      68.0000002 magnetization      17.2026105
 augmentation part        1.5865166 magnetization      17.1569097

 Broyden mixing:
  rms(total) = 0.24384E+00    rms(broyden)= 0.24382E+00
  rms(prec ) = 0.24498E+00
  weight for this iteration     100.00

 eigenvalues of (default mixing * dielectric matrix)
  average eigenvalue GAMMA=   1.2608
  2.2735  2.2735  0.8811  0.8811  0.6278  0.6278

 Free energy of the ion-electron system (eV)
  ---------------------------------------------------
  alpha Z        PSCENC =         0.33654424
  Ewald energy   TEWEN  =      8110.31325522
  -Hartree energ DENC   =     -9897.68813133
  -exchange      EXHF   =         0.00000000
  -V(xc)+E(xc)   XCENC  =       231.27358793
  PAW double counting   =      6107.00957046    -6116.97092988
  entropy T*S    EENTRO =        -0.00000000
  eigenvalues    EBANDS =      -788.67916373
  atomic energy  EATOM  =      2209.91506195
  Solvation  Ediel_sol  =       -17.33538006
  ---------------------------------------------------
  free energy    TOTEN  =      -161.82558521 eV

  energy without entropy =     -161.82558521  energy(sigma->0) =     -161.82558521


--------------------------------------------------------------------------------------------------------




--------------------------------------- Iteration      1(   8)  ---------------------------------------


    POTLOK:  cpu time    338.2711: real time    338.3281
    SETDIJ:  cpu time      0.0356: real time      0.0356
    EDDIAG:  cpu time      6.6493: real time      6.6500
  RMM-DIIS:  cpu time     11.1875: real time     11.1886
    ORTHCH:  cpu time      1.3449: real time      1.3450
       DOS:  cpu time      0.1826: real time      0.1826
    CHARGE:  cpu time      9.3037: real time      9.3047
    MIXING:  cpu time      0.1367: real time      0.1367
    --------------------------------------------
      LOOP:  cpu time    367.1114: real time    367.1715

 eigenvalue-minimisations  :   264
 total energy-change (2. order) :-0.2446477E+01  (-0.1107860E+00)
 number of electron      68.0000002 magnetization      13.8939633
 augmentation part        1.5863628 magnetization      13.8602818

 Broyden mixing:
  rms(total) = 0.18561E+00    rms(broyden)= 0.18560E+00
  rms(prec ) = 0.18611E+00
  weight for this iteration     100.00

 eigenvalues of (default mixing * dielectric matrix)
  average eigenvalue GAMMA=   1.6642
  4.2188  2.6801  1.5857  1.0857  0.8268  0.6542  0.5985

 Free energy of the ion-electron system (eV)
  ---------------------------------------------------
  alpha Z        PSCENC =         0.33654424
  Ewald energy   TEWEN  =      8110.31325522
  -Hartree energ DENC   =     -9891.99912123
  -exchange      EXHF   =         0.00000000
  -V(xc)+E(xc)   XCENC  =       228.95215578
  PAW double counting   =      5957.86115569    -5967.74099874
  entropy T*S    EENTRO =        -0.00000000
  eigenvalues    EBANDS =      -804.73487376
  atomic energy  EATOM  =      2209.91506195
  Solvation  Ediel_sol  =        -7.17524150
  ---------------------------------------------------
  free energy    TOTEN  =      -164.27206236 eV

  energy without entropy =     -164.27206236  energy(sigma->0) =     -164.27206236


--------------------------------------------------------------------------------------------------------




--------------------------------------- Iteration      1(   9)  ---------------------------------------


    POTLOK:  cpu time    351.6376: real time    351.6944
    SETDIJ:  cpu time      0.0342: real time      0.0342
    EDDIAG:  cpu time      6.5338: real time      6.5344
  RMM-DIIS:  cpu time     12.3272: real time     12.3283
    ORTHCH:  cpu time      1.1633: real time      1.1634
       DOS:  cpu time      0.3694: real time      0.3694
    CHARGE:  cpu time      9.0802: real time      9.0811
    MIXING:  cpu time      0.1417: real time      0.1417
    --------------------------------------------
      LOOP:  cpu time    381.2873: real time    381.3470

 eigenvalue-minimisations  :   279
 total energy-change (2. order) :-0.1251759E+01  (-0.2681546E+00)
 number of electron      68.0000002 magnetization      13.2270735
 augmentation part        1.5773507 magnetization      13.2137938

 Broyden mixing:
  rms(total) = 0.13098E+00    rms(broyden)= 0.13097E+00
  rms(prec ) = 0.13189E+00
  weight for this iteration     100.00

 eigenvalues of (default mixing * dielectric matrix)
  average eigenvalue GAMMA=   1.6810
  5.2829  2.3608  1.9235  0.9888  0.7963  0.6230  0.7362  0.7362

 Free energy of the ion-electron system (eV)
  ---------------------------------------------------
  alpha Z        PSCENC =         0.33654424
  Ewald energy   TEWEN  =      8110.31325522
  -Hartree energ DENC   =     -9892.82771736
  -exchange      EXHF   =         0.00000000
  -V(xc)+E(xc)   XCENC  =       228.01934979
  PAW double counting   =      5802.39441223    -5812.22523706
  entropy T*S    EENTRO =        -0.00000000
  eigenvalues    EBANDS =      -821.93172597
  atomic energy  EATOM  =      2209.91506195
  Solvation  Ediel_sol  =        10.48223537
  ---------------------------------------------------
  free energy    TOTEN  =      -165.52382161 eV

  energy without entropy =     -165.52382161  energy(sigma->0) =     -165.52382161


--------------------------------------------------------------------------------------------------------




--------------------------------------- Iteration      1(  10)  ---------------------------------------


    POTLOK:  cpu time    327.0731: real time    327.1282
    SETDIJ:  cpu time      0.0352: real time      0.0352
    EDDIAG:  cpu time      6.7763: real time      6.7770
  RMM-DIIS:  cpu time     11.8328: real time     11.8340
    ORTHCH:  cpu time      1.9943: real time      1.9945
       DOS:  cpu time      0.3768: real time      0.3768
    CHARGE:  cpu time      9.2737: real time      9.2746
    MIXING:  cpu time      0.1431: real time      0.1431
    --------------------------------------------
      LOOP:  cpu time    357.5054: real time    357.5635

 eigenvalue-minimisations  :   270
 total energy-change (2. order) :-0.1263992E+01  (-0.2237735E-01)
 number of electron      68.0000002 magnetization      11.9110831
 augmentation part        1.5740720 magnetization      11.9032891

 Broyden mixing:
  rms(total) = 0.85759E-01    rms(broyden)= 0.85754E-01
  rms(prec ) = 0.86294E-01
  weight for this iteration     100.00

 eigenvalues of (default mixing * dielectric matrix)
  average eigenvalue GAMMA=   1.7217
  6.1557  2.1746  2.1746  1.2317  0.7805  0.7805  0.6135  0.8308  0.7535

 Free energy of the ion-electron system (eV)
  ---------------------------------------------------
  alpha Z        PSCENC =         0.33654424
  Ewald energy   TEWEN  =      8110.31325522
  -Hartree energ DENC   =     -9896.78012899
  -exchange      EXHF   =         0.00000000
  -V(xc)+E(xc)   XCENC  =       227.01656845
  PAW double counting   =      5849.54499557    -5859.41811558
  entropy T*S    EENTRO =        -0.00000000
  eigenvalues    EBANDS =      -818.47008317
  atomic energy  EATOM  =      2209.91506195
  Solvation  Ediel_sol  =        10.75408882
  ---------------------------------------------------
  free energy    TOTEN  =      -166.78781350 eV

  energy without entropy =     -166.78781350  energy(sigma->0) =     -166.78781350


--------------------------------------------------------------------------------------------------------




--------------------------------------- Iteration      1(  11)  ---------------------------------------


    POTLOK:  cpu time    330.9240: real time    330.9857
    SETDIJ:  cpu time      0.0344: real time      0.0344
    EDDIAG:  cpu time      6.8893: real time      6.8901
  RMM-DIIS:  cpu time     11.6168: real time     11.6181
    ORTHCH:  cpu time      1.4691: real time      1.4693
       DOS:  cpu time      0.1360: real time      0.1360
    CHARGE:  cpu time      9.6680: real time      9.6690
    MIXING:  cpu time      0.1645: real time      0.1645
    --------------------------------------------
      LOOP:  cpu time    360.9022: real time    360.9671

 eigenvalue-minimisations  :   267
 total energy-change (2. order) :-0.1398448E+01  (-0.1306342E-01)
 number of electron      68.0000002 magnetization      10.2352534
 augmentation part        1.5725426 magnetization      10.2301052

 Broyden mixing:
  rms(total) = 0.63837E-01    rms(broyden)= 0.63835E-01
  rms(prec ) = 0.64137E-01
  weight for this iteration     100.00

 eigenvalues of (default mixing * dielectric matrix)
  average eigenvalue GAMMA=   1.8679
  7.3421  2.4135  2.4135  1.7958  0.9150  0.9150  0.7888  0.7888  0.6167  0.6895

 Free energy of the ion-electron system (eV)
  ---------------------------------------------------
  alpha Z        PSCENC =         0.33654424
  Ewald energy   TEWEN  =      8110.31325522
  -Hartree energ DENC   =     -9897.49366419
  -exchange      EXHF   =         0.00000000
  -V(xc)+E(xc)   XCENC  =       225.73510685
  PAW double counting   =      5863.29302926    -5873.19192405
  entropy T*S    EENTRO =        -0.00000000
  eigenvalues    EBANDS =      -818.54636940
  atomic energy  EATOM  =      2209.91506195
  Solvation  Ediel_sol  =        11.45269905
  ---------------------------------------------------
  free energy    TOTEN  =      -168.18626108 eV

  energy without entropy =     -168.18626108  energy(sigma->0) =     -168.18626108


--------------------------------------------------------------------------------------------------------




--------------------------------------- Iteration      1(  12)  ---------------------------------------


    POTLOK:  cpu time    327.8203: real time    327.8800
    SETDIJ:  cpu time      0.0340: real time      0.0340
    EDDIAG:  cpu time      6.5668: real time      6.5676
  RMM-DIIS:  cpu time     11.9169: real time     11.9182
    ORTHCH:  cpu time      1.3230: real time      1.3232
       DOS:  cpu time      0.3883: real time      0.3883
    CHARGE:  cpu time      9.6733: real time      9.6744
    MIXING:  cpu time      0.1581: real time      0.1582
    --------------------------------------------
      LOOP:  cpu time    357.8808: real time    357.9438

 eigenvalue-minimisations  :   269
 total energy-change (2. order) :-0.8456146E+00  (-0.7791086E-02)
 number of electron      68.0000002 magnetization       9.0312750
 augmentation part        1.5712278 magnetization       9.0284441

 Broyden mixing:
  rms(total) = 0.48872E-01    rms(broyden)= 0.48871E-01
  rms(prec ) = 0.49100E-01
  weight for this iteration     100.00

 eigenvalues of (default mixing * dielectric matrix)
  average eigenvalue GAMMA=   1.9233
  8.1189  3.0127  2.1471  2.1471  1.1673  0.8325  0.8325  0.8101  0.8101  0.6572
  0.6212

 Free energy of the ion-electron system (eV)
  ---------------------------------------------------
  alpha Z        PSCENC =         0.33654424
  Ewald energy   TEWEN  =      8110.31325522
  -Hartree energ DENC   =     -9895.18368748
  -exchange      EXHF   =         0.00000000
  -V(xc)+E(xc)   XCENC  =       224.80682557
  PAW double counting   =      5833.26305234    -5843.17631356
  entropy T*S    EENTRO =        -0.00000000
  eigenvalues    EBANDS =      -821.52715083
  atomic energy  EATOM  =      2209.91506195
  Solvation  Ediel_sol  =        12.22053685
  ---------------------------------------------------
  free energy    TOTEN  =      -169.03187572 eV

  energy without entropy =     -169.03187572  energy(sigma->0) =     -169.03187572


--------------------------------------------------------------------------------------------------------




--------------------------------------- Iteration      1(  13)  ---------------------------------------


    POTLOK:  cpu time    320.9004: real time    320.9613
    SETDIJ:  cpu time      0.0334: real time      0.0334
    EDDIAG:  cpu time      6.9127: real time      6.9135
  RMM-DIIS:  cpu time     11.9502: real time     11.9525
    ORTHCH:  cpu time      1.7262: real time      1.7264
       DOS:  cpu time      0.2290: real time      0.2290
    CHARGE:  cpu time      9.6991: real time      9.7002
    MIXING:  cpu time      0.1678: real time      0.1678
    --------------------------------------------
      LOOP:  cpu time    351.6188: real time    351.6841

 eigenvalue-minimisations  :   272
 total energy-change (2. order) :-0.2725283E+00  (-0.2077506E-02)
 number of electron      68.0000002 magnetization       7.4341987
 augmentation part        1.5712981 magnetization       7.4323890

 Broyden mixing:
  rms(total) = 0.39798E-01    rms(broyden)= 0.39798E-01
  rms(prec ) = 0.39922E-01
  weight for this iteration     100.00

 eigenvalues of (default mixing * dielectric matrix)
  average eigenvalue GAMMA=   2.0347
  8.9434  3.8916  2.2486  2.2486  1.5522  0.9736  0.9736  0.7550  0.7550  0.8133
  0.6236  0.6380

 Free energy of the ion-electron system (eV)
  ---------------------------------------------------
  alpha Z        PSCENC =         0.33654424
  Ewald energy   TEWEN  =      8110.31325522
  -Hartree energ DENC   =     -9892.88978626
  -exchange      EXHF   =         0.00000000
  -V(xc)+E(xc)   XCENC  =       224.48378850
  PAW double counting   =      5845.15644559    -5855.05713163
  entropy T*S    EENTRO =        -0.00000000
  eigenvalues    EBANDS =      -823.14974799
  atomic energy  EATOM  =      2209.91506195
  Solvation  Ediel_sol  =        11.58716634
  ---------------------------------------------------
  free energy    TOTEN  =      -169.30440405 eV

  energy without entropy =     -169.30440405  energy(sigma->0) =     -169.30440405


--------------------------------------------------------------------------------------------------------




--------------------------------------- Iteration      1(  14)  ---------------------------------------


    POTLOK:  cpu time    320.0158: real time    320.0733
    SETDIJ:  cpu time      0.0336: real time      0.0336
    EDDIAG:  cpu time      6.5357: real time      6.5364
  RMM-DIIS:  cpu time     11.3597: real time     11.3608
    ORTHCH:  cpu time      1.6874: real time      1.6876
       DOS:  cpu time      0.1571: real time      0.1571
    CHARGE:  cpu time      9.8456: real time      9.8466
    MIXING:  cpu time      0.1747: real time      0.1747
    --------------------------------------------
      LOOP:  cpu time    349.8096: real time    349.8701

 eigenvalue-minimisations  :   264
 total energy-change (2. order) :-0.2208819E+00  (-0.8602256E-03)
 number of electron      68.0000002 magnetization       6.5537522
 augmentation part        1.5715683 magnetization       6.5523693

 Broyden mixing:
  rms(total) = 0.33299E-01    rms(broyden)= 0.33299E-01
  rms(prec ) = 0.33382E-01
  weight for this iteration     100.00

 eigenvalues of (default mixing * dielectric matrix)
  average eigenvalue GAMMA=   2.0869
  9.6513  4.6853  2.2318  2.2318  1.8674  1.1653  0.8420  0.8420  0.8199  0.8199
  0.7167  0.6283  0.6283

 Free energy of the ion-electron system (eV)
  ---------------------------------------------------
  alpha Z        PSCENC =         0.33654424
  Ewald energy   TEWEN  =      8110.31325522
  -Hartree energ DENC   =     -9890.52091200
  -exchange      EXHF   =         0.00000000
  -V(xc)+E(xc)   XCENC  =       224.23224132
  PAW double counting   =      5870.72253008    -5880.61292361
  entropy T*S    EENTRO =        -0.00000000
  eigenvalues    EBANDS =      -823.98074898
  atomic energy  EATOM  =      2209.91506195
  Solvation  Ediel_sol  =        10.06966585
  ---------------------------------------------------
  free energy    TOTEN  =      -169.52528593 eV

  energy without entropy =     -169.52528593  energy(sigma->0) =     -169.52528593


--------------------------------------------------------------------------------------------------------




--------------------------------------- Iteration      1(  15)  ---------------------------------------


    POTLOK:  cpu time    296.0978: real time    296.1540
    SETDIJ:  cpu time      0.0336: real time      0.0336
    EDDIAG:  cpu time      7.0134: real time      7.0142
  RMM-DIIS:  cpu time     11.5271: real time     11.5283
    ORTHCH:  cpu time      1.2498: real time      1.2499
       DOS:  cpu time      0.3738: real time      0.3739
    CHARGE:  cpu time      9.2408: real time      9.2418
    MIXING:  cpu time      0.1842: real time      0.1842
    --------------------------------------------
      LOOP:  cpu time    325.7204: real time    325.7799

 eigenvalue-minimisations  :   268
 total energy-change (2. order) :-0.1155485E+00  (-0.2879973E-03)
 number of electron      68.0000002 magnetization       4.7161215
 augmentation part        1.5717006 magnetization       4.7151463

 Broyden mixing:
  rms(total) = 0.27835E-01    rms(broyden)= 0.27835E-01
  rms(prec ) = 0.27895E-01
  weight for this iteration     100.00

 eigenvalues of (default mixing * dielectric matrix)
  average eigenvalue GAMMA=   2.1453
 10.1210  5.2244  2.3638  2.3638  2.2361  1.4221  0.9524  0.9085  0.9085  0.7846
  0.7846  0.7125  0.6259  0.6259

 Free energy of the ion-electron system (eV)
  ---------------------------------------------------
  alpha Z        PSCENC =         0.33654424
  Ewald energy   TEWEN  =      8110.31325522
  -Hartree energ DENC   =     -9889.45941974
  -exchange      EXHF   =         0.00000000
  -V(xc)+E(xc)   XCENC  =       224.08222891
  PAW double counting   =      5864.51267379    -5874.40509554
  entropy T*S    EENTRO =        -0.00000000
  eigenvalues    EBANDS =      -824.39266595
  atomic energy  EATOM  =      2209.91506195
  Solvation  Ediel_sol  =         9.45658265
  ---------------------------------------------------
  free energy    TOTEN  =      -169.64083448 eV

  energy without entropy =     -169.64083448  energy(sigma->0) =     -169.64083448


--------------------------------------------------------------------------------------------------------




--------------------------------------- Iteration      1(  16)  ---------------------------------------


    POTLOK:  cpu time    308.1669: real time    308.2148
    SETDIJ:  cpu time      0.0341: real time      0.0341
    EDDIAG:  cpu time      6.6549: real time      6.6556
  RMM-DIIS:  cpu time     11.1930: real time     11.1941
    ORTHCH:  cpu time      1.4592: real time      1.4593
       DOS:  cpu time      0.3764: real time      0.3765
    CHARGE:  cpu time      9.1038: real time      9.1070
    MIXING:  cpu time      0.1960: real time      0.1961
    --------------------------------------------
      LOOP:  cpu time    337.1843: real time    337.2374

 eigenvalue-minimisations  :   264
 total energy-change (2. order) :-0.3522572E-01  (-0.3256656E-03)
 number of electron      68.0000002 magnetization       3.4558632
 augmentation part        1.5717110 magnetization       3.4553310

 Broyden mixing:
  rms(total) = 0.22658E-01    rms(broyden)= 0.22658E-01
  rms(prec ) = 0.22723E-01
  weight for this iteration     100.00

 eigenvalues of (default mixing * dielectric matrix)
  average eigenvalue GAMMA=   2.2495
 10.9350  6.1855  3.2042  2.2674  2.2674  1.6348  1.1543  0.8879  0.8879  0.8217
  0.7689  0.7689  0.7095  0.6248  0.6248

 Free energy of the ion-electron system (eV)
  ---------------------------------------------------
  alpha Z        PSCENC =         0.33654424
  Ewald energy   TEWEN  =      8110.31325522
  -Hartree energ DENC   =     -9888.21628656
  -exchange      EXHF   =         0.00000000
  -V(xc)+E(xc)   XCENC  =       224.01854418
  PAW double counting   =      5849.34671583    -5859.24716300
  entropy T*S    EENTRO =        -0.00000000
  eigenvalues    EBANDS =      -824.45580723
  atomic energy  EATOM  =      2209.91506195
  Solvation  Ediel_sol  =         8.31307520
  ---------------------------------------------------
  free energy    TOTEN  =      -169.67606019 eV

  energy without entropy =     -169.67606019  energy(sigma->0) =     -169.67606019


--------------------------------------------------------------------------------------------------------




--------------------------------------- Iteration      1(  17)  ---------------------------------------


    POTLOK:  cpu time    300.9231: real time    300.9778
    SETDIJ:  cpu time      0.0385: real time      0.0385
    EDDIAG:  cpu time      6.8622: real time      6.8629
  RMM-DIIS:  cpu time     11.4175: real time     11.4187
    ORTHCH:  cpu time      1.6142: real time      1.6143
       DOS:  cpu time      0.1572: real time      0.1572
    CHARGE:  cpu time      9.0921: real time      9.0958
    MIXING:  cpu time      0.1948: real time      0.1948
    --------------------------------------------
      LOOP:  cpu time    330.2995: real time    330.3600

 eigenvalue-minimisations  :   265
 total energy-change (2. order) :-0.1979259E-01  (-0.1478193E-03)
 number of electron      68.0000002 magnetization       1.8661757
 augmentation part        1.5718367 magnetization       1.8658881

 Broyden mixing:
  rms(total) = 0.17937E-01    rms(broyden)= 0.17937E-01
  rms(prec ) = 0.18008E-01
  weight for this iteration     100.00

 eigenvalues of (default mixing * dielectric matrix)
  average eigenvalue GAMMA=   2.3624
 11.9443  7.0651  3.7673  2.2497  2.2497  2.0246  1.3718  1.0463  0.9104  0.9104
  0.7681  0.7681  0.7956  0.6794  0.6241  0.6241

 Free energy of the ion-electron system (eV)
  ---------------------------------------------------
  alpha Z        PSCENC =         0.33654424
  Ewald energy   TEWEN  =      8110.31325522
  -Hartree energ DENC   =     -9887.44259493
  -exchange      EXHF   =         0.00000000
  -V(xc)+E(xc)   XCENC  =       223.99973930
  PAW double counting   =      5852.19762746    -5862.09357141
  entropy T*S    EENTRO =        -0.00000000
  eigenvalues    EBANDS =      -824.49130727
  atomic energy  EATOM  =      2209.91506195
  Solvation  Ediel_sol  =         7.56939267
  ---------------------------------------------------
  free energy    TOTEN  =      -169.69585278 eV

  energy without entropy =     -169.69585278  energy(sigma->0) =     -169.69585278


--------------------------------------------------------------------------------------------------------




--------------------------------------- Iteration      1(  18)  ---------------------------------------


    POTLOK:  cpu time    297.5739: real time    297.6308
    SETDIJ:  cpu time      0.0350: real time      0.0350
    EDDIAG:  cpu time      6.2853: real time      6.2860
  RMM-DIIS:  cpu time     11.4119: real time     11.4131
    ORTHCH:  cpu time      1.4710: real time      1.4711
       DOS:  cpu time      0.1919: real time      0.1919
    CHARGE:  cpu time      9.2282: real time      9.2292
    MIXING:  cpu time      0.2078: real time      0.2079
    --------------------------------------------
      LOOP:  cpu time    326.4050: real time    326.4648

 eigenvalue-minimisations  :   264
 total energy-change (2. order) :-0.1119231E-01  (-0.2000045E-03)
 number of electron      68.0000002 magnetization       0.9358273
 augmentation part        1.5718984 magnetization       0.9356566

 Broyden mixing:
  rms(total) = 0.11523E-01    rms(broyden)= 0.11523E-01
  rms(prec ) = 0.11636E-01
  weight for this iteration     100.00

 eigenvalues of (default mixing * dielectric matrix)
  average eigenvalue GAMMA=   2.6146
 15.0481  8.3875  4.5371  2.3455  2.3455  2.2756  1.4802  1.1263  0.9302  0.9302
  0.8428  0.7762  0.7762  0.7441  0.6557  0.6239  0.6239

 Free energy of the ion-electron system (eV)
  ---------------------------------------------------
  alpha Z        PSCENC =         0.33654424
  Ewald energy   TEWEN  =      8110.31325522
  -Hartree energ DENC   =     -9887.23182529
  -exchange      EXHF   =         0.00000000
  -V(xc)+E(xc)   XCENC  =       224.01642554
  PAW double counting   =      5857.94896934    -5867.84148676
  entropy T*S    EENTRO =        -0.00000000
  eigenvalues    EBANDS =      -824.19946966
  atomic energy  EATOM  =      2209.91506195
  Solvation  Ediel_sol  =         7.03548034
  ---------------------------------------------------
  free energy    TOTEN  =      -169.70704508 eV

  energy without entropy =     -169.70704508  energy(sigma->0) =     -169.70704508


--------------------------------------------------------------------------------------------------------




--------------------------------------- Iteration      1(  19)  ---------------------------------------


    POTLOK:  cpu time    302.0066: real time    302.0576
    SETDIJ:  cpu time      0.0341: real time      0.0341
    EDDIAG:  cpu time      6.7243: real time      6.7250
  RMM-DIIS:  cpu time     11.6344: real time     11.6356
    ORTHCH:  cpu time      1.6337: real time      1.6339
       DOS:  cpu time      0.0043: real time      0.0043
    CHARGE:  cpu time      9.6392: real time      9.6402
    MIXING:  cpu time      0.2200: real time      0.2201
    --------------------------------------------
      LOOP:  cpu time    331.8968: real time    331.9507

 eigenvalue-minimisations  :   264
 total energy-change (2. order) :-0.3689945E-02  (-0.1495733E-03)
 number of electron      68.0000002 magnetization       0.4451212
 augmentation part        1.5719145 magnetization       0.4450349

 Broyden mixing:
  rms(total) = 0.71429E-02    rms(broyden)= 0.71429E-02
  rms(prec ) = 0.72723E-02
  weight for this iteration     100.00

 eigenvalues of (default mixing * dielectric matrix)
  average eigenvalue GAMMA=   2.7703
 18.0806  8.9545  4.8573  2.6046  2.1378  2.1378  1.8297  1.3658  1.0565  0.9202
  0.9202  0.8363  0.7722  0.7722  0.7277  0.6440  0.6212  0.6269

 Free energy of the ion-electron system (eV)
  ---------------------------------------------------
  alpha Z        PSCENC =         0.33654424
  Ewald energy   TEWEN  =      8110.31325522
  -Hartree energ DENC   =     -9887.38435244
  -exchange      EXHF   =         0.00000000
  -V(xc)+E(xc)   XCENC  =       224.01320997
  PAW double counting   =      5851.15116770    -5861.04905823
  entropy T*S    EENTRO =        -0.00000000
  eigenvalues    EBANDS =      -824.00636649
  atomic energy  EATOM  =      2209.91506195
  Solvation  Ediel_sol  =         6.99980305
  ---------------------------------------------------
  free energy    TOTEN  =      -169.71073503 eV

  energy without entropy =     -169.71073503  energy(sigma->0) =     -169.71073503


--------------------------------------------------------------------------------------------------------




--------------------------------------- Iteration      1(  20)  ---------------------------------------


    POTLOK:  cpu time    302.4942: real time    302.5487
    SETDIJ:  cpu time      0.0329: real time      0.0329
    EDDIAG:  cpu time      6.5671: real time      6.5678
  RMM-DIIS:  cpu time     11.2136: real time     11.2148
    ORTHCH:  cpu time      1.4913: real time      1.4914
       DOS:  cpu time      0.0010: real time      0.0010
    CHARGE:  cpu time      9.4972: real time      9.4982
    MIXING:  cpu time      0.2199: real time      0.2199
    --------------------------------------------
      LOOP:  cpu time    331.5171: real time    331.5747

 eigenvalue-minimisations  :   264
 total energy-change (2. order) :-0.2994165E-01  (-0.7428182E-04)
 number of electron      68.0000002 magnetization       0.1498060
 augmentation part        1.5718167 magnetization       0.1497590

 Broyden mixing:
  rms(total) = 0.48796E-02    rms(broyden)= 0.48796E-02
  rms(prec ) = 0.49804E-02
  weight for this iteration     100.00

 eigenvalues of (default mixing * dielectric matrix)
  average eigenvalue GAMMA=   3.0087
 22.4895  9.4060  5.2992  3.0935  2.3118  2.3118  2.0318  1.3782  1.1248  0.9471
  0.9471  0.7810  0.7810  0.8585  0.8186  0.7014  0.6181  0.6329  0.6329

 Free energy of the ion-electron system (eV)
  ---------------------------------------------------
  alpha Z        PSCENC =         0.33654424
  Ewald energy   TEWEN  =      8110.31325522
  -Hartree energ DENC   =     -9887.70867236
  -exchange      EXHF   =         0.00000000
  -V(xc)+E(xc)   XCENC  =       223.98133193
  PAW double counting   =      5851.24420053    -5861.14374323
  entropy T*S    EENTRO =        -0.00000000
  eigenvalues    EBANDS =      -823.89538700
  atomic energy  EATOM  =      2209.91506195
  Solvation  Ediel_sol  =         7.21673206
  ---------------------------------------------------
  free energy    TOTEN  =      -169.74067668 eV

  energy without entropy =     -169.74067668  energy(sigma->0) =     -169.74067668


--------------------------------------------------------------------------------------------------------




--------------------------------------- Iteration      1(  21)  ---------------------------------------


    POTLOK:  cpu time    282.6943: real time    282.7541
    SETDIJ:  cpu time      0.0335: real time      0.0335
    EDDIAG:  cpu time      7.2609: real time      7.2616
  RMM-DIIS:  cpu time     11.5160: real time     11.5173
    ORTHCH:  cpu time      1.4716: real time      1.4717
       DOS:  cpu time      0.1599: real time      0.1600
    CHARGE:  cpu time      9.2520: real time      9.2530
    MIXING:  cpu time      0.2450: real time      0.2450
    --------------------------------------------
      LOOP:  cpu time    312.6333: real time    312.6963

 eigenvalue-minimisations  :   264
 total energy-change (2. order) :-0.3250575E-01  (-0.3092583E-04)
 number of electron      68.0000002 magnetization       0.0876132
 augmentation part        1.5717768 magnetization       0.0875723

 Broyden mixing:
  rms(total) = 0.25412E-02    rms(broyden)= 0.25412E-02
  rms(prec ) = 0.26369E-02
  weight for this iteration     100.00

 eigenvalues of (default mixing * dielectric matrix)
  average eigenvalue GAMMA=   3.0108
 24.0499  9.5240  5.4881  3.3168  2.3050  2.3050  1.8961  1.2944  1.2944  1.1372
  0.9219  0.9219  0.8803  0.7743  0.7743  0.7716  0.6811  0.6161  0.6316  0.6316

 Free energy of the ion-electron system (eV)
  ---------------------------------------------------
  alpha Z        PSCENC =         0.33654424
  Ewald energy   TEWEN  =      8110.31325522
  -Hartree energ DENC   =     -9887.89235150
  -exchange      EXHF   =         0.00000000
  -V(xc)+E(xc)   XCENC  =       223.95185967
  PAW double counting   =      5856.01481849    -5865.91130953
  entropy T*S    EENTRO =        -0.00000000
  eigenvalues    EBANDS =      -823.93321830
  atomic energy  EATOM  =      2209.91506195
  Solvation  Ediel_sol  =         7.43215734
  ---------------------------------------------------
  free energy    TOTEN  =      -169.77318243 eV

  energy without entropy =     -169.77318243  energy(sigma->0) =     -169.77318243


--------------------------------------------------------------------------------------------------------




--------------------------------------- Iteration      1(  22)  ---------------------------------------


    POTLOK:  cpu time    286.0884: real time    286.1448
    SETDIJ:  cpu time      0.0307: real time      0.0307
    EDDIAG:  cpu time      6.5356: real time      6.5363
  RMM-DIIS:  cpu time     11.1495: real time     11.1507
    ORTHCH:  cpu time      1.5756: real time      1.5758
       DOS:  cpu time      0.1759: real time      0.1759
    CHARGE:  cpu time      9.0563: real time      9.0572
    MIXING:  cpu time      0.2594: real time      0.2595
    --------------------------------------------
      LOOP:  cpu time    314.8714: real time    314.9308

 eigenvalue-minimisations  :   247
 total energy-change (2. order) :-0.1343721E-01  (-0.1451603E-04)
 number of electron      68.0000002 magnetization       0.0337764
 augmentation part        1.5717643 magnetization       0.0337452

 Broyden mixing:
  rms(total) = 0.21497E-02    rms(broyden)= 0.21497E-02
  rms(prec ) = 0.22141E-02
  weight for this iteration     100.00

 eigenvalues of (default mixing * dielectric matrix)
  average eigenvalue GAMMA=   3.0276
 24.9407  9.6190  5.6466  3.6202  2.2024  2.2024  2.1787  2.1787  1.3456  1.0887
  0.9413  0.9413  0.9962  0.8498  0.7763  0.7763  0.7257  0.6787  0.6264  0.6264
  0.6177

 Free energy of the ion-electron system (eV)
  ---------------------------------------------------
  alpha Z        PSCENC =         0.33654424
  Ewald energy   TEWEN  =      8110.31325522
  -Hartree energ DENC   =     -9887.96784350
  -exchange      EXHF   =         0.00000000
  -V(xc)+E(xc)   XCENC  =       223.94045126
  PAW double counting   =      5856.84660410    -5866.74242865
  entropy T*S    EENTRO =        -0.00000000
[...]
  eigenvalues    EBANDS =      -823.86586461
  atomic energy  EATOM  =      2209.91506195
  Solvation  Ediel_sol  =         8.14063528
  ---------------------------------------------------
  free energy    TOTEN  =      -169.80831768 eV

  energy without entropy =     -169.80831768  energy(sigma->0) =     -169.80831768


--------------------------------------------------------------------------------------------------------




 average (electrostatic) potential at core
  the test charge radii are     0.6991  0.5201
  (the norm of the test charge is              1.0000)
       1 -58.7922       2 -59.0833       3 -58.7941       4 -58.7839       5 -58.7766
       6 -58.7863       7 -59.1455       8 -58.5078       9 -59.0829      10 -58.7912
      11 -58.7855      12 -58.7766      13 -58.7843      14 -58.7940      15 -42.0276
      16 -42.0229      17 -42.0230      18 -42.0381      19 -41.9764      20 -41.9768
      21 -42.0390      22 -42.0240      23 -42.0235      24 -42.0268      25 -42.0363
      26 -42.0380
 
 
 
 E-fermi :  -5.2983     XC(G=0):  -0.0608     alpha+bet : -0.0271

 Fermi energy:        -5.2982891349

 spin component 1

 k-point     1 :       0.0000    0.0000    0.0000
  band No.  band energies     occupation 
      1     -21.6170      1.00000
      2     -21.1936      1.00000
      3     -19.9340      1.00000
      4     -18.4861      1.00000
      5     -18.4819      1.00000
      6     -18.3340      1.00000
      7     -17.6850      1.00000
      8     -15.5540      1.00000
      9     -14.9668      1.00000
     10     -14.7434      1.00000
     11     -14.6682      1.00000
     12     -13.5185      1.00000
     13     -12.8462      1.00000
     14     -12.2062      1.00000
     15     -11.3683      1.00000
     16     -11.2255      1.00000
     17     -10.9545      1.00000
     18     -10.7011      1.00000
     19     -10.6449      1.00000
     20     -10.1505      1.00000
     21     -10.1362      1.00000
     22     -10.0554      1.00000
     23      -9.2493      1.00000
     24      -9.1208      1.00000
     25      -9.0932      1.00000
     26      -8.5200      1.00000
     27      -8.2536      1.00000
     28      -8.0565      1.00000
     29      -7.9378      1.00000
     30      -7.3787      1.00000
     31      -6.5081      1.00000
     32      -6.4107      1.00000
     33      -6.3392      1.00000
     34      -5.5936      1.00000
     35      -2.0941      0.00000
     36      -1.5036      0.00000
     37      -1.3995      0.00000
     38      -1.0984      0.00000
     39      -0.5291      0.00000
     40      -0.2386      0.00000
     41      -0.1054      0.00000
     42      -0.0409      0.00000
     43      -0.0059      0.00000
     44       0.0697      0.00000
     45       0.0713      0.00000
     46       0.0794      0.00000
     47       0.0916      0.00000
     48       0.0934      0.00000
     49       0.1002      0.00000
     50       0.1079      0.00000
     51       0.1453      0.00000
     52       0.1528      0.00000
     53       0.1614      0.00000
     54       0.1707      0.00000
     55       0.1724      0.00000
     56       0.1737      0.00000
     57       0.1740      0.00000
     58       0.1749      0.00000
     59       0.2061      0.00000
     60       0.2064      0.00000
     61       0.2082      0.00000
     62       0.2119      0.00000
     63       0.2338      0.00000
     64       0.2356      0.00000
     65       0.2508      0.00000
     66       0.2587      0.00000
 Fermi energy:        -5.2982891349

 spin component 2

 k-point     1 :       0.0000    0.0000    0.0000
  band No.  band energies     occupation 
      1     -21.6170      1.00000
      2     -21.1936      1.00000
      3     -19.9340      1.00000
      4     -18.4861      1.00000
      5     -18.4819      1.00000
      6     -18.3341      1.00000
      7     -17.6850      1.00000
      8     -15.5540      1.00000
      9     -14.9668      1.00000
     10     -14.7434      1.00000
     11     -14.6682      1.00000
     12     -13.5185      1.00000
     13     -12.8462      1.00000
     14     -12.2062      1.00000
     15     -11.3683      1.00000
     16     -11.2255      1.00000
     17     -10.9545      1.00000
     18     -10.7011      1.00000
     19     -10.6449      1.00000
     20     -10.1505      1.00000
     21     -10.1362      1.00000
     22     -10.0554      1.00000
     23      -9.2493      1.00000
     24      -9.1208      1.00000
     25      -9.0933      1.00000
     26      -8.5200      1.00000
     27      -8.2536      1.00000
     28      -8.0565      1.00000
     29      -7.9378      1.00000
     30      -7.3787      1.00000
     31      -6.5081      1.00000
     32      -6.4107      1.00000
     33      -6.3392      1.00000
     34      -5.5936      1.00000
     35      -2.0941      0.00000
     36      -1.5036      0.00000
     37      -1.3995      0.00000
     38      -1.0984      0.00000
     39      -0.5290      0.00000
     40      -0.2385      0.00000
     41      -0.1052      0.00000
     42      -0.0408      0.00000
     43      -0.0049      0.00000
     44       0.0698      0.00000
     45       0.0714      0.00000
     46       0.0799      0.00000
     47       0.0934      0.00000
     48       0.0954      0.00000
     49       0.1023      0.00000
     50       0.1064      0.00000
     51       0.1461      0.00000
     52       0.1533      0.00000
     53       0.1623      0.00000
     54       0.1722      0.00000
     55       0.1732      0.00000
     56       0.1742      0.00000
     57       0.1747      0.00000
     58       0.1754      0.00000
     59       0.2069      0.00000
     60       0.2071      0.00000
     61       0.2097      0.00000
     62       0.2114      0.00000
     63       0.2355      0.00000
     64       0.2361      0.00000
     65       0.2522      0.00000
     66       0.2610      0.00000


--------------------------------------------------------------------------------------------------------


 soft charge-density along one line, spin component           1
         0         1         2         3         4         5         6         7         8         9
 total charge-density along one line
 
 soft charge-density along one line, spin component           2
         0         1         2         3         4         5         6         7         8         9
 total charge-density along one line
 
 pseudopotential strength for first ion, spin component:           1
 10.256  13.640   0.001  -0.001  -0.000  -0.003   0.003   0.000
 13.640  18.139   0.001  -0.001  -0.000  -0.004   0.003   0.000
  0.001   0.001  -4.377   0.002  -0.001   8.564  -0.002   0.001
 -0.001  -0.001   0.002  -4.375  -0.002  -0.002   8.561   0.002
 -0.000  -0.000  -0.001  -0.002  -4.380   0.001   0.002   8.567
 -0.003  -0.004   8.564  -0.002   0.001 -18.892   0.001   0.000
  0.003   0.003  -0.002   8.561   0.002   0.001 -18.890  -0.002
  0.000   0.000   0.001   0.002   8.567   0.000  -0.002 -18.896
 pseudopotential strength for first ion, spin component:           2
 10.256  13.640   0.001  -0.001  -0.000  -0.003   0.003   0.000
 13.640  18.139   0.001  -0.001  -0.000  -0.004   0.003   0.000
  0.001   0.001  -4.377   0.002  -0.001   8.564  -0.002   0.001
 -0.001  -0.001   0.002  -4.375  -0.002  -0.002   8.561   0.002
 -0.000  -0.000  -0.001  -0.002  -4.380   0.001   0.002   8.567
 -0.003  -0.004   8.564  -0.002   0.001 -18.892   0.001   0.000
  0.003   0.003  -0.002   8.561   0.002   0.001 -18.890  -0.002
  0.000   0.000   0.001   0.002   8.567   0.000  -0.002 -18.896
 total augmentation occupancy for first ion, spin component:           1
  7.830  -3.399   0.190  -0.118   0.024   0.039  -0.025   0.004
 -3.399   1.522  -0.124   0.080  -0.014  -0.023   0.015  -0.002
  0.190  -0.124   1.552  -0.261   0.122   0.123  -0.037   0.017
 -0.118   0.080  -0.261   1.400   0.149  -0.037   0.102   0.023
  0.024  -0.014   0.122   0.149   1.789   0.017   0.023   0.162
  0.039  -0.023   0.123  -0.037   0.017   0.011  -0.004   0.002
 -0.025   0.015  -0.037   0.102   0.023  -0.004   0.008   0.003
  0.004  -0.002   0.017   0.023   0.162   0.002   0.003   0.016
 total augmentation occupancy for first ion, spin component:           2
 -0.000   0.000  -0.000  -0.000  -0.000  -0.000  -0.000  -0.000
  0.000  -0.000   0.000   0.000   0.000   0.000   0.000   0.000
 -0.000   0.000  -0.000   0.000  -0.000   0.000  -0.000  -0.000
 -0.000   0.000   0.000   0.000   0.000  -0.000   0.000   0.000
 -0.000   0.000  -0.000   0.000   0.000  -0.000   0.000   0.000
 -0.000   0.000   0.000  -0.000  -0.000   0.000  -0.000  -0.000
 -0.000   0.000  -0.000   0.000   0.000  -0.000   0.000   0.000
 -0.000   0.000  -0.000   0.000   0.000  -0.000   0.000   0.000


------------------------ aborting loop because EDIFF is reached ----------------------------------------


    CHARGE:  cpu time      8.9338: real time      8.9347
    FORLOC:  cpu time      0.3139: real time      0.3139
    FORNL :  cpu time      5.2004: real time      5.2010
    STRESS:  cpu time     15.6854: real time     15.6870
    FORCOR:  cpu time     13.3221: real time     13.3234
    FORHAR:  cpu time      1.7882: real time      1.7884
    MIXING:  cpu time      0.0960: real time      0.0960
    OFIELD:  cpu time      0.0000: real time      0.0000

 ---------------------------------------------------------------------------------------------

         DFTD3 V3.0 Rev 1        
 Edisp (eV)   -0.34351

 E6    (eV) :    -0.1582
 E8    (eV) :    -0.1854
 % E8        : 53.96
    FORVDW:  cpu time      0.0135: real time      0.0138

  FORCE on cell =-STRESS in cart. coord.  units (eV):
  Direction    XX          YY          ZZ          XY          YZ          ZX
  --------------------------------------------------------------------------------------
  Alpha Z     0.33654     0.33654     0.33654
  Ewald    5034.30849  2527.71594   544.11293    -0.02243     0.01939   474.08964
  Hartree  5165.66086  3035.29697  1683.53503    -0.00040     0.00039   234.99071
  E(xc)    -243.55099  -245.06052  -248.14189     0.00000    -0.00000     1.34078
  Local  -10825.39154 -6210.54595 -2928.46142     0.01858    -0.01805  -684.65660
  n-local   -83.74388   -82.29714   -79.01376    -0.00003     0.00079    -1.86427
  augment    -3.72732    -3.65063    -3.43387     0.00002     0.00001    -0.10052
  Kinetic   957.14111   978.36177  1029.31655     0.00136    -0.00058   -22.66573
  Fock        0.00000     0.00000     0.00000     0.00000     0.00000     0.00000
  vdW        -0.15376    -0.03086     0.00299    -0.00000    -0.00000     0.03598
  -------------------------------------------------------------------------------------
  Total       0.87951     0.12614    -1.74690     0.00000     0.00000     1.16998
  in kB       0.02202     0.00316    -0.04373     0.00000     0.00000     0.02929
  external pressure =       -0.01 kB  Pullay stress =        0.00 kB


 VOLUME and BASIS-vectors are now :
 -----------------------------------------------------------------------------
  energy-cutoff  :      500.00
  volume of cell :    64000.00
      direct lattice vectors                 reciprocal lattice vectors
    40.000000000  0.000000000  0.000000000     0.025000000  0.000000000  0.000000000
     0.000000000 40.000000000  0.000000000     0.000000000  0.025000000  0.000000000
     0.000000000  0.000000000 40.000000000     0.000000000  0.000000000  0.025000000

  length of vectors
    40.000000000 40.000000000 40.000000000     0.025000000  0.025000000  0.025000000


 FORCES acting on ions
    electron-ion (+dipol)            ewald-force                    non-local-force                 convergence-correction
 -----------------------------------------------------------------------------------------------
   -.102E+03 0.136E+03 -.120E+03   0.101E+03 -.137E+03 0.120E+03   -.270E-01 0.102E+01 -.850E+00   -.130E-02 -.359E-02 0.173E-02
   -.300E+02 0.387E+02 0.419E+01   0.302E+02 -.387E+02 -.435E+01   -.918E-01 0.498E-01 -.304E-01   -.195E-02 -.261E-02 0.391E-03
   0.265E+02 -.111E+03 0.133E+03   -.273E+02 0.111E+03 -.133E+03   0.978E+00 -.644E+00 0.602E+00   -.269E-02 0.645E-03 -.177E-02
   -.812E+02 -.180E+03 0.120E+03   0.812E+02 0.180E+03 -.120E+03   -.171E+00 -.104E+01 0.619E+00   0.156E-03 0.315E-02 -.215E-02
   -.213E+03 -.108E+03 0.138E+02   0.214E+03 0.108E+03 -.140E+02   -.110E+01 -.579E+00 0.135E+00   0.380E-02 0.212E-02 -.101E-03
   -.211E+03 0.478E+02 -.979E+02   0.211E+03 -.479E+02 0.980E+02   -.101E+01 0.347E+00 -.547E+00   0.309E-02 -.152E-02 0.205E-02
   0.175E-04 0.834E+02 -.818E-04   -.731E-03 -.839E+02 0.348E-02   0.000E+00 0.616E+00 0.000E+00   -.653E-07 -.249E-02 -.314E-07
   -.254E-04 0.258E+03 0.251E-01   -.354E-03 -.259E+03 -.685E-02   0.000E+00 0.121E+01 0.000E+00   -.246E-07 0.712E-03 -.288E-07
   0.300E+02 0.387E+02 -.419E+01   -.302E+02 -.387E+02 0.435E+01   0.918E-01 0.498E-01 0.304E-01   0.195E-02 -.261E-02 -.391E-03
   0.102E+03 0.136E+03 0.120E+03   -.101E+03 -.137E+03 -.120E+03   0.270E-01 0.102E+01 0.850E+00   0.130E-02 -.359E-02 -.174E-02
   0.211E+03 0.478E+02 0.979E+02   -.211E+03 -.479E+02 -.980E+02   0.101E+01 0.347E+00 0.547E+00   -.309E-02 -.152E-02 -.205E-02
   0.213E+03 -.108E+03 -.138E+02   -.214E+03 0.108E+03 0.140E+02   0.110E+01 -.579E+00 -.135E+00   -.380E-02 0.212E-02 0.100E-03
   0.812E+02 -.180E+03 -.120E+03   -.812E+02 0.180E+03 0.120E+03   0.171E+00 -.104E+01 -.619E+00   -.156E-03 0.315E-02 0.215E-02
   -.265E+02 -.111E+03 -.133E+03   0.273E+02 0.111E+03 0.133E+03   -.978E+00 -.644E+00 -.602E+00   0.269E-02 0.645E-03 0.177E-02
   -.764E+02 0.248E+02 -.445E+02   0.807E+02 -.266E+02 0.473E+02   -.459E+01 0.184E+01 -.306E+01   0.607E-03 -.296E-03 0.405E-03
   -.797E+02 -.441E+02 0.459E+01   0.844E+02 0.468E+02 -.486E+01   -.501E+01 -.294E+01 0.275E+00   0.579E-03 0.312E-03 -.633E-06
   -.177E+02 -.740E+02 0.506E+02   0.180E+02 0.785E+02 -.537E+02   -.359E+00 -.478E+01 0.329E+01   0.264E-04 0.610E-03 -.413E-03
   0.377E+02 -.442E+02 0.614E+02   -.422E+02 0.460E+02 -.642E+02   0.461E+01 -.191E+01 0.299E+01   -.411E-03 0.225E-03 -.418E-03
   0.469E+02 0.737E+02 -.669E+01   -.516E+02 -.765E+02 0.715E+01   0.490E+01 0.302E+01 -.406E+00   -.123E-03 0.334E-04 -.661E-04
   -.469E+02 0.738E+02 0.670E+01   0.516E+02 -.766E+02 -.715E+01   -.490E+01 0.302E+01 0.406E+00   0.123E-03 0.334E-04 0.660E-04
   -.377E+02 -.442E+02 -.614E+02   0.422E+02 0.460E+02 0.642E+02   -.461E+01 -.191E+01 -.299E+01   0.411E-03 0.225E-03 0.418E-03
   0.177E+02 -.740E+02 -.506E+02   -.180E+02 0.785E+02 0.537E+02   0.359E+00 -.478E+01 -.329E+01   -.264E-04 0.610E-03 0.413E-03
   0.797E+02 -.441E+02 -.460E+01   -.844E+02 0.468E+02 0.486E+01   0.501E+01 -.294E+01 -.275E+00   -.579E-03 0.312E-03 0.603E-06
   0.764E+02 0.248E+02 0.445E+02   -.807E+02 -.265E+02 -.473E+02   0.459E+01 0.184E+01 0.306E+01   -.607E-03 -.296E-03 -.405E-03
   0.207E+02 0.681E+02 0.577E+02   -.201E+02 -.725E+02 -.610E+02   -.416E+00 0.469E+01 0.340E+01   0.153E-03 -.599E-03 -.298E-03
   -.207E+02 0.681E+02 -.577E+02   0.201E+02 -.725E+02 0.610E+02   0.416E+00 0.469E+01 -.340E+01   -.153E-03 -.599E-03 0.298E-03
 -----------------------------------------------------------------------------------------------
   -.116E-02 -.320E-01 0.357E-02   0.462E-13 -.227E-12 0.639E-13   0.000E+00 -.224E-02 0.000E+00   -.480E-07 -.484E-02 -.411E-06
 
 
 POSITION                                       TOTAL-FORCE (eV/Angst)
 -----------------------------------------------------------------------------------
     22.40116     19.17996     20.67867         0.014147      0.001515      0.003043
     21.27271     19.61310     19.95928         0.011572     -0.004014     -0.001597
     21.38345     20.78109     19.18070         0.010294      0.005048     -0.001677
     22.58981     21.48005     19.10608         0.003533      0.000826     -0.002196
     23.70745     21.03303     19.81997         0.008253      0.002087      0.001730
     23.60713     19.88110     20.60828         0.001893      0.003448     -0.001129
     20.00000     18.84723     20.00000         0.000000      0.011040      0.000000
     20.00000     17.49678     19.99996         0.000000     -0.017133      0.000000
     18.72729     19.61310     20.04072        -0.011572     -0.004014      0.001597
     17.59884     19.18000     19.32133        -0.014147      0.001515     -0.003043
     16.39287     19.88114     19.39172        -0.001893      0.003448      0.001129
     16.29255     21.03307     20.18003        -0.008253      0.002087     -0.001730
     17.41019     21.48005     20.89396        -0.003533      0.000826      0.002196
     18.61655     20.78109     20.81934        -0.010294      0.005048      0.001677
     24.46833     19.53483     21.18218         0.002338     -0.001543     -0.000464
     24.64800     21.58403     19.76864        -0.002556     -0.002914      0.002594
     22.65721     22.37760     18.48874         0.001772     -0.001984      0.001949
     20.51692     21.13665     18.62069         0.003087      0.000232     -0.001403
     19.07145     16.92940     20.07463         0.008959      0.000426     -0.003661
     20.92851     16.92936     19.92529        -0.008959      0.000426      0.003661
     19.48308     21.13661     21.37935        -0.003087      0.000232      0.001403
     17.34279     22.37756     21.51134        -0.001772     -0.001984     -0.001949
     15.35200     21.58407     20.23140         0.002556     -0.002914     -0.002594
     15.53167     19.53487     18.81778        -0.002338     -0.001543      0.000464
     17.67771     18.29709     18.68458        -0.004080     -0.000080      0.003813
     22.32229     18.29705     21.31534         0.004080     -0.000080     -0.003813
 -----------------------------------------------------------------------------------
    total drift:                               -0.001157     -0.039038      0.003573


--------------------------------------------------------------------------------------------------------



  FREE ENERGIE OF THE ION-ELECTRON SYSTEM (eV)
  ---------------------------------------------------
  free  energy   TOTEN  =      -170.15183155 eV

  energy  without entropy=     -170.15183155  energy(sigma->0) =     -170.15183155
 
 d Force = 0.3715495E-05[ 0.125E-05, 0.618E-05]  d Energy = 0.6580598E-05-0.287E-05
 d Force =-0.3220918E+00[-0.322E+00,-0.322E+00]  d Ewald  =-0.3220918E+00-0.187E-09


--------------------------------------------------------------------------------------------------------


    POTLOK:  cpu time    249.8543: real time    249.8784


--------------------------------------------------------------------------------------------------------




--------------------------------------------------------------------------------------------------------


  
 reached required accuracy - stopping structural energy minimisation
 writing wavefunctions
     LOOP+:  cpu time    976.0035: real time    979.4966
    4ORBIT:  cpu time      0.0000: real time      0.0000

 total amount of memory used by VASP MPI-rank0   533701. kBytes
=======================================================================

   base      :      30000. kBytes
   nonlr-proj:       1500. kBytes
   fftplans  :     131430. kBytes
   grid      :     332629. kBytes
   one-center:         12. kBytes
   wavefun   :      38130. kBytes
 
  
  
 General timing and accounting informations for this job:
 ========================================================
  
                  Total CPU time used (sec):    16657.600
                            User time (sec):     7683.009
                          System time (sec):     8974.589
                         Elapsed time (sec):    16666.411
  
                   Maximum memory used (kb):     1573476.
                   Average memory used (kb):          N/A
  
                          Minor page faults:     56890973
                          Major page faults:            0
                 Voluntary context switches:        19035
