 vasp.6.4.2 20Jul23 (build Sep 06 2024 14:39:43) complex                        
  
 executed on             LinuxIFC date 2025.08.29  02:07:07
 running   90 mpi-ranks, on    6 nodes
 distrk:  each k-point on   90 cores,    1 groups
 distr:  one band on NCORE=  30 cores,    3 groups


--------------------------------------------------------------------------------------------------------


 INCAR:
   SYSTEM = 078_red
   ISTART = 1
   ICHARG = 2
   INIWAV = 1
   LHFCALC = .TRUE.
   HFSCREEN = 0.2
   NELM = 500
   ALGO = Damped
   ISPIN = 2
   EDIFF = 1E-05
   ISMEAR = 0
   SIGMA = 0.05
   PREC = accurate
   ENCUT = 500
   LREAL = auto  	
   LDIAG = .FALSE.
   LWAVE = .TRUE.
   LCHARG = .FALSE.
   LAECHG = .FALSE.
   LVHAR = .FALSE.
   LVTOT = .FALSE.
   EDIFFG = -0.02
   IBRION = 2
   NSW = 0
   ISIF = 2
   POTIM = 0.5
   IVDW = 12
   VDW_A1 = 0.383
   VDW_S8 = 2.310
   VDW_A2 = 5.685
   LPLANE = .TRUE.
   NCORE = 30
   LSCALU = .FALSE.
   NSIM = 4
   LSOL = .TRUE.
   EB_K = 35.6880
   LAMBDA_D_K = 3.04
   TAU = 0

 POTCAR:    PAW_PBE C 08Apr2002                   
 POTCAR:    PAW_PBE O 08Apr2002                   
 POTCAR:    PAW_PBE S 06Sep2000                   
 POTCAR:    PAW_PBE H 15Jun2001                   
 -----------------------------------------------------------------------------
|                                                                             |
|           W    W    AA    RRRRR   N    N  II  N    N   GGGG   !!!           |
|           W    W   A  A   R    R  NN   N  II  NN   N  G    G  !!!           |
|           W    W  A    A  R    R  N N  N  II  N N  N  G       !!!           |
|           W WW W  AAAAAA  RRRRR   N  N N  II  N  N N  G  GGG   !            |
|           WW  WW  A    A  R   R   N   NN  II  N   NN  G    G                |
|           W    W  A    A  R    R  N    N  II  N    N   GGGG   !!!           |
|                                                                             |
|     You use a magnetic or noncollinear calculation, but did not specify     |
|     the initial magnetic moment with the MAGMOM tag. Note that a            |
|     default of 1 will be used for all atoms. This ferromagnetic setup       |
|     may break the symmetry of the crystal, in particular it may rule        |
|     out finding an antiferromagnetic solution. Thence, we recommend         |
|     setting the initial magnetic moment manually or verifying carefully     |
|     that this magnetic setup is desired.                                    |
|                                                                             |
 -----------------------------------------------------------------------------

 -----------------------------------------------------------------------------
|                                                                             |
|           W    W    AA    RRRRR   N    N  II  N    N   GGGG   !!!           |
|           W    W   A  A   R    R  NN   N  II  NN   N  G    G  !!!           |
|           W    W  A    A  R    R  N N  N  II  N N  N  G       !!!           |
|           W WW W  AAAAAA  RRRRR   N  N N  II  N  N N  G  GGG   !            |
|           WW  WW  A    A  R   R   N   NN  II  N   NN  G    G                |
|           W    W  A    A  R    R  N    N  II  N    N   GGGG   !!!           |
|                                                                             |
|     For optimal performance we recommend to set                             |
|       NCORE = 2 up to number-of-cores-per-socket                            |
|     NCORE specifies how many cores store one orbital (NPAR=cpu/NCORE).      |
|     This setting can greatly improve the performance of VASP for DFT.       |
|     The default, NCORE=1 might be grossly inefficient on modern             |
|     multi-core architectures or massively parallel machines. Do your        |
|     own testing! More info at https://www.vasp.at/wiki/index.php/NCORE      |
|     Unfortunately you need to use the default for GW and RPA                |
|     calculations (for HF NCORE is supported but not extensively tested      |
|     yet).                                                                   |
|                                                                             |
 -----------------------------------------------------------------------------

 POTCAR:    PAW_PBE C 08Apr2002                   
   SHA256 =  253f7b50bb8d59471dbedb8285d89021f4a42ed1a2c5d38a03a736e69125dd95 C/POTCAR              
   COPYR  = (c) Copyright 08Apr2002 Georg Kresse                                                    
   COPYR  = This file is part of the software VASP. Any use, copying, and all other rights are regul
   COPYR  = If you do not have a valid VASP license, you may not use, copy or distribute this file. 
   VRHFIN =C: s2p2                                                                                  
   LEXCH  = PE                                                                                      
   EATOM  =   147.1560 eV,   10.8157 Ry                                                             
                                                                                                    
   TITEL  = PAW_PBE C 08Apr2002                                                                     
   LULTRA =        F    use ultrasoft PP ?                                                          
   IUNSCR =        1    unscreen: 0-lin 1-nonlin 2-no                                               
   RPACOR =    1.200    partial core radius                                                         
   POMASS =   12.011; ZVAL   =    4.000    mass and valenz                                          
   RCORE  =    1.500    outmost cutoff radius                                                       
   RWIGS  =    1.630; RWIGS  =    0.863    wigner-seitz radius (au A)                               
   ENMAX  =  400.000; ENMIN  =  300.000 eV                                                          
   ICORE  =        2    local potential                                                             
   LCOR   =        T    correct aug charges                                                         
   LPAW   =        T    paw PP                                                                      
   EAUG   =  644.873                                                                                
   DEXC   =    0.000                                                                                
   RMAX   =    1.529    core radius for proj-oper                                                   
   RAUG   =    1.300    factor for augmentation sphere                                              
   RDEP   =    1.501    radius for radial grids                                                     
   RDEPT  =    1.300    core radius for aug-charge                                                  
                                                                                                    
   Atomic configuration                                                                             
    4 entries                                                                                       
     n  l   j            E        occ.                                                              
     1  0  0.50      -273.3789   2.0000                                                             
     2  0  0.50       -13.7508   2.0000                                                             
     2  1  0.50        -5.2854   2.0000                                                             
     3  2  1.50        -5.4423   0.0000                                                             
   Description                                                                                      
     l       E           TYP  RCUT    TYP  RCUT                                                     
     0    -13.7508458     23  1.200                                                                 
     0     -8.2022199     23  1.200                                                                 
     1     -5.2854383     23  1.500                                                                 
     1     34.0145650     23  1.500                                                                 
     2     -5.4423304      7  1.500                                                                 
  local pseudopotential read in
  partial core-charges read in
  partial kinetic energy density read in
  atomic valenz-charges read in
  non local Contribution for L=           0  read in
    real space projection operators read in
  non local Contribution for L=           0  read in
    real space projection operators read in
  non local Contribution for L=           1  read in
    real space projection operators read in
  non local Contribution for L=           1  read in
    real space projection operators read in
    PAW grid and wavefunctions read in
 
   number of l-projection  operators is LMAX  =           4
   number of lm-projection operators is LMMAX =           8
 
 POTCAR:    PAW_PBE O 08Apr2002                   
   SHA256 =  818f92134a0a090dccd8ba1447fa70422a3b330e708bb4f08108d8ae51209ddf O/POTCAR              
   COPYR  = (c) Copyright 08Apr2002 Georg Kresse                                                    
   COPYR  = This file is part of the software VASP. Any use, copying, and all other rights are regul
   COPYR  = If you do not have a valid VASP license, you may not use, copy or distribute this file. 
   VRHFIN =O: s2p4                                                                                  
   LEXCH  = PE                                                                                      
   EATOM  =   432.3788 eV,   31.7789 Ry                                                             
                                                                                                    
   TITEL  = PAW_PBE O 08Apr2002                                                                     
   LULTRA =        F    use ultrasoft PP ?                                                          
   IUNSCR =        1    unscreen: 0-lin 1-nonlin 2-no                                               
   RPACOR =    1.200    partial core radius                                                         
   POMASS =   16.000; ZVAL   =    6.000    mass and valenz                                          
   RCORE  =    1.520    outmost cutoff radius                                                       
   RWIGS  =    1.550; RWIGS  =    0.820    wigner-seitz radius (au A)                               
   ENMAX  =  400.000; ENMIN  =  300.000 eV                                                          
   ICORE  =        2    local potential                                                             
   LCOR   =        T    correct aug charges                                                         
   LPAW   =        T    paw PP                                                                      
   EAUG   =  605.392                                                                                
   DEXC   =    0.000                                                                                
   RMAX   =    1.553    core radius for proj-oper                                                   
   RAUG   =    1.300    factor for augmentation sphere                                              
   RDEP   =    1.550    radius for radial grids                                                     
   RDEPT  =    1.329    core radius for aug-charge                                                  
                                                                                                    
   Atomic configuration                                                                             
    4 entries                                                                                       
     n  l   j            E        occ.                                                              
     1  0  0.50      -514.6923   2.0000                                                             
     2  0  0.50       -23.9615   2.0000                                                             
     2  1  0.50        -9.0305   4.0000                                                             
     3  2  1.50        -9.5241   0.0000                                                             
   Description                                                                                      
     l       E           TYP  RCUT    TYP  RCUT                                                     
     0    -23.9615318     23  1.200                                                                 
     0     -9.5240782     23  1.200                                                                 
     1     -9.0304911     23  1.520                                                                 
     1      8.1634956     23  1.520                                                                 
     2     -9.5240782      7  1.500                                                                 
  local pseudopotential read in
  partial core-charges read in
  partial kinetic energy density read in
  kinetic energy density of atom read in
  atomic valenz-charges read in
  non local Contribution for L=           0  read in
    real space projection operators read in
  non local Contribution for L=           0  read in
    real space projection operators read in
  non local Contribution for L=           1  read in
    real space projection operators read in
  non local Contribution for L=           1  read in
    real space projection operators read in
    PAW grid and wavefunctions read in
 
   number of l-projection  operators is LMAX  =           4
   number of lm-projection operators is LMMAX =           8
 
 POTCAR:    PAW_PBE S 06Sep2000                   
   SHA256 =  0fc7481fb0695f01bdc6462160264c5c84044ae9ec85a907d398b887a2bc3132 S/POTCAR              
   COPYR  = (c) Copyright 06Sep2000 Georg Kresse                                                    
   COPYR  = This file is part of the software VASP. Any use, copying, and all other rights are regul
   COPYR  = If you do not have a valid VASP license, you may not use, copy or distribute this file. 
   VRHFIN =S : s2p4                                                                                 
   LEXCH  = PE                                                                                      
   EATOM  =   276.8230 eV,   20.3459 Ry                                                             
                                                                                                    
   TITEL  = PAW_PBE S 06Sep2000                                                                     
   LULTRA =        F    use ultrasoft PP ?                                                          
   IUNSCR =        1    unscreen: 0-lin 1-nonlin 2-no                                               
   RPACOR =    1.500    partial core radius                                                         
   POMASS =   32.066; ZVAL   =    6.000    mass and valenz                                          
   RCORE  =    1.900    outmost cutoff radius                                                       
   RWIGS  =    2.200; RWIGS  =    1.164    wigner-seitz radius (au A)                               
   ENMAX  =  258.689; ENMIN  =  194.016 eV                                                          
   ICORE  =        2    local potential                                                             
   LCOR   =        T    correct aug charges                                                         
   LPAW   =        T    paw PP                                                                      
   EAUG   =  335.092                                                                                
   DEXC   =    0.000                                                                                
   RMAX   =    1.942    core radius for proj-oper                                                   
   RAUG   =    1.300    factor for augmentation sphere                                              
   RDEP   =    1.954    radius for radial grids                                                     
   RDEPT  =    1.744    core radius for aug-charge                                                  
                                                                                                    
   Atomic configuration                                                                             
    6 entries                                                                                       
     n  l   j            E        occ.                                                              
     1  0  0.50     -2405.8406   2.0000                                                             
     2  0  0.50      -211.7007   2.0000                                                             
     2  1  1.50      -156.4958   6.0000                                                             
     3  0  0.50       -17.2562   2.0000                                                             
     3  1  0.50        -7.0085   4.0000                                                             
     3  2  1.50        -6.8029   0.0000                                                             
   Description                                                                                      
     l       E           TYP  RCUT    TYP  RCUT                                                     
     0    -17.2561641     23  1.900                                                                 
     0    -15.8743224     23  1.900                                                                 
     1     -7.0085400     23  1.900                                                                 
     1     -2.7779785     23  1.900                                                                 
     2     -6.8029130     23  1.900                                                                 
  local pseudopotential read in
  partial core-charges read in
  partial kinetic energy density read in
  atomic valenz-charges read in
  non local Contribution for L=           0  read in
    real space projection operators read in
  non local Contribution for L=           0  read in
    real space projection operators read in
  non local Contribution for L=           1  read in
    real space projection operators read in
  non local Contribution for L=           1  read in
    real space projection operators read in
    PAW grid and wavefunctions read in
 
   number of l-projection  operators is LMAX  =           4
   number of lm-projection operators is LMMAX =           8
 
 POTCAR:    PAW_PBE H 15Jun2001                   
   SHA256 =  030f79b5d3ab3cf0e668861823c8fb652ff669f3e15e46930bd03bfd63a607b6 H/POTCAR              
   COPYR  = (c) Copyright 15Jun2001 Georg Kresse                                                    
   COPYR  = This file is part of the software VASP. Any use, copying, and all other rights are regul
   COPYR  = If you do not have a valid VASP license, you may not use, copy or distribute this file. 
   VRHFIN =H: ultrasoft test                                                                        
   LEXCH  = PE                                                                                      
   EATOM  =    12.4884 eV,    0.9179 Ry                                                             
                                                                                                    
   TITEL  = PAW_PBE H 15Jun2001                                                                     
   LULTRA =        F    use ultrasoft PP ?                                                          
   IUNSCR =        0    unscreen: 0-lin 1-nonlin 2-no                                               
   RPACOR =    0.000    partial core radius                                                         
   POMASS =    1.000; ZVAL   =    1.000    mass and valenz                                          
   RCORE  =    1.100    outmost cutoff radius                                                       
   RWIGS  =    0.700; RWIGS  =    0.370    wigner-seitz radius (au A)                               
   ENMAX  =  250.000; ENMIN  =  200.000 eV                                                          
   RCLOC  =    0.701    cutoff for local pot                                                        
   LCOR   =        T    correct aug charges                                                         
   LPAW   =        T    paw PP                                                                      
   EAUG   =  400.000                                                                                
   RMAX   =    1.123    core radius for proj-oper                                                   
   RAUG   =    1.200    factor for augmentation sphere                                              
   RDEP   =    1.112    radius for radial grids                                                     
   RDEPT  =    0.926    core radius for aug-charge                                                  
                                                                                                    
   Atomic configuration                                                                             
    2 entries                                                                                       
     n  l   j            E        occ.                                                              
     1  0  0.50        -6.4927   1.0000                                                             
     2  1  0.50        -3.4015   0.0000                                                             
   Description                                                                                      
     l       E           TYP  RCUT    TYP  RCUT                                                     
     0     -6.4927494     23  1.100                                                                 
     0      6.8029130     23  1.100                                                                 
     1     -4.0817478     23  1.100                                                                 
  local pseudopotential read in
  atomic valenz-charges read in
  non local Contribution for L=           0  read in
    real space projection operators read in
  non local Contribution for L=           0  read in
    real space projection operators read in
  non local Contribution for L=           1  read in
    real space projection operators read in
    PAW grid and wavefunctions read in
 
   number of l-projection  operators is LMAX  =           3
   number of lm-projection operators is LMMAX =           5
 
 Optimization of the real space projectors (new method)

 maximal supplied QI-value         = 25.13
 optimisation between [QCUT,QGAM] = [ 11.31, 22.87] = [ 35.82,146.48] Ry 
 Optimized for a Real-space Cutoff    1.03 Angstroem

   l    n(q)    QCUT    max X(q) W(low)/X(q) W(high)/X(q)  e(spline) 
   0      7    11.310   115.676    0.20E-03    0.90E-03    0.20E-06
   0      7    11.310    87.132    0.20E-03    0.89E-03    0.19E-06
   1      6    11.310     4.429    0.16E-03    0.28E-03    0.12E-06
   1      6    11.310     2.733    0.12E-03    0.21E-03    0.99E-07
 Optimization of the real space projectors (new method)

 maximal supplied QI-value         = 24.76
 optimisation between [QCUT,QGAM] = [ 11.39, 22.77] = [ 36.31,145.25] Ry 
 Optimized for a Real-space Cutoff    1.10 Angstroem

   l    n(q)    QCUT    max X(q) W(low)/X(q) W(high)/X(q)  e(spline) 
   0      7    11.387    20.381    0.22E-03    0.48E-03    0.18E-06
   0      7    11.387    15.268    0.22E-03    0.52E-03    0.19E-06
   1      7    11.387     5.964    0.22E-03    0.73E-03    0.24E-06
   1      7    11.387     5.382    0.19E-03    0.60E-03    0.21E-06
 Optimization of the real space projectors (new method)

 maximal supplied QI-value         = 19.84
 optimisation between [QCUT,QGAM] = [ 11.31, 22.82] = [ 35.82,145.81] Ry 
 Optimized for a Real-space Cutoff    1.20 Angstroem

   l    n(q)    QCUT    max X(q) W(low)/X(q) W(high)/X(q)  e(spline) 
   0      8    11.310   187.594    0.16E-03    0.19E-03    0.53E-07
   0      8    11.310   164.243    0.16E-03    0.19E-03    0.53E-07
   1      8    11.310    67.533    0.18E-03    0.19E-03    0.92E-07
   1      8    11.310    50.729    0.18E-03    0.19E-03    0.90E-07
 Optimization of the real space projectors (new method)

 maximal supplied QI-value         = 34.20
 optimisation between [QCUT,QGAM] = [ 11.29, 22.57] = [ 35.68,142.71] Ry 
 Optimized for a Real-space Cutoff    1.20 Angstroem

   l    n(q)    QCUT    max X(q) W(low)/X(q) W(high)/X(q)  e(spline) 
   0      8    11.287    19.460    0.22E-03    0.50E-03    0.19E-06
   0      8    11.287    12.209    0.21E-03    0.48E-03    0.18E-06
   1      8    11.287     4.655    0.21E-03    0.11E-04    0.26E-06
  PAW_PBE C 08Apr2002                   :
 energy of atom  1       EATOM= -147.1560
 kinetic energy error for atom=    0.0076 (will be added to EATOM!!)
  PAW_PBE O 08Apr2002                   :
 energy of atom  2       EATOM= -432.3788
 kinetic energy error for atom=    0.0224 (will be added to EATOM!!)
  PAW_PBE S 06Sep2000                   :
 energy of atom  3       EATOM= -276.8230
 kinetic energy error for atom=    0.0020 (will be added to EATOM!!)
  PAW_PBE H 15Jun2001                   :
 energy of atom  4       EATOM=  -12.4884
 kinetic energy error for atom=    0.0020 (will be added to EATOM!!)
 
 
 POSCAR: C O S H
  positions in direct lattice
  velocities in cartesian coordinates
 exchange correlation table for  LEXCH =        8
   RHO(1)=    0.500       N(1)  =     2000
   RHO(2)=  100.500       N(2)  =     4000
 


--------------------------------------------------------------------------------------------------------


 ion  position               nearest neighbor table
   1  0.552  0.501  0.498-   6 1.40   2 1.41   9 1.77
   2  0.537  0.533  0.499-  16 1.09   3 1.39   1 1.41
   3  0.502  0.536  0.501-  15 1.09   2 1.39   4 1.41
   4  0.482  0.508  0.502-   8 1.37   5 1.40   3 1.41
   5  0.496  0.476  0.501-  11 1.09   6 1.40   4 1.40
   6  0.531  0.473  0.499-  10 1.09   5 1.40   1 1.40
   7  0.426  0.485  0.504-  12 1.09  13 1.10  14 1.10   8 1.44
   8  0.448  0.513  0.504-   4 1.37   7 1.44
   9  0.596  0.496  0.496-  17 1.35   1 1.77
  10  0.542  0.448  0.498-   6 1.09
  11  0.481  0.453  0.502-   5 1.09
  12  0.401  0.495  0.504-   7 1.09
  13  0.430  0.470  0.481-   7 1.10
  14  0.431  0.469  0.526-   7 1.10
  15  0.490  0.561  0.502-   3 1.09
  16  0.552  0.556  0.499-   2 1.09
  17  0.603  0.527  0.487-   9 1.35
 
  LATTYP: Found a simple cubic cell.
 ALAT       =    40.0000000000
  
  Lattice vectors:
  
 A1 = (  40.0000000000,   0.0000000000,   0.0000000000)
 A2 = (   0.0000000000,  40.0000000000,   0.0000000000)
 A3 = (   0.0000000000,   0.0000000000,  40.0000000000)


Analysis of symmetry for initial positions (statically):
=====================================================================
 Subroutine PRICEL returns:
 Original cell was already a primitive cell.
 

 Routine SETGRP: Setting up the symmetry group for a 
 simple cubic supercell.


 Subroutine GETGRP returns: Found  1 space group operations
 (whereof  1 operations were pure point group operations)
 out of a pool of 48 trial point group operations.


The static configuration has the point symmetry C_1 .


Analysis of symmetry for dynamics (positions and initial velocities):
=====================================================================
 Subroutine PRICEL returns:
 Original cell was already a primitive cell.
 

 Routine SETGRP: Setting up the symmetry group for a 
 simple cubic supercell.


 Subroutine GETGRP returns: Found  1 space group operations
 (whereof  1 operations were pure point group operations)
 out of a pool of 48 trial point group operations.


The dynamic configuration has the point symmetry C_1 .


Analysis of constrained symmetry for selective dynamics:
=====================================================================
 Subroutine PRICEL returns:
 Original cell was already a primitive cell.
 

 Routine SETGRP: Setting up the symmetry group for a 
 simple cubic supercell.


 Subroutine GETGRP returns: Found  1 space group operations
 (whereof  1 operations were pure point group operations)
 out of a pool of 48 trial point group operations.


The constrained configuration has the point symmetry C_1 .


Analysis of structural, dynamic, and magnetic symmetry:
=====================================================================
 Subroutine PRICEL returns:
 Original cell was already a primitive cell.
 

 Routine SETGRP: Setting up the symmetry group for a 
 simple cubic supercell.


 Subroutine GETGRP returns: Found  1 space group operations
 (whereof  1 operations were pure point group operations)
 out of a pool of 48 trial point group operations.


The overall configuration has the point symmetry C_1 .


 Subroutine INISYM returns: Found  1 space group operations
 (whereof  1 operations are pure point group operations),
 and found     1 'primitive' translations


----------------------------------------------------------------------------------------

                                     Primitive cell                                     

  volume of cell :   64000.0000

  direct lattice vectors                    reciprocal lattice vectors
    40.000000000  0.000000000  0.000000000     0.025000000  0.000000000  0.000000000
     0.000000000 40.000000000  0.000000000     0.000000000  0.025000000  0.000000000
     0.000000000  0.000000000 40.000000000     0.000000000  0.000000000  0.025000000

  length of vectors
    40.000000000 40.000000000 40.000000000     0.025000000  0.025000000  0.025000000

  position of ions in fractional coordinates (direct lattice)
     0.551631806  0.501427845  0.497782667
     0.536649245  0.533202019  0.499187222
     0.502054227  0.536261092  0.501047227
     0.481647829  0.507667829  0.501943628
     0.496427047  0.475888411  0.500985562
     0.531224227  0.472987456  0.498765658
     0.426255114  0.484699368  0.503510704
     0.447877128  0.513384878  0.503629327
     0.595568238  0.495778717  0.495557958
     0.542357363  0.448103005  0.497666198
     0.481331997  0.453263980  0.501701408
     0.400750321  0.494587204  0.504339035
     0.429680086  0.469856039  0.480582439
     0.430711615  0.468824437  0.525564584
     0.490384563  0.560907614  0.501912578
     0.552044508  0.555697193  0.498767184
     0.603402688  0.527463913  0.487054619

  ion indices of the primitive-cell ions
   primitive index   ion index
                 1           1
                 2           2
                 3           3
                 4           4
                 5           5
                 6           6
                 7           7
                 8           8
                 9           9
                10          10
                11          11
                12          12
                13          13
                14          14
                15          15
                16          16
                17          17

----------------------------------------------------------------------------------------

 
 
 KPOINTS: K-Point Grid                            

Automatic generation of k-mesh.
 Grid dimensions read from file:
 generate k-points for:    1    1    1

 Generating k-lattice:

  Cartesian coordinates                     Fractional coordinates (reciprocal lattice)
     0.025000000  0.000000000  0.000000000     1.000000000  0.000000000  0.000000000
     0.000000000  0.025000000  0.000000000     0.000000000  1.000000000  0.000000000
     0.000000000  0.000000000  0.025000000     0.000000000  0.000000000  1.000000000

  Length of vectors
     0.025000000  0.025000000  0.025000000

  Shift w.r.t. Gamma in fractional coordinates (k-lattice)
     0.000000000  0.000000000  0.000000000

 
 Subroutine IBZKPT returns following result:
 ===========================================
 
 Found      1 irreducible k-points:
 
 Following reciprocal coordinates:
            Coordinates               Weight
  0.000000  0.000000  0.000000      1.000000
 
 Following cartesian coordinates:
            Coordinates               Weight
  0.000000  0.000000  0.000000      1.000000
 
 
 Subroutine IBZKPT_HF returns following result:
 ==============================================
 
 Found      1 k-points in 1st BZ
 the following      1 k-points will be used (e.g. in the exchange kernel)
 Following reciprocal coordinates:   # in IRBZ
  0.000000  0.000000  0.000000    1.00000000   1 t-inv F


--------------------------------------------------------------------------------------------------------




 Dimension of arrays:
   k-points           NKPTS =      1   k-points in BZ     NKDIM =      1   number of bands    NBANDS=     42
   number of dos      NEDOS =    301   number of ions     NIONS =     17
   non local maximal  LDIM  =      4   non local SUM 2l+1 LMDIM =      8
   total plane-waves  NPLWV = ******
   max r-space proj   IRMAX =   2915   max aug-charges    IRDMAX=  12708
   dimension x,y,z NGX =   294 NGY =  294 NGZ =  294
   dimension x,y,z NGXF=   588 NGYF=  588 NGZF=  588
   support grid    NGXF=   588 NGYF=  588 NGZF=  588
   ions per type =               7   1   1   8
   NGX,Y,Z   is equivalent  to a cutoff of  12.22, 12.22, 12.22 a.u.
   NGXF,Y,Z  is equivalent  to a cutoff of  24.44, 24.44, 24.44 a.u.

 SYSTEM =  078_red                                 
 POSCAR =  C O S H                                 

 Startparameter for this run:
   NWRITE =      2    write-flag & timer
   PREC   = accura    normal or accurate (medium, high low for compatibility)
   ISTART =      1    job   : 0-new  1-cont  2-samecut
   ICHARG =      2    charge: 1-file 2-atom 10-const
   ISPIN  =      2    spin polarized calculation?
   LNONCOLLINEAR =      F non collinear calculations
   LSORBIT =      F    spin-orbit coupling
   INIWAV =      1    electr: 0-lowe 1-rand  2-diag
   LASPH  =      F    aspherical Exc in radial PAW
 Electronic Relaxation 1
   ENCUT  =  500.0 eV  36.75 Ry    6.06 a.u.  72.93 72.93 72.93*2*pi/ulx,y,z
   ENINI  =  500.0     initial cutoff
   ENAUG  =  644.9 eV  augmentation charge cutoff
   NELM   =    500;   NELMIN=  2; NELMDL=  0     # of ELM steps 
   EDIFF  = 0.1E-04   stopping-criterion for ELM
   LREAL  =      T    real-space projection
   NLSPLINE    = F    spline interpolate recip. space projectors
   LCOMPAT=      F    compatible to vasp.4.4
   GGA_COMPAT  = T    GGA compatible to vasp.4.4-vasp.4.6
   LMAXPAW     = -100 max onsite density
   LMAXMIX     =    2 max onsite mixed and CHGCAR
   VOSKOWN=      0    Vosko Wilk Nusair interpolation
   ROPT   =   -0.00025  -0.00025  -0.00025  -0.00025
 Ionic relaxation
   EDIFFG = -.2E-01   stopping-criterion for IOM
   NSW    =      0    number of steps for IOM
   NBLOCK =      1;   KBLOCK =      1    inner block; outer block 
   IBRION =     -1    ionic relax: 0-MD 1-quasi-New 2-CG
   NFREE  =      1    steps in history (QN), initial steepest desc. (CG)
   ISIF   =      2    stress and relaxation
   IWAVPR =     10    prediction:  0-non 1-charg 2-wave 3-comb
   ISYM   =      3    0-nonsym 1-usesym 2-fastsym
   LCORR  =      T    Harris-Foulkes like correction to forces

   POTIM  = 0.5000    time-step for ionic-motion
   TEIN   =    0.0    initial temperature
   TEBEG  =    0.0;   TEEND  =   0.0 temperature during run
   SMASS  =  -3.00    Nose mass-parameter (am)
   estimated Nose-frequenzy (Omega)   =  0.10E-29 period in steps = 0.13E+47 mass=  -0.366E-25a.u.
   SCALEE = 1.0000    scale energy and forces
   NPACO  =    256;   APACO  = 10.0  distance and # of slots for P.C.
   PSTRESS=    0.0 pullay stress

  Mass of Ions in am
   POMASS =  12.01 16.00 32.07  1.00
  Ionic Valenz
   ZVAL   =   4.00  6.00  6.00  1.00
  Atomic Wigner-Seitz radii
   RWIGS  =  -1.00 -1.00 -1.00 -1.00
  virtual crystal weights 
   VCA    =   1.00  1.00  1.00  1.00
   NELECT =      48.0000    total number of electrons
   NUPDOWN=      -1.0000    fix difference up-down

 DOS related values:
   EMIN   =  10.00;   EMAX   =-10.00  energy-range for DOS
   EFERMI =   0.00;   METHOD = LEGACY      
   ISMEAR =     0;   SIGMA  =   0.05  broadening in eV -4-tet -1-fermi 0-gaus

 Electronic relaxation 2 (details)
   IALGO  =     53    algorithm
   LDIAG  =      F    sub-space diagonalisation (order eigenvalues)
   LSUBROT=      F    optimize rotation matrix (better conditioning)
   TURBO    =      0    0=normal 1=particle mesh
   IRESTART =      0    0=no restart 2=restart with 2 vectors
   NREBOOT  =      0    no. of reboots
   NMIN     =      0    reboot dimension
   EREF     =   0.00    reference energy to select bands
   IMIX   =      4    mixing-type and parameters
     AMIX     =   0.40;   BMIX     =  1.00
     AMIX_MAG =   1.60;   BMIX_MAG =  1.00
     AMIN     =   0.10
     WC   =   100.;   INIMIX=   1;  MIXPRE=   1;  MAXMIX= -45

 Intra band minimization:
   WEIMIN = 0.0000     energy-eigenvalue tresh-hold
   EBREAK =  0.60E-07  absolut break condition
   DEPER  =   0.30     relativ break condition  

   TIME   =   0.40     timestep for ELM

  volume/ion in A,a.u.               =    3764.71     25405.49
  Fermi-wavevector in a.u.,A,eV,Ry     =   0.148740  0.281078  0.301011  0.022124
  Thomas-Fermi vector in A             =   0.822372
 
 Write flags
   LWAVE        =      T    write WAVECAR
   LDOWNSAMPLE  =      F    k-point downsampling of WAVECAR
   LCHARG       =      F    write CHGCAR
   LVTOT        =      F    write LOCPOT, total local potential
   LVHAR        =      F    write LOCPOT, Hartree potential only
   LELF         =      F    write electronic localiz. function (ELF)
   LORBIT       =      0    0 simple, 1 ext, 2 COOP (PROOUT), +10 PAW based schemes


 Dipole corrections
   LMONO  =      F    monopole corrections only (constant potential shift)
   LDIPOL =      F    correct potential (dipole corrections)
   IDIPOL =      0    1-x, 2-y, 3-z, 4-all directions 
   EPSILON=  1.0000000 bulk dielectric constant

 Exchange correlation treatment:
   GGA     =    --    GGA type
   LEXCH   =     8    internal setting for exchange type
   LIBXC   =     F    Libxc                    
   VOSKOWN =     0    Vosko Wilk Nusair interpolation
   EXXOEP  =     0    0=HF, 1=EXX-LHF (local Hartree Fock) 2=EXX OEP
   LHFCALC =     T    Hartree Fock is set to
   LSYMGRAD=     F    symmetrize gradient (conserves proper symmetry)
   PRECFOCK=normal    Normal, Fast or Accurate (Low or Medium for compatibility)
   LRHFCALC=     F    long range Hartree Fock
   LRSCOR  =     F    long range correlation only (use DFT for short range part)
   LTHOMAS =     F    Thomas Fermi screening in HF
   LMODELHF=     F    short range full HF, long range fraction AEXX
   FOCKCORR=     1    mode to apply convergence corrections
   LFOCKACE=     F    use Adeptively-Compressed-Exchange operator
   ENCUT4O =  -1.0   cutoff for four orbital integrals eV
   LMAXFOCK=     4    L truncation for augmentation on plane wave grid
   LMAXFOCKAE=  -1    L truncation for all-electron charge restoration on plane wave grid
   NMAXFOCKAE=   1    number of basis functions for all-electron charge restoration
   LFOCKAEDFT=     F  apply the AE augmentation even for DFT
   NKREDX  =     1    reduce k-point grid by
   NKREDY  =     1    reduce k-point grid by
   NKREDZ  =     1    reduce k-point grid by
   SHIFTRED=     F    shift reduced grid of Gamma
   HFKIDENT=     F    idential grid for each k-point
   ODDONLY =     F    use only odd q-grid points
   EVENONLY=     F    use only even q-grid points
   HFALPHA =   -1.0000 decay constant for conv. correction
   MCALPHA =    0.0000 extent of test-charge in conv. correction in multipole expansion
   AEXX    =    0.2500 exact exchange contribution
   HFSCREEN=    0.2000 screening length (either q_TF or 0.3 A-1)
   HFSCREENC=   0.2000 screening length for correlation (either q_TF or 0.3 A-1)
   HFRCUT  =    0.0000 spherical cutoff for potential kernel
   ALDAX   =    0.7500 LDA exchange part
   AGGAX   =    0.7500 GGA exchange part
   ALDAC   =    1.0000 LDA correlation
   AGGAC   =    1.0000 GGA correlation
   ENCUTFOCK=  -1.0 apply spherical cutoff to Coloumb kernel
   NBANDSGWLOW=     1    first orbital included in HF term
   NBLOCK_FOCK=    64    blocking factor in FOCK_ACC

 Linear response parameters
   LEPSILON=     F    determine dielectric tensor
   LRPA    =     F    only Hartree local field effects (RPA)
   LNABLA  =     F    use nabla operator in PAW spheres
   LVEL    =     F    velocity operator in full k-point grid
   CSHIFT  =0.1000    complex shift for real part using Kramers Kronig
   OMEGAMAX=  -1.0    maximum frequency
   DEG_THRESHOLD= 0.2000000E-02 threshold for treating states as degnerate
   RTIME   =   -0.100 relaxation time in fs
  (WPLASMAI=    0.000 imaginary part of plasma frequency in eV, 0.658/RTIME)
   DFIELD  = 0.0000000 0.0000000 0.0000000 field for delta impulse in time
 
  Optional k-point grid parameters
   LKPOINTS_OPT  =     F    use optional k-point grid
   KPOINTS_OPT_MODE=     1    mode for optional k-point grid
 
 Orbital magnetization related:
   ORBITALMAG=     F  switch on orbital magnetization
   LCHIMAG   =     F  perturbation theory with respect to B field
   DQ        =  0.001000  dq finite difference perturbation B field
   LLRAUG    =     F  two centre corrections for induced B field
   LBONE     =     F  B-component reconstruction in AE one-centre
   LVGVCALC  =     T  calculate vGv susceptibility
   LVGVAPPL  =     F  apply vGv susceptibility instead of pGv for G=0

 Random number generation:
   RANDOM_GENERATOR = DEFAULT
   PCG_SEED         = not used
 Solvation model:
   LSOL    =     T         switch on solvation model
   EB_K    = 35.688000     relative permittivity of the bulk solvent
   SIGMA_K =  0.600000     width of the dielectric cavity
   NC_K    =  0.002500     cutoff charge density
   TAU     =  0.000000     cavity surface tension
   LAMBDA_D_K    =  3.040000     Debye length in Angstroms
   LRHOB     =     F     write boundcharge  density
   LRHOION     =     F     write ioniccharge density



--------------------------------------------------------------------------------------------------------


 Static calculation
 charge density and potential will be updated during run
 spin polarized calculation
 Conjugate gradient for all bands (Kresse, et al. variant)
 perform Loewdin sub-space diagonalisation
    ordering is kept fixed
    before iterative eigenvector-optimisation
 modified Broyden-mixing scheme, WC =      100.0
 initial mixing is a Kerker type mixing with AMIX =  0.4000 and BMIX =      1.0000
 Hartree-type preconditioning will be used
 using additional bands           18
 real space projection scheme for non local part
 use partial core corrections
 no Harris-corrections to forces 
 use gradient corrections 
 use of overlap-Matrix (Vanderbilt PP)
 Gauss-broadening in eV      SIGMA  =   0.05


--------------------------------------------------------------------------------------------------------


  energy-cutoff  :      500.00
  volume of cell :    64000.00
      direct lattice vectors                 reciprocal lattice vectors
    40.000000000  0.000000000  0.000000000     0.025000000  0.000000000  0.000000000
     0.000000000 40.000000000  0.000000000     0.000000000  0.025000000  0.000000000
     0.000000000  0.000000000 40.000000000     0.000000000  0.000000000  0.025000000

  length of vectors
    40.000000000 40.000000000 40.000000000     0.025000000  0.025000000  0.025000000


 
 old parameters found on file WAVECAR:
  energy-cutoff  :      500.00
  volume of cell :    64000.00
      direct lattice vectors                 reciprocal lattice vectors
    40.000000000  0.000000000  0.000000000     0.025000000  0.000000000  0.000000000
     0.000000000 40.000000000  0.000000000     0.000000000  0.025000000  0.000000000
     0.000000000  0.000000000 40.000000000     0.000000000  0.000000000  0.025000000

  length of vectors

 
 k-points in units of 2pi/SCALE and weight: K-Point Grid                            
   0.00000000  0.00000000  0.00000000       1.000
 
 k-points in reciprocal lattice and weights: K-Point Grid                            
   0.00000000  0.00000000  0.00000000       1.000
 
 position of ions in fractional coordinates (direct lattice) 
   0.55163181  0.50142785  0.49778267
   0.53664924  0.53320202  0.49918722
   0.50205423  0.53626109  0.50104723
   0.48164783  0.50766783  0.50194363
   0.49642705  0.47588841  0.50098556
   0.53122423  0.47298746  0.49876566
   0.42625511  0.48469937  0.50351070
   0.44787713  0.51338488  0.50362933
   0.59556824  0.49577872  0.49555796
   0.54235736  0.44810300  0.49766620
   0.48133200  0.45326398  0.50170141
   0.40075032  0.49458720  0.50433903
   0.42968009  0.46985604  0.48058244
   0.43071161  0.46882444  0.52556458
   0.49038456  0.56090761  0.50191258
   0.55204451  0.55569719  0.49876718
   0.60340269  0.52746391  0.48705462
 
 position of ions in cartesian coordinates  (Angst):
  22.06527223 20.05711380 19.91130669
  21.46596978 21.32808076 19.96748887
  20.08216909 21.45044368 20.04188910
  19.26591316 20.30671316 20.07774513
  19.85708189 19.03553644 20.03942249
  21.24896908 18.91949823 19.95062633
  17.05020457 19.38797473 20.14042816
  17.91508512 20.53539513 20.14517309
  23.82272950 19.83114866 19.82231833
  21.69429452 17.92412020 19.90664794
  19.25327987 18.13055918 20.06805631
  16.03001282 19.78348816 20.17356140
  17.18720345 18.79424155 19.22329754
  17.22846458 18.75297750 21.02258336
  19.61538252 22.43630456 20.07650311
  22.08178030 22.22788773 19.95068738
  24.13610751 21.09855652 19.48218477
 


--------------------------------------------------------------------------------------------------------


 k-point   1 :   0.0000 0.0000 0.0000  plane waves: 1624525

 maximum and minimum number of plane-waves per node :     54169    54136

 maximum number of plane-waves:   1624525
 maximum index in each direction: 
   IXMAX=   72   IYMAX=   72   IZMAX=   72
   IXMIN=  -72   IYMIN=  -72   IZMIN=  -72


 real space projection operators:
  total allocation   :       1955.84 KBytes
  max/ min on nodes  :         83.48         40.75


 parallel 3D FFT for wavefunctions:
    minimum data exchange during FFTs selected (reduces bandwidth)
 parallel 3D FFT for charge:
    minimum data exchange during FFTs selected (reduces bandwidth)


 FFT grid for exact exchange (Hartree Fock) 
  NGX =224; NGY =224; NGZ =224

 
 Radii for the augmentation spheres in the non-local exchange
 for species   1 augmentation radius   0.874 (default was   0.699)
       energy cutoff for augmentation   2000.0
 for species   2 augmentation radius   0.902 (default was   0.722)
       energy cutoff for augmentation   2000.0
 for species   3 augmentation radius   1.212 (default was   0.970)
       energy cutoff for augmentation   2000.0
 for species   4 augmentation radius   0.650 (default was   0.520)
       energy cutoff for augmentation   2000.0

 real space projection operators:
  total allocation   :        484.31 KBytes
  max/ min on nodes  :         21.94          7.52

 Maximum index for augmentation-charges in exchange           76
  SETUP_FOCK is finished

 total amount of memory used by VASP MPI-rank0   535560. kBytes
=======================================================================

   base      :      30000. kBytes
   nonlr-proj:       1329. kBytes
   fftplans  :     129164. kBytes
   grid      :     302241. kBytes
   one-center:          6. kBytes
   HF        :          4. kBytes
   wavefun   :      72816. kBytes
 
     INWAV:  cpu time     12.4068: real time     12.4073
 Broyden mixing: mesh for mixing (old mesh)
   NGX =145   NGY =145   NGZ =145
  (NGX  =588   NGY  =588   NGZ  =588)
  gives a total of ****** points

 initial charge density was supplied:
 charge density of overlapping atoms calculated
 number of electron      48.0000000 magnetization      17.0000000
 charge density for first step will be calculated from the start-wavefunctions


--------------------------------------------------------------------------------------------------------


 Maximum index for non-local projection operator          224
 Maximum index for augmentation-charges          332 (set IRDMAX)


--------------------------------------------------------------------------------------------------------


 initial charge from wavefunction
 First call to EWALD:  gamma=   0.044
 Maximum number of real-space cells 3x 3x 3
 Maximum number of reciprocal cells 3x 3x 3

    FEWALD:  cpu time      0.0039: real time      0.0039


--------------------------------------- Ionic step        1  -------------------------------------------




--------------------------------------- Iteration      1(   1)  ---------------------------------------


    POTLOK:  cpu time    552.7609: real time    552.7881
    SETDIJ:  cpu time      0.1560: real time      0.1560
    TRIAL :  cpu time    139.9104: real time    139.9071
    CORREC:  cpu time      0.1132: real time      0.1132
    CHARGE:  cpu time      3.8539: real time      3.8538
    --------------------------------------------
      LOOP:  cpu time    696.8446: real time    696.8687

 eigenvalue-minimisations  :     0
 total energy-change (2. order) :-0.1199067E+03  (-0.1173528E+00)
 number of electron      48.0000000 magnetization      -0.0000000
 augmentation part        0.6500543 magnetization       0.0000002

 Free energy of the ion-electron system (eV)
  ---------------------------------------------------
  alpha Z        PSCENC =         0.15867211
  Ewald energy   TEWEN  =      4650.24902290
  -Hartree energ DENC   =     -6149.58455746
  -exchange      EXHF   =       108.16711632
  -V(xc)+E(xc)   XCENC  =       121.77717052
  PAW double counting   =      4290.50639885    -4292.70345006
  entropy T*S    EENTRO =        -0.00000000
  eigenvalues    EBANDS =      -669.35538158
  atomic energy  EATOM  =      1818.32478562
  ---------------------------------------------------
  free energy    TOTEN  =      -119.90667371 eV

  energy without entropy =     -119.90667371  energy(sigma->0) =     -119.90667371
  exchange ACFDT corr.  =         0.00000000  see jH, gK, PRB 81, 115126


--------------------------------------------------------------------------------------------------------




--------------------------------------- Iteration      1(   2)  ---------------------------------------


    POTLOK:  cpu time    496.0707: real time    496.0779
    SETDIJ:  cpu time      0.1865: real time      0.1865
    TRIAL :  cpu time    146.3509: real time    146.3478
    CORREC:  cpu time      0.0053: real time      0.0053
    CHARGE:  cpu time      4.6395: real time      4.6393
    --------------------------------------------
      LOOP:  cpu time    647.3111: real time    647.3212

 eigenvalue-minimisations  :     0
 total energy-change (2. order) :-0.8667179E-01  (-0.6018073E-01)
 number of electron      48.0000000 magnetization       0.0000000
 augmentation part        0.6468987 magnetization       0.0000002

 Free energy of the ion-electron system (eV)
  ---------------------------------------------------
  alpha Z        PSCENC =         0.15867211
  Ewald energy   TEWEN  =      4650.24902290
  -Hartree energ DENC   =     -6150.48678475
  -exchange      EXHF   =       108.26887682
  -V(xc)+E(xc)   XCENC  =       121.80289207
  PAW double counting   =      4416.69321645    -4418.84061068
  entropy T*S    EENTRO =        -0.00000000
  eigenvalues    EBANDS =      -669.23606363
  atomic energy  EATOM  =      1818.32478562
  ---------------------------------------------------
  free energy    TOTEN  =      -119.99334549 eV

  energy without entropy =     -119.99334549  energy(sigma->0) =     -119.99334549
  exchange ACFDT corr.  =        -0.00000000  see jH, gK, PRB 81, 115126


--------------------------------------------------------------------------------------------------------




--------------------------------------- Iteration      1(   3)  ---------------------------------------


    POTLOK:  cpu time    488.8503: real time    488.8513
    SETDIJ:  cpu time      0.0712: real time      0.0712
    TRIAL :  cpu time    146.0811: real time    146.0839
    CORREC:  cpu time      0.0034: real time      0.0034
    CHARGE:  cpu time      3.2647: real time      3.2647
    --------------------------------------------
      LOOP:  cpu time    638.2786: real time    638.2877

 eigenvalue-minimisations  :     0
 total energy-change (2. order) :-0.4047586E-01  (-0.1820294E-01)
 number of electron      48.0000000 magnetization       0.0000000
 augmentation part        0.6439701 magnetization       0.0000000

 Free energy of the ion-electron system (eV)
  ---------------------------------------------------
  alpha Z        PSCENC =         0.15867211
  Ewald energy   TEWEN  =      4650.24902290
  -Hartree energ DENC   =     -6150.29478404
  -exchange      EXHF   =       108.31810876
  -V(xc)+E(xc)   XCENC  =       121.78674705
  PAW double counting   =      4541.69545515    -4543.79622306
  entropy T*S    EENTRO =        -0.00000000
  eigenvalues    EBANDS =      -669.88460597
  atomic energy  EATOM  =      1818.32478562
  ---------------------------------------------------
  free energy    TOTEN  =      -120.03382135 eV

  energy without entropy =     -120.03382135  energy(sigma->0) =     -120.03382135
  exchange ACFDT corr.  =        -0.00000000  see jH, gK, PRB 81, 115126


--------------------------------------------------------------------------------------------------------




--------------------------------------- Iteration      1(   4)  ---------------------------------------


    POTLOK:  cpu time    459.1691: real time    459.1708
    SETDIJ:  cpu time      0.0710: real time      0.0710
    TRIAL :  cpu time    150.0458: real time    150.0470
    CORREC:  cpu time      0.0015: real time      0.0015
    CHARGE:  cpu time      2.6889: real time      2.6889
    --------------------------------------------
      LOOP:  cpu time    611.9994: real time    612.0085

 eigenvalue-minimisations  :     0
 total energy-change (2. order) :-0.1155884E-01  (-0.5171201E-02)
 number of electron      48.0000000 magnetization       0.0000000
 augmentation part        0.6429064 magnetization      -0.0000000

 Free energy of the ion-electron system (eV)
  ---------------------------------------------------
  alpha Z        PSCENC =         0.15867211
  Ewald energy   TEWEN  =      4650.24902290
  -Hartree energ DENC   =     -6150.42048743
  -exchange      EXHF   =       108.35396366
  -V(xc)+E(xc)   XCENC  =       121.78297911
  PAW double counting   =      4620.39739999    -4622.46795752
  entropy T*S    EENTRO =        -0.00000000
  eigenvalues    EBANDS =      -669.92374575
  atomic energy  EATOM  =      1818.32478562
  ---------------------------------------------------
  free energy    TOTEN  =      -120.04538020 eV

  energy without entropy =     -120.04538020  energy(sigma->0) =     -120.04538020
  exchange ACFDT corr.  =         0.00000000  see jH, gK, PRB 81, 115126


--------------------------------------------------------------------------------------------------------




--------------------------------------- Iteration      1(   5)  ---------------------------------------


    POTLOK:  cpu time    466.5270: real time    466.5286
    SETDIJ:  cpu time      0.0684: real time      0.0684
    TRIAL :  cpu time    149.5831: real time    149.5797
    CORREC:  cpu time      0.0300: real time      0.0300
    CHARGE:  cpu time      3.2572: real time      3.2571
    --------------------------------------------
      LOOP:  cpu time    619.4805: real time    619.4841

 eigenvalue-minimisations  :     0
 total energy-change (2. order) :-0.3249395E-02  (-0.1859766E-02)
 number of electron      48.0000000 magnetization       0.0000000
 augmentation part        0.6429165 magnetization      -0.0000001

 Free energy of the ion-electron system (eV)
  ---------------------------------------------------
  alpha Z        PSCENC =         0.15867211
  Ewald energy   TEWEN  =      4650.24902290
  -Hartree energ DENC   =     -6150.88454748
  -exchange      EXHF   =       108.38734680
  -V(xc)+E(xc)   XCENC  =       121.79646199
  PAW double counting   =      4656.89902772    -4658.95704467
  entropy T*S    EENTRO =        -0.00000000
  eigenvalues    EBANDS =      -669.50313143
  atomic energy  EATOM  =      1818.32478562
  ---------------------------------------------------
  free energy    TOTEN  =      -120.04862960 eV

  energy without entropy =     -120.04862960  energy(sigma->0) =     -120.04862960
  exchange ACFDT corr.  =        -0.00000000  see jH, gK, PRB 81, 115126


--------------------------------------------------------------------------------------------------------




--------------------------------------- Iteration      1(   6)  ---------------------------------------


    POTLOK:  cpu time    440.8576: real time    440.8587
    SETDIJ:  cpu time      0.1462: real time      0.1462
    TRIAL :  cpu time    149.8355: real time    149.8323
    CORREC:  cpu time      0.1529: real time      0.1529
    CHARGE:  cpu time      2.6828: real time      2.6827
    --------------------------------------------
      LOOP:  cpu time    593.6987: real time    593.7047

 eigenvalue-minimisations  :     0
 total energy-change (2. order) :-0.1244688E-02  (-0.9034718E-03)
 number of electron      48.0000000 magnetization       0.0000000
 augmentation part        0.6431033 magnetization      -0.0000001

 Free energy of the ion-electron system (eV)
  ---------------------------------------------------
  alpha Z        PSCENC =         0.15867211
  Ewald energy   TEWEN  =      4650.24902290
  -Hartree energ DENC   =     -6151.11504917
  -exchange      EXHF   =       108.40515752
  -V(xc)+E(xc)   XCENC  =       121.80658969
  PAW double counting   =      4667.96830047    -4670.02459305
  entropy T*S    EENTRO =        -0.00000000
  eigenvalues    EBANDS =      -669.26232727
  atomic energy  EATOM  =      1818.32478562
  ---------------------------------------------------
  free energy    TOTEN  =      -120.04987428 eV

  energy without entropy =     -120.04987428  energy(sigma->0) =     -120.04987428
  exchange ACFDT corr.  =        -0.00000000  see jH, gK, PRB 81, 115126


--------------------------------------------------------------------------------------------------------




--------------------------------------- Iteration      1(   7)  ---------------------------------------


    POTLOK:  cpu time    446.3686: real time    446.3637
    SETDIJ:  cpu time      0.0678: real time      0.0678
    TRIAL :  cpu time    150.0033: real time    150.0002
    CORREC:  cpu time      0.1696: real time      0.1696
    CHARGE:  cpu time      2.6921: real time      2.6921
    --------------------------------------------
      LOOP:  cpu time    599.3128: real time    599.3107

 eigenvalue-minimisations  :     0
 total energy-change (2. order) :-0.6662355E-03  (-0.4912756E-03)
 number of electron      48.0000000 magnetization       0.0000000
 augmentation part        0.6432791 magnetization      -0.0000001

 Free energy of the ion-electron system (eV)
  ---------------------------------------------------
  alpha Z        PSCENC =         0.15867211
  Ewald energy   TEWEN  =      4650.24902290
  -Hartree energ DENC   =     -6151.09152824
  -exchange      EXHF   =       108.40928892
  -V(xc)+E(xc)   XCENC  =       121.80910505
  PAW double counting   =      4667.05202358    -4669.11028524
  entropy T*S    EENTRO =        -0.00000000
  eigenvalues    EBANDS =      -669.26351705
  atomic energy  EATOM  =      1818.32478562
  ---------------------------------------------------
  free energy    TOTEN  =      -120.05054052 eV

  energy without entropy =     -120.05054052  energy(sigma->0) =     -120.05054052
  exchange ACFDT corr.  =        -0.00000000  see jH, gK, PRB 81, 115126


--------------------------------------------------------------------------------------------------------




--------------------------------------- Iteration      1(   8)  ---------------------------------------


    POTLOK:  cpu time    436.5785: real time    436.5721
    SETDIJ:  cpu time      0.0682: real time      0.0682
    TRIAL :  cpu time    149.1900: real time    149.1869
    CORREC:  cpu time      0.0935: real time      0.0935
    CHARGE:  cpu time      3.0952: real time      3.0952
    --------------------------------------------
      LOOP:  cpu time    589.0446: real time    589.0412

 eigenvalue-minimisations  :     0
 total energy-change (2. order) :-0.3739879E-03  (-0.2461908E-03)
 number of electron      48.0000000 magnetization       0.0000000
 augmentation part        0.6434568 magnetization      -0.0000001

 Free energy of the ion-electron system (eV)
  ---------------------------------------------------
  alpha Z        PSCENC =         0.15867211
  Ewald energy   TEWEN  =      4650.24902290
  -Hartree energ DENC   =     -6151.02789466
  -exchange      EXHF   =       108.40868074
  -V(xc)+E(xc)   XCENC  =       121.80907230
  PAW double counting   =      4662.04628537    -4664.10682190
  entropy T*S    EENTRO =        -0.00000000
  eigenvalues    EBANDS =      -669.31471768
  atomic energy  EATOM  =      1818.32478562
  ---------------------------------------------------
  free energy    TOTEN  =      -120.05091451 eV

  energy without entropy =     -120.05091451  energy(sigma->0) =     -120.05091451
  exchange ACFDT corr.  =        -0.00000000  see jH, gK, PRB 81, 115126


--------------------------------------------------------------------------------------------------------




--------------------------------------- Iteration      1(   9)  ---------------------------------------


    POTLOK:  cpu time    413.6917: real time    413.6845
    SETDIJ:  cpu time      0.0694: real time      0.0695
    TRIAL :  cpu time    150.4627: real time    150.4591
    CORREC:  cpu time      0.0102: real time      0.0102
    CHARGE:  cpu time      2.7284: real time      2.7284
    --------------------------------------------
      LOOP:  cpu time    566.9739: real time    566.9686

 eigenvalue-minimisations  :     0
 total energy-change (2. order) :-0.1910830E-03  (-0.1182503E-03)
 number of electron      48.0000000 magnetization       0.0000000
 augmentation part        0.6436089 magnetization      -0.0000001

 Free energy of the ion-electron system (eV)
  ---------------------------------------------------
  alpha Z        PSCENC =         0.15867211
  Ewald energy   TEWEN  =      4650.24902290
  -Hartree energ DENC   =     -6151.00874881
  -exchange      EXHF   =       108.40793839
  -V(xc)+E(xc)   XCENC  =       121.80923804
  PAW double counting   =      4656.95228962    -4659.01466974
  entropy T*S    EENTRO =        -0.00000000
  eigenvalues    EBANDS =      -669.33161969
  atomic energy  EATOM  =      1818.32478562
  ---------------------------------------------------
  free energy    TOTEN  =      -120.05110559 eV

  energy without entropy =     -120.05110559  energy(sigma->0) =     -120.05110559
  exchange ACFDT corr.  =        -0.00000000  see jH, gK, PRB 81, 115126


--------------------------------------------------------------------------------------------------------




--------------------------------------- Iteration      1(  10)  ---------------------------------------


    POTLOK:  cpu time    385.8051: real time    385.8018
    SETDIJ:  cpu time      0.1473: real time      0.1473
    TRIAL :  cpu time    149.3387: real time    149.3350
    CORREC:  cpu time      0.1835: real time      0.1834
    CHARGE:  cpu time      3.2639: real time      3.2638
    --------------------------------------------
      LOOP:  cpu time    538.7451: real time    538.7457

 eigenvalue-minimisations  :     0
 total energy-change (2. order) :-0.9449940E-04  (-0.6070332E-04)
 number of electron      48.0000000 magnetization       0.0000000
 augmentation part        0.6437129 magnetization      -0.0000001

 Free energy of the ion-electron system (eV)
  ---------------------------------------------------
  alpha Z        PSCENC =         0.15867211
  Ewald energy   TEWEN  =      4650.24902290
  -Hartree energ DENC   =     -6151.00940040
  -exchange      EXHF   =       108.40755042
  -V(xc)+E(xc)   XCENC  =       121.80949645
  PAW double counting   =      4653.23802738    -4655.30166551
  entropy T*S    EENTRO =        -0.00000000
  eigenvalues    EBANDS =      -669.33099918
  atomic energy  EATOM  =      1818.32478562
  ---------------------------------------------------
  free energy    TOTEN  =      -120.05120009 eV

  energy without entropy =     -120.05120009  energy(sigma->0) =     -120.05120009
  exchange ACFDT corr.  =        -0.00000000  see jH, gK, PRB 81, 115126


--------------------------------------------------------------------------------------------------------




--------------------------------------- Iteration      1(  11)  ---------------------------------------


    POTLOK:  cpu time    381.4543: real time    381.4498
    SETDIJ:  cpu time      0.0678: real time      0.0678
    TRIAL :  cpu time    149.5655: real time    149.5632
    CORREC:  cpu time      0.0613: real time      0.0613
    CHARGE:  cpu time      3.4309: real time      3.4308
    --------------------------------------------
      LOOP:  cpu time    534.5926: real time    534.5925

 eigenvalue-minimisations  :     0
 total energy-change (2. order) :-0.5002585E-04  (-0.3358432E-04)
 number of electron      48.0000000 magnetization       0.0000000
 augmentation part        0.6437772 magnetization      -0.0000001

 Free energy of the ion-electron system (eV)
  ---------------------------------------------------
  alpha Z        PSCENC =         0.15867211
  Ewald energy   TEWEN  =      4650.24902290
  -Hartree energ DENC   =     -6151.00409521
  -exchange      EXHF   =       108.40722291
  -V(xc)+E(xc)   XCENC  =       121.80947340
  PAW double counting   =      4651.05707226    -4653.12149592
  entropy T*S    EENTRO =        -0.00000000
  eigenvalues    EBANDS =      -669.33460644
  atomic energy  EATOM  =      1818.32478562
  ---------------------------------------------------
  free energy    TOTEN  =      -120.05125011 eV

  energy without entropy =     -120.05125011  energy(sigma->0) =     -120.05125011
  exchange ACFDT corr.  =        -0.00000000  see jH, gK, PRB 81, 115126


--------------------------------------------------------------------------------------------------------




--------------------------------------- Iteration      1(  12)  ---------------------------------------


    POTLOK:  cpu time    370.7639: real time    370.7543
    SETDIJ:  cpu time      0.0708: real time      0.0708
    TRIAL :  cpu time    150.5477: real time    150.5440
    CORREC:  cpu time      0.1054: real time      0.1054
    CHARGE:  cpu time      2.5253: real time      2.5252
    --------------------------------------------
      LOOP:  cpu time    524.0267: real time    524.0192

 eigenvalue-minimisations  :     0
 total energy-change (2. order) :-0.2847251E-04  (-0.1969944E-04)
 number of electron      48.0000000 magnetization       0.0000000
 augmentation part        0.6438188 magnetization      -0.0000001

 Free energy of the ion-electron system (eV)
  ---------------------------------------------------
  alpha Z        PSCENC =         0.15867211
  Ewald energy   TEWEN  =      4650.24902290
  -Hartree energ DENC   =     -6150.99631183
  -exchange      EXHF   =       108.40708299
  -V(xc)+E(xc)   XCENC  =       121.80937156
  PAW double counting   =      4650.10097374    -4652.16586436
  entropy T*S    EENTRO =        -0.00000000
  eigenvalues    EBANDS =      -669.34016022
  atomic energy  EATOM  =      1818.32478562
  ---------------------------------------------------
  free energy    TOTEN  =      -120.05127859 eV

  energy without entropy =     -120.05127859  energy(sigma->0) =     -120.05127859
  exchange ACFDT corr.  =        -0.00000000  see jH, gK, PRB 81, 115126


--------------------------------------------------------------------------------------------------------




--------------------------------------- Iteration      1(  13)  ---------------------------------------


    POTLOK:  cpu time    375.0004: real time    374.9932
    SETDIJ:  cpu time      0.0677: real time      0.0677
    TRIAL :  cpu time    151.4621: real time    151.4585
    CORREC:  cpu time      0.0101: real time      0.0101
    CHARGE:  cpu time      2.5036: real time      2.5035
    --------------------------------------------
      LOOP:  cpu time    529.0535: real time    529.0485

 eigenvalue-minimisations  :     0
 total energy-change (2. order) :-0.1718641E-04  (-0.1215981E-04)
 number of electron      48.0000000 magnetization       0.0000000
 augmentation part        0.6438479 magnetization      -0.0000001

 Free energy of the ion-electron system (eV)
  ---------------------------------------------------
  alpha Z        PSCENC =         0.15867211
  Ewald energy   TEWEN  =      4650.24902290
  -Hartree energ DENC   =     -6150.99465870
  -exchange      EXHF   =       108.40725067
  -V(xc)+E(xc)   XCENC  =       121.80943086
  PAW double counting   =      4649.84893196    -4651.91407838
  entropy T*S    EENTRO =        -0.00000000
  eigenvalues    EBANDS =      -669.34078089
  atomic energy  EATOM  =      1818.32478562
  ---------------------------------------------------
  free energy    TOTEN  =      -120.05129577 eV

  energy without entropy =     -120.05129577  energy(sigma->0) =     -120.05129577
  exchange ACFDT corr.  =        -0.00000000  see jH, gK, PRB 81, 115126


--------------------------------------------------------------------------------------------------------




--------------------------------------- Iteration      1(  14)  ---------------------------------------


    POTLOK:  cpu time    354.2737: real time    354.2646
    SETDIJ:  cpu time      0.1442: real time      0.1441
    TRIAL :  cpu time    149.9418: real time    149.9429
    CORREC:  cpu time      0.0134: real time      0.0134
    CHARGE:  cpu time      3.8576: real time      3.8576
    --------------------------------------------
      LOOP:  cpu time    508.2408: real time    508.2387

 eigenvalue-minimisations  :     0
 total energy-change (2. order) :-0.1089940E-04  (-0.7985598E-05)
 number of electron      48.0000000 magnetization       0.0000000
 augmentation part        0.6438691 magnetization      -0.0000001

 Free energy of the ion-electron system (eV)
  ---------------------------------------------------
  alpha Z        PSCENC =         0.15867211
  Ewald energy   TEWEN  =      4650.24902290
  -Hartree energ DENC   =     -6150.99670132
  -exchange      EXHF   =       108.40753418
  -V(xc)+E(xc)   XCENC  =       121.80956638
  PAW double counting   =      4649.89155939    -4651.95685208
  entropy T*S    EENTRO =        -0.00000000
  eigenvalues    EBANDS =      -669.33860708
  atomic energy  EATOM  =      1818.32478562
  ---------------------------------------------------
  free energy    TOTEN  =      -120.05130667 eV

  energy without entropy =     -120.05130667  energy(sigma->0) =     -120.05130667
  exchange ACFDT corr.  =        -0.00000000  see jH, gK, PRB 81, 115126


--------------------------------------------------------------------------------------------------------




--------------------------------------- Iteration      1(  15)  ---------------------------------------


    POTLOK:  cpu time    352.0555: real time    352.0585
    SETDIJ:  cpu time      0.0722: real time      0.0722
    TRIAL :  cpu time    151.9433: real time    151.9458
    CORREC:  cpu time      0.0131: real time      0.0131
    CHARGE:  cpu time      2.3206: real time      2.3206
    --------------------------------------------
      LOOP:  cpu time    506.4120: real time    506.4227

 eigenvalue-minimisations  :     0
 total energy-change (2. order) :-0.7301870E-05  (-0.5620777E-05)
 number of electron      48.0000000 magnetization       0.0000000
 augmentation part        0.6438841 magnetization      -0.0000001

 Free energy of the ion-electron system (eV)
  ---------------------------------------------------
  alpha Z        PSCENC =         0.15867211
  Ewald energy   TEWEN  =      4650.24902290
  -Hartree energ DENC   =     -6150.99828761
  -exchange      EXHF   =       108.40776030
  -V(xc)+E(xc)   XCENC  =       121.80966308
  PAW double counting   =      4650.01103211    -4652.07641766
  entropy T*S    EENTRO =        -0.00000000
  eigenvalues    EBANDS =      -669.33703368
  atomic energy  EATOM  =      1818.32478562
  ---------------------------------------------------
  free energy    TOTEN  =      -120.05131397 eV

  energy without entropy =     -120.05131397  energy(sigma->0) =     -120.05131397
  exchange ACFDT corr.  =        -0.00000000  see jH, gK, PRB 81, 115126


--------------------------------------------------------------------------------------------------------


  average scaling for gradient   1.5674


 average (electrostatic) potential at core
  the test charge radii are     0.6991  0.7215  0.9698  0.5201
  (the norm of the test charge is              1.0000)
       1 -55.8200       2 -55.1982       3 -55.0588       4 -56.5399       5 -55.0890
       6 -55.1844       7 -55.8454       8 -75.0757       9 -92.7333      10 -38.0220
      11 -38.0986      12 -37.8508      13 -37.7843      14 -37.7760      15 -38.0044
      16 -38.0409      17 -39.0451
 
 
 
 E-fermi :  -5.3584     XC(G=0):  -0.0253     alpha+bet : -0.0188

 Fermi energy:        -5.3584042630

 spin component 1

 k-point     1 :       0.0000    0.0000    0.0000
  band No.  band energies     occupation 
      1     -29.4163      1.00000
      2     -23.8664      1.00000
      3     -21.6958      1.00000
      4     -20.8144      1.00000
      5     -19.8691      1.00000
      6     -18.5921      1.00000
      7     -16.9211      1.00000
      8     -16.0365      1.00000
      9     -14.5589      1.00000
     10     -13.4546      1.00000
     11     -12.7911      1.00000
     12     -12.6736      1.00000
     13     -12.1610      1.00000
     14     -11.5922      1.00000
     15     -11.3692      1.00000
     16     -10.7220      1.00000
     17     -10.5125      1.00000
     18      -9.8346      1.00000
     19      -9.3814      1.00000
     20      -9.1483      1.00000
     21      -8.9640      1.00000
     22      -7.5205      1.00000
     23      -7.1502      1.00000
     24      -5.6229      1.00000
     25      -0.9480      0.00000
     26      -0.5796      0.00000
     27      -0.3842      0.00000
     28       0.0018      0.00000
     29      -0.0975      0.00000
     30       0.0541      0.00000
     31       0.0303      0.00000
     32       0.0890      0.00000
     33       0.1013      0.00000
     34       0.0986      0.00000
     35       0.1139      0.00000
     36       0.1266      0.00000
     37       0.1402      0.00000
     38       0.1651      0.00000
     39       0.2053      0.00000
     40       0.1916      0.00000
     41       0.1897      0.00000
     42       0.1916      0.00000
 Fermi energy:        -5.3584042630

 spin component 2

 k-point     1 :       0.0000    0.0000    0.0000
  band No.  band energies     occupation 
      1     -29.4163      1.00000
      2     -23.8664      1.00000
      3     -21.6958      1.00000
      4     -20.8144      1.00000
      5     -19.8691      1.00000
      6     -18.5921      1.00000
      7     -16.9211      1.00000
      8     -16.0365      1.00000
      9     -14.5589      1.00000
     10     -13.4546      1.00000
     11     -12.7911      1.00000
     12     -12.6736      1.00000
     13     -12.1610      1.00000
     14     -11.5922      1.00000
     15     -11.3692      1.00000
     16     -10.7220      1.00000
     17     -10.5125      1.00000
     18      -9.8346      1.00000
     19      -9.3814      1.00000
     20      -9.1483      1.00000
     21      -8.9640      1.00000
     22      -7.5205      1.00000
     23      -7.1502      1.00000
     24      -5.6229      1.00000
     25      -0.9480      0.00000
     26      -0.5796      0.00000
     27      -0.3842      0.00000
     28       0.0018      0.00000
     29      -0.0975      0.00000
     30       0.0541      0.00000
     31       0.0303      0.00000
     32       0.0890      0.00000
     33       0.1013      0.00000
     34       0.0986      0.00000
     35       0.1139      0.00000
     36       0.1266      0.00000
     37       0.1401      0.00000
     38       0.1651      0.00000
     39       0.2054      0.00000
     40       0.1912      0.00000
     41       0.1897      0.00000
     42       0.1926      0.00000


--------------------------------------------------------------------------------------------------------


 soft charge-density along one line, spin component           1
         0         1         2         3         4         5         6         7         8         9
 total charge-density along one line
 
 soft charge-density along one line, spin component           2
         0         1         2         3         4         5         6         7         8         9
 total charge-density along one line
 
 pseudopotential strength for first ion, spin component:           1
 10.030  13.338  -0.001  -0.000   0.004   0.002   0.000  -0.012
 13.338  17.736  -0.001  -0.000   0.005   0.002   0.000  -0.015
 -0.001  -0.001  -4.247  -0.000   0.001   8.284   0.000  -0.002
 -0.000  -0.000  -0.000  -4.245   0.000   0.000   8.283  -0.001
  0.004   0.005   0.001   0.000  -4.255  -0.002  -0.001   8.298
  0.002   0.002   8.284   0.000  -0.002 -18.274  -0.000   0.005
  0.000   0.000   0.000   8.283  -0.001  -0.000 -18.279   0.001
 -0.012  -0.015  -0.002  -0.001   8.298   0.005   0.001 -18.305
 pseudopotential strength for first ion, spin component:           2
 10.030  13.338  -0.001  -0.000   0.004   0.002   0.000  -0.012
 13.338  17.736  -0.001  -0.000   0.005   0.002   0.000  -0.015
 -0.001  -0.001  -4.247  -0.000   0.001   8.284   0.000  -0.002
 -0.000  -0.000  -0.000  -4.245   0.000   0.000   8.283  -0.001
  0.004   0.005   0.001   0.000  -4.255  -0.002  -0.001   8.298
  0.002   0.002   8.284   0.000  -0.002 -18.274  -0.000   0.005
  0.000   0.000   0.000   8.283  -0.001  -0.000 -18.279   0.001
 -0.012  -0.015  -0.002  -0.001   8.298   0.005   0.001 -18.305
 total augmentation occupancy for first ion, spin component:           1
  8.328  -3.734   0.016   0.034  -0.385   0.001   0.005  -0.054
 -3.734   1.727  -0.004  -0.020   0.185   0.000  -0.003   0.026
  0.016  -0.004   1.879   0.003   0.037   0.177   0.001   0.003
  0.034  -0.020   0.003   1.233  -0.021   0.001   0.077  -0.004
 -0.385   0.185   0.037  -0.021   1.537   0.003  -0.004   0.145
  0.001   0.000   0.177   0.001   0.003   0.018   0.000   0.000
  0.005  -0.003   0.001   0.077  -0.004   0.000   0.005  -0.001
 -0.054   0.026   0.003  -0.004   0.145   0.000  -0.001   0.015
 total augmentation occupancy for first ion, spin component:           2
 -0.000   0.000  -0.000   0.000  -0.000  -0.000   0.000  -0.000
  0.000  -0.000   0.000  -0.000   0.000   0.000  -0.000   0.000
 -0.000   0.000  -0.000  -0.000  -0.000   0.000   0.000   0.000
  0.000  -0.000  -0.000  -0.000  -0.000   0.000   0.000  -0.000
 -0.000   0.000  -0.000  -0.000   0.000   0.000  -0.000  -0.000
 -0.000   0.000   0.000   0.000   0.000   0.000   0.000   0.000
  0.000  -0.000   0.000   0.000  -0.000   0.000   0.000  -0.000
 -0.000   0.000   0.000  -0.000  -0.000   0.000  -0.000  -0.000


------------------------ aborting loop because EDIFF is reached ----------------------------------------


    FORLOC:  cpu time      0.3773: real time      0.3773
    FORHF :  cpu time     87.4465: real time     87.4469
    FORNL :  cpu time      4.5602: real time      4.5601
    STRESS:  cpu time     13.9126: real time     13.9123
    FORCOR:  cpu time     19.2465: real time     19.2460
    OFIELD:  cpu time      0.0198: real time      0.0198
 WARNING: Using user supplied parameters
     VDW_A1 = 0.383
     VDW_A2 = 5.685
     VDW_S8 = 2.31
     because the xc functional is not supported. Required parameters not
     defined in the INCAR file will be replaced with PBE defaults ones.


 ---------------------------------------------------------------------------------------------

         DFTD3 V3.0 Rev 1        
 IVDW         = 12
 DF unknown   
 parameters
 VDW_S6       =    1.0000
 VDW_S8       =    2.3100
 VDW_A1       =    0.3830
 VDW_A2       =    5.6850
 k1-k3        =   16.0000    1.3333   -4.0000
 VDW_RADIUS   =   50.2022 A
 VDW_CNRADIUS =   21.1671 A
 Edisp (eV)   -0.33683

 E6    (eV) :    -0.1682
 E8    (eV) :    -0.1686
 % E8        : 50.06
    FORVDW:  cpu time      0.0087: real time      0.0087

  FORCE on cell =-STRESS in cart. coord.  units (eV):
  Direction    XX          YY          ZZ          XY          YZ          ZX
  --------------------------------------------------------------------------------------
  Alpha Z     0.15867     0.15867     0.15867
  Ewald    3265.02868  1651.35601  -266.13617   159.77705     0.37159  -190.78247
  Hartree  3334.69886  1983.57743   832.72275   104.65337     6.54970  -132.30962
  E(xc)    -135.66589  -136.11204  -137.77357     0.08137    -0.00612    -0.11839
  Local   -7099.74492 -4147.69217 -1170.76692  -255.15412   -10.66148   316.24348
  n-local     9.58931     7.94853     8.48740     0.93631     0.00373     0.08691
  augment   -12.86049   -12.28146   -12.19460    -0.14536    -0.36717    -0.13815
  Kinetic   683.55383   698.96978   787.78132    -9.60990     3.78366     6.69689
  Fock      -48.58390   -48.67630   -45.25127     0.01950     0.06183     0.23801
  vdW        -0.18677    -0.04785    -0.00257    -0.01233     0.00035     0.01038
  -------------------------------------------------------------------------------------
  Total      -4.01262    -2.79941    -2.97495     0.54590    -0.26391    -0.07295
  in kB      -0.10045    -0.07008    -0.07448     0.01367    -0.00661    -0.00183
  external pressure =       -0.08 kB  Pullay stress =        0.00 kB


 VOLUME and BASIS-vectors are now :
 -----------------------------------------------------------------------------
  energy-cutoff  :      500.00
  volume of cell :    64000.00
      direct lattice vectors                 reciprocal lattice vectors
    40.000000000  0.000000000  0.000000000     0.025000000  0.000000000  0.000000000
     0.000000000 40.000000000  0.000000000     0.000000000  0.025000000  0.000000000
     0.000000000  0.000000000 40.000000000     0.000000000  0.000000000  0.025000000

  length of vectors
    40.000000000 40.000000000 40.000000000     0.025000000  0.025000000  0.025000000


 FORCES acting on ions:
    Electron-Ion                     Ewald-Force                    Non-Local-Force
 -----------------------------------------------------------------------------------------------
   -.143E+03 0.102E+02 0.889E+01   0.140E+03 -.990E+01 -.881E+01   0.250E+01 -.487E+00 0.427E-01
   -.105E+03 -.172E+03 0.238E+01   0.104E+03 0.173E+03 -.199E+01   -.560E+00 -.154E+01 -.225E+00
   0.252E+02 -.201E+03 -.371E+01   -.257E+02 0.202E+03 0.377E+01   0.303E+00 -.179E+01 0.683E-02
   0.132E+02 -.164E+02 -.329E+01   -.657E+01 0.161E+02 0.297E+01   -.608E+01 0.864E+00 0.318E+00
   0.406E+02 0.179E+03 -.388E+01   -.403E+02 -.180E+03 0.394E+01   0.363E+00 0.186E+01 -.579E-01
   -.781E+02 0.183E+03 0.552E+01   0.785E+02 -.184E+03 -.583E+01   -.238E+00 0.153E+01 0.276E+00
   0.198E+03 0.118E+03 -.432E+01   -.202E+03 -.122E+03 0.432E+01   0.438E+01 0.536E+01 0.215E-01
   0.236E+03 -.184E+03 -.184E+02   -.255E+03 0.225E+03 0.207E+02   0.176E+02 -.347E+02 -.189E+01
   -.276E+03 0.685E+02 0.472E+01   0.281E+03 -.747E+02 -.359E+01   -.430E+01 0.480E+01 -.761E+00
   -.328E+02 0.823E+02 0.314E+01   0.351E+02 -.871E+02 -.339E+01   -.229E+01 0.520E+01 0.233E+00
   0.307E+02 0.823E+02 -.178E+01   -.336E+02 -.867E+02 0.192E+01   0.312E+01 0.479E+01 -.149E+00
   0.859E+02 -.109E+02 -.258E+01   -.909E+02 0.132E+02 0.275E+01   0.533E+01 -.200E+01 -.171E+00
   0.275E+02 0.510E+02 0.584E+02   -.268E+02 -.537E+02 -.629E+02   -.613E+00 0.301E+01 0.461E+01
   0.242E+02 0.534E+02 -.581E+02   -.233E+02 -.562E+02 0.624E+02   -.818E+00 0.322E+01 -.443E+01
   0.258E+02 -.870E+02 -.234E+01   -.283E+02 0.918E+02 0.252E+01   0.242E+01 -.512E+01 -.180E+00
   -.448E+02 -.762E+02 0.792E+00   0.477E+02 0.805E+02 -.803E+00   -.318E+01 -.473E+01 0.770E-01
   -.456E+02 -.490E+02 0.170E+02   0.465E+02 0.524E+02 -.179E+02   -.108E+01 -.415E+01 0.113E+01
 -----------------------------------------------------------------------------------------------
   -.192E+02 0.282E+02 0.143E+01   0.213E-13 0.114E-12 -.355E-14   0.168E+02 -.238E+02 -.115E+01
 
 
 POSITION                                       TOTAL-FORCE (eV/Angst)
 -----------------------------------------------------------------------------------
     22.06527     20.05711     19.91131        -0.186435     -0.025422      0.021441
     21.46597     21.32808     19.96749        -0.092845     -0.211194     -0.001286
     20.08217     21.45044     20.04189         0.031564     -0.209915      0.002553
     19.26591     20.30671     20.07775        -0.030771      0.032164     -0.010766
     19.85708     19.03554     20.03942         0.047640      0.237817     -0.001029
     21.24897     18.91950     19.95063        -0.037112      0.246040     -0.000249
     17.05020     19.38797     20.14043         0.172887      0.191263      0.007812
     17.91509     20.53540     20.14517         0.241919     -0.563895     -0.026276
     23.82273     19.83115     19.82232        -0.285866      0.350785     -0.062819
     21.69429     17.92412     19.90665        -0.100029      0.231221      0.009088
     19.25328     18.13056     20.06806         0.127181      0.205061     -0.008566
     16.03001     19.78349     20.17356         0.241224     -0.077321     -0.006245
     17.18720     18.79424     19.22330        -0.019220      0.158275      0.221071
     17.22846     18.75298     21.02258        -0.024359      0.174833     -0.219828
     19.61538     22.43630     20.07650         0.118376     -0.243486     -0.010858
     22.08178     22.22789     19.95069        -0.134717     -0.200097     -0.002568
     24.13611     21.09856     19.48218        -0.069438     -0.296129      0.088525
 -----------------------------------------------------------------------------------
    total drift:                               -0.008141     -0.008693     -0.005630


--------------------------------------------------------------------------------------------------------



  FREE ENERGIE OF THE ION-ELECTRON SYSTEM (eV)
  ---------------------------------------------------
  free  energy   TOTEN  =      -120.38814591 eV

  energy  without entropy=     -120.38814591  energy(sigma->0) =     -120.38814591
 


--------------------------------------------------------------------------------------------------------


    POTLOK:  cpu time    341.4703: real time    341.4641


--------------------------------------------------------------------------------------------------------


 writing wavefunctions
     LOOP+:  cpu time   9222.8395: real time   9223.9602
    4ORBIT:  cpu time      0.0000: real time      0.0000

 total amount of memory used by VASP MPI-rank0   539070. kBytes
=======================================================================

   base      :      30000. kBytes
   nonlr-proj:       4839. kBytes
   fftplans  :     129164. kBytes
   grid      :     302241. kBytes
   one-center:          6. kBytes
   HF        :          4. kBytes
   wavefun   :      72816. kBytes
   fock_wrk  :          0. kBytes
 
  
  
 General timing and accounting informations for this job:
 ========================================================
  
                  Total CPU time used (sec):     9274.103
                            User time (sec):     3886.511
                          System time (sec):     5387.591
                         Elapsed time (sec):     9276.307
  
                   Maximum memory used (kb):     1647600.
                   Average memory used (kb):          N/A
  
                          Minor page faults:     19484922
                          Major page faults:            0
                 Voluntary context switches:         5490
