 vasp.6.4.2 20Jul23 (build Sep 06 2024 14:39:43) complex                        
  
 executed on             LinuxIFC date 2024.11.13  10:05:28
 running   54 mpi-ranks, on    3 nodes
 distrk:  each k-point on   54 cores,    1 groups
 distr:  one band on NCORE=   9 cores,    6 groups


--------------------------------------------------------------------------------------------------------


 INCAR:
   SYSTEM = 062_red
   ISTART = 1
   ICHARG = 2
   INIWAV = 1
   METAGGA = R2SCAN
   LASPH = .TRUE.
   NELM = 100
   ALGO = fast   	
   ISPIN = 2
   EDIFF = 1E-05
   ISMEAR = 0
   SIGMA = 0.05
   PREC = accurate
   ENCUT = 500
   LREAL = auto  	
   LWAVE = .TRUE.
   LCHARG = .FALSE.
   LAECHG = .FALSE.
   LVHAR = .FALSE.
   LVTOT = .FALSE.
   EDIFFG = -0.02
   IBRION = 2
   NSW = 500
   ISIF = 2
   POTIM = 0.5
   IVDW = 12
   VDW_A1 = 0.49484001
   VDW_S8 = 0.78981345
   VDW_A2 = 5.73083694
   LPLANE = .TRUE.
   NCORE = 9
   LSCALU = .FALSE.
   NSIM = 4
   LSOL = .TRUE.
   EB_K = 35.6880
   LAMBDA_D_K = 3.04
   TAU = 0

 POTCAR:    PAW_PBE C 08Apr2002                   
 POTCAR:    PAW_PBE O 08Apr2002                   
 POTCAR:    PAW_PBE H 15Jun2001                   
 -----------------------------------------------------------------------------
|                                                                             |
|           W    W    AA    RRRRR   N    N  II  N    N   GGGG   !!!           |
|           W    W   A  A   R    R  NN   N  II  NN   N  G    G  !!!           |
|           W    W  A    A  R    R  N N  N  II  N N  N  G       !!!           |
|           W WW W  AAAAAA  RRRRR   N  N N  II  N  N N  G  GGG   !            |
|           WW  WW  A    A  R   R   N   NN  II  N   NN  G    G                |
|           W    W  A    A  R    R  N    N  II  N    N   GGGG   !!!           |
|                                                                             |
|     You use a magnetic or noncollinear calculation, but did not specify     |
|     the initial magnetic moment with the MAGMOM tag. Note that a            |
|     default of 1 will be used for all atoms. This ferromagnetic setup       |
|     may break the symmetry of the crystal, in particular it may rule        |
|     out finding an antiferromagnetic solution. Thence, we recommend         |
|     setting the initial magnetic moment manually or verifying carefully     |
|     that this magnetic setup is desired.                                    |
|                                                                             |
 -----------------------------------------------------------------------------

 POTCAR:    PAW_PBE C 08Apr2002                   
   VRHFIN =C: s2p2                                                                                  
   LEXCH  = PE                                                                                      
   EATOM  =   147.1560 eV,   10.8157 Ry                                                             
                                                                                                    
   TITEL  = PAW_PBE C 08Apr2002                                                                     
   LULTRA =        F    use ultrasoft PP ?                                                          
   IUNSCR =        1    unscreen: 0-lin 1-nonlin 2-no                                               
   RPACOR =    1.200    partial core radius                                                         
   POMASS =   12.011; ZVAL   =    4.000    mass and valenz                                          
   RCORE  =    1.500    outmost cutoff radius                                                       
   RWIGS  =    1.630; RWIGS  =    0.863    wigner-seitz radius (au A)                               
   ENMAX  =  400.000; ENMIN  =  300.000 eV                                                          
   ICORE  =        2    local potential                                                             
   LCOR   =        T    correct aug charges                                                         
   LPAW   =        T    paw PP                                                                      
   EAUG   =  644.873                                                                                
   DEXC   =    0.000                                                                                
   RMAX   =    1.529    core radius for proj-oper                                                   
   RAUG   =    1.300    factor for augmentation sphere                                              
   RDEP   =    1.501    radius for radial grids                                                     
   RDEPT  =    1.300    core radius for aug-charge                                                  
                                                                                                    
   Atomic configuration                                                                             
    4 entries                                                                                       
     n  l   j            E        occ.                                                              
     1  0  0.50      -273.3789   2.0000                                                             
     2  0  0.50       -13.7508   2.0000                                                             
     2  1  0.50        -5.2854   2.0000                                                             
     3  2  1.50        -5.4423   0.0000                                                             
   Description                                                                                      
     l       E           TYP  RCUT    TYP  RCUT                                                     
     0    -13.7508458     23  1.200                                                                 
     0     -8.2022199     23  1.200                                                                 
     1     -5.2854383     23  1.500                                                                 
     1     34.0145650     23  1.500                                                                 
     2     -5.4423304      7  1.500                                                                 
  local pseudopotential read in
  partial core-charges read in
  partial kinetic energy density read in
  atomic valenz-charges read in
  non local Contribution for L=           0  read in
    real space projection operators read in
  non local Contribution for L=           0  read in
    real space projection operators read in
  non local Contribution for L=           1  read in
    real space projection operators read in
  non local Contribution for L=           1  read in
    real space projection operators read in
    PAW grid and wavefunctions read in
 
   number of l-projection  operators is LMAX  =           4
   number of lm-projection operators is LMMAX =           8
 
 POTCAR:    PAW_PBE O 08Apr2002                   
   VRHFIN =O: s2p4                                                                                  
   LEXCH  = PE                                                                                      
   EATOM  =   432.3788 eV,   31.7789 Ry                                                             
                                                                                                    
   TITEL  = PAW_PBE O 08Apr2002                                                                     
   LULTRA =        F    use ultrasoft PP ?                                                          
   IUNSCR =        1    unscreen: 0-lin 1-nonlin 2-no                                               
   RPACOR =    1.200    partial core radius                                                         
   POMASS =   16.000; ZVAL   =    6.000    mass and valenz                                          
   RCORE  =    1.520    outmost cutoff radius                                                       
   RWIGS  =    1.550; RWIGS  =    0.820    wigner-seitz radius (au A)                               
   ENMAX  =  400.000; ENMIN  =  300.000 eV                                                          
   ICORE  =        2    local potential                                                             
   LCOR   =        T    correct aug charges                                                         
   LPAW   =        T    paw PP                                                                      
   EAUG   =  605.392                                                                                
   DEXC   =    0.000                                                                                
   RMAX   =    1.553    core radius for proj-oper                                                   
   RAUG   =    1.300    factor for augmentation sphere                                              
   RDEP   =    1.550    radius for radial grids                                                     
   RDEPT  =    1.329    core radius for aug-charge                                                  
                                                                                                    
   Atomic configuration                                                                             
    4 entries                                                                                       
     n  l   j            E        occ.                                                              
     1  0  0.50      -514.6923   2.0000                                                             
     2  0  0.50       -23.9615   2.0000                                                             
     2  1  0.50        -9.0305   4.0000                                                             
     3  2  1.50        -9.5241   0.0000                                                             
   Description                                                                                      
     l       E           TYP  RCUT    TYP  RCUT                                                     
     0    -23.9615318     23  1.200                                                                 
     0     -9.5240782     23  1.200                                                                 
     1     -9.0304911     23  1.520                                                                 
     1      8.1634956     23  1.520                                                                 
     2     -9.5240782      7  1.500                                                                 
  local pseudopotential read in
  partial core-charges read in
  partial kinetic energy density read in
  kinetic energy density of atom read in
  atomic valenz-charges read in
  non local Contribution for L=           0  read in
    real space projection operators read in
  non local Contribution for L=           0  read in
    real space projection operators read in
  non local Contribution for L=           1  read in
    real space projection operators read in
  non local Contribution for L=           1  read in
    real space projection operators read in
    PAW grid and wavefunctions read in
 
   number of l-projection  operators is LMAX  =           4
   number of lm-projection operators is LMMAX =           8
 
 POTCAR:    PAW_PBE H 15Jun2001                   
   VRHFIN =H: ultrasoft test                                                                        
   LEXCH  = PE                                                                                      
   EATOM  =    12.4884 eV,    0.9179 Ry                                                             
                                                                                                    
   TITEL  = PAW_PBE H 15Jun2001                                                                     
   LULTRA =        F    use ultrasoft PP ?                                                          
   IUNSCR =        0    unscreen: 0-lin 1-nonlin 2-no                                               
   RPACOR =    0.000    partial core radius                                                         
   POMASS =    1.000; ZVAL   =    1.000    mass and valenz                                          
   RCORE  =    1.100    outmost cutoff radius                                                       
   RWIGS  =    0.700; RWIGS  =    0.370    wigner-seitz radius (au A)                               
   ENMAX  =  250.000; ENMIN  =  200.000 eV                                                          
   RCLOC  =    0.701    cutoff for local pot                                                        
   LCOR   =        T    correct aug charges                                                         
   LPAW   =        T    paw PP                                                                      
   EAUG   =  400.000                                                                                
   RMAX   =    1.123    core radius for proj-oper                                                   
   RAUG   =    1.200    factor for augmentation sphere                                              
   RDEP   =    1.112    radius for radial grids                                                     
   RDEPT  =    0.926    core radius for aug-charge                                                  
                                                                                                    
   Atomic configuration                                                                             
    2 entries                                                                                       
     n  l   j            E        occ.                                                              
     1  0  0.50        -6.4927   1.0000                                                             
     2  1  0.50        -3.4015   0.0000                                                             
   Description                                                                                      
     l       E           TYP  RCUT    TYP  RCUT                                                     
     0     -6.4927494     23  1.100                                                                 
     0      6.8029130     23  1.100                                                                 
     1     -4.0817478     23  1.100                                                                 
  local pseudopotential read in
  atomic valenz-charges read in
  non local Contribution for L=           0  read in
    real space projection operators read in
  non local Contribution for L=           0  read in
    real space projection operators read in
  non local Contribution for L=           1  read in
    real space projection operators read in
    PAW grid and wavefunctions read in
 
   number of l-projection  operators is LMAX  =           3
   number of lm-projection operators is LMMAX =           5
 
 Optimization of the real space projectors (new method)

 maximal supplied QI-value         = 25.13
 optimisation between [QCUT,QGAM] = [ 11.31, 22.87] = [ 35.82,146.48] Ry 
 Optimized for a Real-space Cutoff    1.03 Angstroem

   l    n(q)    QCUT    max X(q) W(low)/X(q) W(high)/X(q)  e(spline) 
   0      7    11.310   115.676    0.20E-03    0.90E-03    0.20E-06
   0      7    11.310    87.132    0.20E-03    0.89E-03    0.19E-06
   1      6    11.310     4.429    0.16E-03    0.28E-03    0.12E-06
   1      6    11.310     2.733    0.12E-03    0.21E-03    0.99E-07
 Optimization of the real space projectors (new method)

 maximal supplied QI-value         = 24.76
 optimisation between [QCUT,QGAM] = [ 11.39, 22.77] = [ 36.31,145.25] Ry 
 Optimized for a Real-space Cutoff    1.10 Angstroem

   l    n(q)    QCUT    max X(q) W(low)/X(q) W(high)/X(q)  e(spline) 
   0      7    11.387    20.381    0.22E-03    0.48E-03    0.18E-06
   0      7    11.387    15.268    0.22E-03    0.52E-03    0.19E-06
   1      7    11.387     5.964    0.22E-03    0.73E-03    0.24E-06
   1      7    11.387     5.382    0.19E-03    0.60E-03    0.21E-06
 Optimization of the real space projectors (new method)

 maximal supplied QI-value         = 34.20
 optimisation between [QCUT,QGAM] = [ 11.29, 22.57] = [ 35.68,142.71] Ry 
 Optimized for a Real-space Cutoff    1.20 Angstroem

   l    n(q)    QCUT    max X(q) W(low)/X(q) W(high)/X(q)  e(spline) 
   0      8    11.287    19.460    0.22E-03    0.50E-03    0.19E-06
   0      8    11.287    12.209    0.21E-03    0.48E-03    0.18E-06
   1      8    11.287     4.655    0.21E-03    0.11E-04    0.26E-06
  PAW_PBE C 08Apr2002                   :
 energy of atom  1       EATOM= -147.1560
 kinetic energy error for atom=    0.0076 (will be added to EATOM!!)
  PAW_PBE O 08Apr2002                   :
 energy of atom  2       EATOM= -432.3788
 kinetic energy error for atom=    0.0224 (will be added to EATOM!!)
  PAW_PBE H 15Jun2001                   :
 energy of atom  3       EATOM=  -12.4884
 kinetic energy error for atom=    0.0020 (will be added to EATOM!!)
 
 
 POSCAR: C O H
  positions in direct lattice
  velocities in cartesian coordinates

 METAGGA = R2SCAN                                      LMAXTAU =  6    LMIXTAU =  F

 exchange correlation table for  LEXCH =        8
   RHO(1)=    0.500       N(1)  =     2000
   RHO(2)=  100.500       N(2)  =     4000
 


--------------------------------------------------------------------------------------------------------


 ion  position               nearest neighbor table
   1  0.519  0.471  0.506-  13 1.09  14 1.09   6 1.40   2 1.59
   2  0.481  0.471  0.494-   7 1.09   8 1.09   5 1.40   1 1.59
   3  0.481  0.529  0.494-  11 1.09  12 1.09   5 1.40   4 1.59
   4  0.519  0.529  0.506-   9 1.09  10 1.09   6 1.40   3 1.59
   5  0.467  0.500  0.507-   2 1.40   3 1.40
   6  0.533  0.500  0.493-   4 1.40   1 1.40
   7  0.469  0.449  0.505-   2 1.09
   8  0.481  0.470  0.467-   2 1.09
   9  0.531  0.551  0.495-   4 1.09
  10  0.519  0.530  0.533-   4 1.09
  11  0.469  0.551  0.505-   3 1.09
  12  0.481  0.530  0.467-   3 1.09
  13  0.531  0.449  0.495-   1 1.09
  14  0.519  0.470  0.533-   1 1.09
 
  LATTYP: Found a simple cubic cell.
 ALAT       =    40.0000000000
  
  Lattice vectors:
  
 A1 = (  40.0000000000,   0.0000000000,   0.0000000000)
 A2 = (   0.0000000000,  40.0000000000,   0.0000000000)
 A3 = (   0.0000000000,   0.0000000000,  40.0000000000)


Analysis of symmetry for initial positions (statically):
=====================================================================
 Subroutine PRICEL returns:
 Original cell was already a primitive cell.
 

 Routine SETGRP: Setting up the symmetry group for a 
 simple cubic supercell.


 Subroutine GETGRP returns: Found  4 space group operations
 (whereof  4 operations were pure point group operations)
 out of a pool of 48 trial point group operations.


The static configuration has the point symmetry C_2h.


Analysis of symmetry for dynamics (positions and initial velocities):
=====================================================================
 Subroutine PRICEL returns:
 Original cell was already a primitive cell.
 

 Routine SETGRP: Setting up the symmetry group for a 
 simple cubic supercell.


 Subroutine GETGRP returns: Found  4 space group operations
 (whereof  4 operations were pure point group operations)
 out of a pool of 48 trial point group operations.


The dynamic configuration has the point symmetry C_2h.


Analysis of constrained symmetry for selective dynamics:
=====================================================================
 Subroutine PRICEL returns:
 Original cell was already a primitive cell.
 

 Routine SETGRP: Setting up the symmetry group for a 
 simple cubic supercell.


 Subroutine GETGRP returns: Found  4 space group operations
 (whereof  4 operations were pure point group operations)
 out of a pool of 48 trial point group operations.


The constrained configuration has the point symmetry C_2h.


Analysis of structural, dynamic, and magnetic symmetry:
=====================================================================
 Subroutine PRICEL returns:
 Original cell was already a primitive cell.
 

 Routine SETGRP: Setting up the symmetry group for a 
 simple cubic supercell.


 Subroutine GETGRP returns: Found  4 space group operations
 (whereof  4 operations were pure point group operations)
 out of a pool of 48 trial point group operations.


The overall configuration has the point symmetry C_2h.


 Subroutine INISYM returns: Found  4 space group operations
 (whereof  4 operations are pure point group operations),
 and found     1 'primitive' translations


----------------------------------------------------------------------------------------

                                     Primitive cell                                     

  volume of cell :   64000.0000

  direct lattice vectors                    reciprocal lattice vectors
    40.000000000  0.000000000  0.000000000     0.025000000  0.000000000  0.000000000
     0.000000000 40.000000000  0.000000000     0.000000000  0.025000000  0.000000000
     0.000000000  0.000000000 40.000000000     0.000000000  0.000000000  0.025000000

  length of vectors
    40.000000000 40.000000000 40.000000000     0.025000000  0.025000000  0.025000000

  position of ions in fractional coordinates (direct lattice)
     0.518948217  0.470694119  0.506036240
     0.481053783  0.470693119  0.493963760
     0.481051783  0.529305881  0.493963760
     0.518946217  0.529306881  0.506036240
     0.467181380  0.499999000  0.507013002
     0.532818620  0.500001000  0.492986998
     0.468553769  0.449386732  0.505261030
     0.480842210  0.470435944  0.466721211
     0.531446231  0.550613268  0.494738970
     0.519157790  0.529564056  0.533278789
     0.468550769  0.550611268  0.505262030
     0.480839210  0.529564056  0.466722211
     0.531449231  0.449388732  0.494737970
     0.519160790  0.470435944  0.533277789

  ion indices of the primitive-cell ions
   primitive index   ion index
                 1           1
                 2           2
                 3           3
                 4           4
                 5           5
                 6           6
                 7           7
                 8           8
                 9           9
                10          10
                11          11
                12          12
                13          13
                14          14

----------------------------------------------------------------------------------------

 
 
 KPOINTS: K-Point Grid                            

Automatic generation of k-mesh.
 Grid dimensions read from file:
 generate k-points for:    1    1    1

 Generating k-lattice:

  Cartesian coordinates                     Fractional coordinates (reciprocal lattice)
     0.025000000  0.000000000  0.000000000     1.000000000  0.000000000  0.000000000
     0.000000000  0.025000000  0.000000000     0.000000000  1.000000000  0.000000000
     0.000000000  0.000000000  0.025000000     0.000000000  0.000000000  1.000000000

  Length of vectors
     0.025000000  0.025000000  0.025000000

  Shift w.r.t. Gamma in fractional coordinates (k-lattice)
     0.000000000  0.000000000  0.000000000

 
 Subroutine IBZKPT returns following result:
 ===========================================
 
 Found      1 irreducible k-points:
 
 Following reciprocal coordinates:
            Coordinates               Weight
  0.000000  0.000000  0.000000      1.000000
 
 Following cartesian coordinates:
            Coordinates               Weight
  0.000000  0.000000  0.000000      1.000000
 


--------------------------------------------------------------------------------------------------------




 Dimension of arrays:
   k-points           NKPTS =      1   k-points in BZ     NKDIM =      1   number of bands    NBANDS=     36
   number of dos      NEDOS =    301   number of ions     NIONS =     14
   non local maximal  LDIM  =      4   non local SUM 2l+1 LMDIM =      8
   total plane-waves  NPLWV = ******
   max r-space proj   IRMAX =   2915   max aug-charges    IRDMAX=   5350
   dimension x,y,z NGX =   294 NGY =  294 NGZ =  294
   dimension x,y,z NGXF=   588 NGYF=  588 NGZF=  588
   support grid    NGXF=   588 NGYF=  588 NGZF=  588
   ions per type =               4   2   8
   NGX,Y,Z   is equivalent  to a cutoff of  12.22, 12.22, 12.22 a.u.
   NGXF,Y,Z  is equivalent  to a cutoff of  24.44, 24.44, 24.44 a.u.

 SYSTEM =  062_red                                 
 POSCAR =  C O H                                   

 Startparameter for this run:
   NWRITE =      2    write-flag & timer
   PREC   = accura    normal or accurate (medium, high low for compatibility)
   ISTART =      1    job   : 0-new  1-cont  2-samecut
   ICHARG =      2    charge: 1-file 2-atom 10-const
   ISPIN  =      2    spin polarized calculation?
   LNONCOLLINEAR =      F non collinear calculations
   LSORBIT =      F    spin-orbit coupling
   INIWAV =      1    electr: 0-lowe 1-rand  2-diag
   LASPH  =      T    aspherical Exc in radial PAW
 Electronic Relaxation 1
   ENCUT  =  500.0 eV  36.75 Ry    6.06 a.u.  72.93 72.93 72.93*2*pi/ulx,y,z
   ENINI  =  500.0     initial cutoff
   ENAUG  =  644.9 eV  augmentation charge cutoff
   NELM   =    100;   NELMIN=  2; NELMDL=  0     # of ELM steps 
   EDIFF  = 0.1E-04   stopping-criterion for ELM
   LREAL  =      T    real-space projection
   NLSPLINE    = F    spline interpolate recip. space projectors
   LCOMPAT=      F    compatible to vasp.4.4
   GGA_COMPAT  = T    GGA compatible to vasp.4.4-vasp.4.6
   LMAXPAW     = -100 max onsite density
   LMAXMIX     =    2 max onsite mixed and CHGCAR
   VOSKOWN=      0    Vosko Wilk Nusair interpolation
   ROPT   =   -0.00025  -0.00025  -0.00025
 Ionic relaxation
   EDIFFG = -.2E-01   stopping-criterion for IOM
   NSW    =    500    number of steps for IOM
   NBLOCK =      1;   KBLOCK =    500    inner block; outer block 
   IBRION =      2    ionic relax: 0-MD 1-quasi-New 2-CG
   NFREE  =      1    steps in history (QN), initial steepest desc. (CG)
   ISIF   =      2    stress and relaxation
   IWAVPR =     11    prediction:  0-non 1-charg 2-wave 3-comb
   ISYM   =      2    0-nonsym 1-usesym 2-fastsym
   LCORR  =      T    Harris-Foulkes like correction to forces

   POTIM  = 0.5000    time-step for ionic-motion
   TEIN   =    0.0    initial temperature
   TEBEG  =    0.0;   TEEND  =   0.0 temperature during run
   SMASS  =  -3.00    Nose mass-parameter (am)
   estimated Nose-frequenzy (Omega)   =  0.10E-29 period in steps = 0.13E+47 mass=  -0.366E-25a.u.
   SCALEE = 1.0000    scale energy and forces
   NPACO  =    256;   APACO  = 10.0  distance and # of slots for P.C.
   PSTRESS=    0.0 pullay stress

  Mass of Ions in am
   POMASS =  12.01 16.00  1.00
  Ionic Valenz
   ZVAL   =   4.00  6.00  1.00
  Atomic Wigner-Seitz radii
   RWIGS  =  -1.00 -1.00 -1.00
  virtual crystal weights 
   VCA    =   1.00  1.00  1.00
   NELECT =      36.0000    total number of electrons
   NUPDOWN=      -1.0000    fix difference up-down

 DOS related values:
   EMIN   =  10.00;   EMAX   =-10.00  energy-range for DOS
   EFERMI =   0.00;   METHOD = LEGACY      
   ISMEAR =     0;   SIGMA  =   0.05  broadening in eV -4-tet -1-fermi 0-gaus

 Electronic relaxation 2 (details)
   IALGO  =     68    algorithm
   LDIAG  =      T    sub-space diagonalisation (order eigenvalues)
   LSUBROT=      F    optimize rotation matrix (better conditioning)
   TURBO    =      0    0=normal 1=particle mesh
   IRESTART =      0    0=no restart 2=restart with 2 vectors
   NREBOOT  =      0    no. of reboots
   NMIN     =      0    reboot dimension
   EREF     =   0.00    reference energy to select bands
   IMIX   =      4    mixing-type and parameters
     AMIX     =   0.40;   BMIX     =  1.00
     AMIX_MAG =   1.60;   BMIX_MAG =  1.00
     AMIN     =   0.10
     WC   =   100.;   INIMIX=   1;  MIXPRE=   1;  MAXMIX= -45

 Intra band minimization:
   WEIMIN = 0.0010     energy-eigenvalue tresh-hold
   EBREAK =  0.69E-07  absolut break condition
   DEPER  =   0.30     relativ break condition  

   TIME   =   0.40     timestep for ELM

  volume/ion in A,a.u.               =    4571.43     30849.52
  Fermi-wavevector in a.u.,A,eV,Ry     =   0.135140  0.255377  0.248479  0.018263
  Thomas-Fermi vector in A             =   0.783872
 
 Write flags
   LWAVE        =      T    write WAVECAR
   LDOWNSAMPLE  =      F    k-point downsampling of WAVECAR
   LCHARG       =      F    write CHGCAR
   LVTOT        =      F    write LOCPOT, total local potential
   LVHAR        =      F    write LOCPOT, Hartree potential only
   LELF         =      F    write electronic localiz. function (ELF)
   LORBIT       =      0    0 simple, 1 ext, 2 COOP (PROOUT), +10 PAW based schemes


 Dipole corrections
   LMONO  =      F    monopole corrections only (constant potential shift)
   LDIPOL =      F    correct potential (dipole corrections)
   IDIPOL =      0    1-x, 2-y, 3-z, 4-all directions 
   EPSILON=  1.0000000 bulk dielectric constant

 Exchange correlation treatment:
   GGA     =    --    GGA type
   LEXCH   =     8    internal setting for exchange type
   LIBXC   =     F    Libxc                    
   VOSKOWN =     0    Vosko Wilk Nusair interpolation
   LHFCALC =     F    Hartree Fock is set to
   LHFONE  =     F    Hartree Fock one center treatment
   AEXX    =    0.0000 exact exchange contribution

 Linear response parameters
   LEPSILON=     F    determine dielectric tensor
   LRPA    =     F    only Hartree local field effects (RPA)
   LNABLA  =     F    use nabla operator in PAW spheres
   LVEL    =     F    velocity operator in full k-point grid
   CSHIFT  =0.1000    complex shift for real part using Kramers Kronig
   OMEGAMAX=  -1.0    maximum frequency
   DEG_THRESHOLD= 0.2000000E-02 threshold for treating states as degnerate
   RTIME   =   -0.100 relaxation time in fs
  (WPLASMAI=    0.000 imaginary part of plasma frequency in eV, 0.658/RTIME)
   DFIELD  = 0.0000000 0.0000000 0.0000000 field for delta impulse in time
 
  Optional k-point grid parameters
   LKPOINTS_OPT  =     F    use optional k-point grid
   KPOINTS_OPT_MODE=     1    mode for optional k-point grid
 
 Orbital magnetization related:
   ORBITALMAG=     F  switch on orbital magnetization
   LCHIMAG   =     F  perturbation theory with respect to B field
   DQ        =  0.001000  dq finite difference perturbation B field
   LLRAUG    =     F  two centre corrections for induced B field
   LBONE     =     F  B-component reconstruction in AE one-centre
   LVGVCALC  =     T  calculate vGv susceptibility
   LVGVAPPL  =     F  apply vGv susceptibility instead of pGv for G=0

 Random number generation:
   RANDOM_GENERATOR = DEFAULT
   PCG_SEED         = not used
 Solvation model:
   LSOL    =     T         switch on solvation model
   EB_K    = 35.688000     relative permittivity of the bulk solvent
   SIGMA_K =  0.600000     width of the dielectric cavity
   NC_K    =  0.002500     cutoff charge density
   TAU     =  0.000000     cavity surface tension
   LAMBDA_D_K    =  3.040000     Debye length in Angstroms
   LRHOB     =     F     write boundcharge  density
   LRHOION     =     F     write ioniccharge density



--------------------------------------------------------------------------------------------------------


 conjugate gradient relaxation of ions
   using selective dynamics as specified on POSCAR
 charge density and potential will be updated during run
 spin polarized calculation
 RMM-DIIS sequential band-by-band and
  variant of blocked Davidson during initial phase
 perform sub-space diagonalisation
    before iterative eigenvector-optimisation
 modified Broyden-mixing scheme, WC =      100.0
 initial mixing is a Kerker type mixing with AMIX =  0.4000 and BMIX =      1.0000
 Hartree-type preconditioning will be used
 using additional bands           18
 real space projection scheme for non local part
 use partial core corrections
 calculate Harris-corrections to forces 
   (improved forces if not selfconsistent)
 use gradient corrections 
 use of overlap-Matrix (Vanderbilt PP)
 Gauss-broadening in eV      SIGMA  =   0.05


--------------------------------------------------------------------------------------------------------


  energy-cutoff  :      500.00
  volume of cell :    64000.00
      direct lattice vectors                 reciprocal lattice vectors
    40.000000000  0.000000000  0.000000000     0.025000000  0.000000000  0.000000000
     0.000000000 40.000000000  0.000000000     0.000000000  0.025000000  0.000000000
     0.000000000  0.000000000 40.000000000     0.000000000  0.000000000  0.025000000

  length of vectors
    40.000000000 40.000000000 40.000000000     0.025000000  0.025000000  0.025000000


 
 old parameters found on file WAVECAR:
  energy-cutoff  :      500.00
  volume of cell :    64000.00
      direct lattice vectors                 reciprocal lattice vectors
    40.000000000  0.000000000  0.000000000     0.025000000  0.000000000  0.000000000
     0.000000000 40.000000000  0.000000000     0.000000000  0.025000000  0.000000000
     0.000000000  0.000000000 40.000000000     0.000000000  0.000000000  0.025000000

  length of vectors

 
 k-points in units of 2pi/SCALE and weight: K-Point Grid                            
   0.00000000  0.00000000  0.00000000       1.000
 
 k-points in reciprocal lattice and weights: K-Point Grid                            
   0.00000000  0.00000000  0.00000000       1.000
 
 position of ions in fractional coordinates (direct lattice) 
   0.51894822  0.47069412  0.50603624
   0.48105378  0.47069312  0.49396376
   0.48105178  0.52930588  0.49396376
   0.51894622  0.52930688  0.50603624
   0.46718138  0.49999900  0.50701300
   0.53281862  0.50000100  0.49298700
   0.46855377  0.44938673  0.50526103
   0.48084221  0.47043594  0.46672121
   0.53144623  0.55061327  0.49473897
   0.51915779  0.52956406  0.53327879
   0.46855077  0.55061127  0.50526203
   0.48083921  0.52956406  0.46672221
   0.53144923  0.44938873  0.49473797
   0.51916079  0.47043594  0.53327779
 
 position of ions in cartesian coordinates  (Angst):
  20.75792867 18.82776477 20.24144959
  19.24215133 18.82772477 19.75855041
  19.24207133 21.17223523 19.75855041
  20.75784867 21.17227523 20.24144959
  18.68725521 19.99996000 20.28052007
  21.31274479 20.00004000 19.71947993
  18.74215076 17.97546927 20.21044120
  19.23368839 18.81743777 18.66884843
  21.25784924 22.02453073 19.78955880
  20.76631161 21.18256223 21.33115157
  18.74203076 22.02445073 20.21048120
  19.23356839 21.18256223 18.66888843
  21.25796924 17.97554927 19.78951880
  20.76643161 18.81743777 21.33111157
 


--------------------------------------------------------------------------------------------------------


 k-point   1 :   0.0000 0.0000 0.0000  plane waves: 1624525

 maximum and minimum number of plane-waves per node :    180507   180501

 maximum number of plane-waves:   1624525
 maximum index in each direction: 
   IXMAX=   72   IYMAX=   72   IZMAX=   72
   IXMIN=  -72   IYMIN=  -72   IZMIN=  -72


 real space projection operators:
  total allocation   :       1577.80 KBytes
  max/ min on nodes  :        176.98        170.22


 parallel 3D FFT for wavefunctions:
    minimum data exchange during FFTs selected (reduces bandwidth)
 parallel 3D FFT for charge:
    minimum data exchange during FFTs selected (reduces bandwidth)


 total amount of memory used by VASP MPI-rank0  1085501. kBytes
=======================================================================

   base      :      30000. kBytes
   nonlr-proj:        902. kBytes
   fftplans  :     212203. kBytes
   grid      :     807723. kBytes
   one-center:         12. kBytes
   wavefun   :      34661. kBytes
 
     INWAV:  cpu time      5.2063: real time      5.2154
 Broyden mixing: mesh for mixing (old mesh)
   NGX =145   NGY =145   NGZ =145
  (NGX  =588   NGY  =588   NGZ  =588)
  gives a total of ****** points

 initial charge density was supplied:
 charge density of overlapping atoms calculated
 number of electron      36.0000000 magnetization      14.0000000
 keeping initial charge density in first step


--------------------------------------------------------------------------------------------------------


 Maximum index for non-local projection operator          340
 Maximum index for augmentation-charges          287 (set IRDMAX)


--------------------------------------------------------------------------------------------------------


 First call to EWALD:  gamma=   0.044
 Maximum number of real-space cells 3x 3x 3
 Maximum number of reciprocal cells 3x 3x 3

    FEWALD:  cpu time      0.0026: real time      0.0026


--------------------------------------- Ionic step        1  -------------------------------------------




--------------------------------------- Iteration      1(   1)  ---------------------------------------


    POTLOK:  cpu time    140.6891: real time    140.9718
    SETDIJ:  cpu time      0.3221: real time      0.3229
     EDDAV:  cpu time     44.8239: real time     44.9329
       DOS:  cpu time      0.0005: real time      0.0005
    CHARGE:  cpu time     39.0368: real time     39.1300
    MIXING:  cpu time      0.1638: real time      0.1641
    --------------------------------------------
      LOOP:  cpu time    225.0362: real time    225.5223

 eigenvalue-minimisations  :   192
 total energy-change (2. order) :-0.7810546E+02  (-0.3674920E+01)
 number of electron      35.9999996 magnetization      13.4606110
 augmentation part        1.9509065 magnetization      13.5019937

 Broyden mixing:
  rms(total) = 0.24237E+01    rms(broyden)= 0.24231E+01
  rms(prec ) = 0.24410E+01
  weight for this iteration     100.00

 Free energy of the ion-electron system (eV)
  ---------------------------------------------------
  alpha Z        PSCENC =         0.08322424
  Ewald energy   TEWEN  =      3390.16529761
  -Hartree energ DENC   =     -4518.04137728
  -exchange      EXHF   =         0.00000000
  -V(xc)+E(xc)   XCENC  =       153.66154893
  PAW double counting   =      1118.12374206    -1132.42261411
  entropy T*S    EENTRO =        -0.00000000
  eigenvalues    EBANDS =      -636.78253654
  atomic energy  EATOM  =      1553.19799489
  Solvation  Ediel_sol  =        -6.09073739
  ---------------------------------------------------
  free energy    TOTEN  =       -78.10545759 eV

  energy without entropy =      -78.10545759  energy(sigma->0) =      -78.10545759


--------------------------------------------------------------------------------------------------------




--------------------------------------- Iteration      1(   2)  ---------------------------------------


    POTLOK:  cpu time    135.6631: real time    135.9270
    SETDIJ:  cpu time      0.3213: real time      0.3219
    EDDIAG:  cpu time      9.1844: real time      9.2075
  RMM-DIIS:  cpu time     50.9908: real time     51.1093
    ORTHCH:  cpu time      0.1199: real time      0.1203
       DOS:  cpu time      0.0017: real time      0.0017
    CHARGE:  cpu time     38.8440: real time     38.9292
    MIXING:  cpu time      0.1510: real time      0.1616
    --------------------------------------------
      LOOP:  cpu time    235.2761: real time    235.7785

 eigenvalue-minimisations  :   144
 total energy-change (2. order) : 0.8944896E+01  (-0.5728261E+01)
 number of electron      35.9999996 magnetization      12.8850822
 augmentation part        1.9296779 magnetization      12.8235533

 Broyden mixing:
  rms(total) = 0.11331E+01    rms(broyden)= 0.11330E+01
  rms(prec ) = 0.11474E+01
  weight for this iteration     100.00

 eigenvalues of (default mixing * dielectric matrix)
  average eigenvalue GAMMA=   0.9532
  0.9532

 Free energy of the ion-electron system (eV)
  ---------------------------------------------------
  alpha Z        PSCENC =         0.08322424
  Ewald energy   TEWEN  =      3390.16529761
  -Hartree energ DENC   =     -4588.42968101
  -exchange      EXHF   =         0.00000000
  -V(xc)+E(xc)   XCENC  =       166.36687822
  PAW double counting   =      1634.14442179    -1649.08811762
  entropy T*S    EENTRO =        -0.00000000
  eigenvalues    EBANDS =      -563.98558082
  atomic energy  EATOM  =      1553.19799489
  Solvation  Ediel_sol  =       -11.61499882
  ---------------------------------------------------
  free energy    TOTEN  =       -69.16056151 eV

  energy without entropy =      -69.16056151  energy(sigma->0) =      -69.16056151


--------------------------------------------------------------------------------------------------------




--------------------------------------- Iteration      1(   3)  ---------------------------------------


    POTLOK:  cpu time    134.4860: real time    134.7407
    SETDIJ:  cpu time      0.3201: real time      0.3208
    EDDIAG:  cpu time      9.2032: real time      9.2245
  RMM-DIIS:  cpu time     56.8499: real time     56.9794
    ORTHCH:  cpu time      0.1208: real time      0.1212
       DOS:  cpu time      0.0011: real time      0.0011
    CHARGE:  cpu time     38.6525: real time     38.7423
    MIXING:  cpu time      0.1488: real time      0.1489
    --------------------------------------------
      LOOP:  cpu time    239.7824: real time    240.2788

 eigenvalue-minimisations  :   163
 total energy-change (2. order) :-0.1631530E+02  (-0.2367422E+01)
 number of electron      35.9999997 magnetization      12.1609993
 augmentation part        1.8976612 magnetization      12.0837159

 Broyden mixing:
  rms(total) = 0.67613E+00    rms(broyden)= 0.67608E+00
  rms(prec ) = 0.68248E+00
  weight for this iteration     100.00

 eigenvalues of (default mixing * dielectric matrix)
  average eigenvalue GAMMA=   1.1175
  0.7940  1.4411

 Free energy of the ion-electron system (eV)
  ---------------------------------------------------
  alpha Z        PSCENC =         0.08322424
  Ewald energy   TEWEN  =      3390.16529761
  -Hartree energ DENC   =     -4638.12701699
  -exchange      EXHF   =         0.00000000
  -V(xc)+E(xc)   XCENC  =       156.10472897
  PAW double counting   =      2081.36040694    -2096.71543897
  entropy T*S    EENTRO =        -0.00000000
  eigenvalues    EBANDS =      -515.87795362
  atomic energy  EATOM  =      1553.19799489
  Solvation  Ediel_sol  =       -15.66710420
  ---------------------------------------------------
  free energy    TOTEN  =       -85.47586112 eV

  energy without entropy =      -85.47586112  energy(sigma->0) =      -85.47586112


--------------------------------------------------------------------------------------------------------




--------------------------------------- Iteration      1(   4)  ---------------------------------------


    POTLOK:  cpu time    136.4536: real time    136.7274
    SETDIJ:  cpu time      0.3240: real time      0.3247
    EDDIAG:  cpu time      9.1157: real time      9.1420
  RMM-DIIS:  cpu time     65.5113: real time     65.6619
    ORTHCH:  cpu time      0.1209: real time      0.1212
       DOS:  cpu time      0.0002: real time      0.0002
    CHARGE:  cpu time     38.6034: real time     38.6945
    MIXING:  cpu time      0.1526: real time      0.1528
    --------------------------------------------
      LOOP:  cpu time    250.2817: real time    250.8247

 eigenvalue-minimisations  :   198
 total energy-change (2. order) :-0.4275755E+01  (-0.9791731E+00)
 number of electron      35.9999998 magnetization      11.5368443
 augmentation part        1.8555109 magnetization      11.4731802

 Broyden mixing:
  rms(total) = 0.44062E+00    rms(broyden)= 0.44056E+00
  rms(prec ) = 0.44387E+00
  weight for this iteration     100.00

 eigenvalues of (default mixing * dielectric matrix)
  average eigenvalue GAMMA=   1.1958
  1.7385  1.1490  0.7000

 Free energy of the ion-electron system (eV)
  ---------------------------------------------------
  alpha Z        PSCENC =         0.08322424
  Ewald energy   TEWEN  =      3390.16529761
  -Hartree energ DENC   =     -4672.12304892
  -exchange      EXHF   =         0.00000000
  -V(xc)+E(xc)   XCENC  =       154.87818571
  PAW double counting   =      2485.97842841    -2501.44423688
  entropy T*S    EENTRO =        -0.00000000
  eigenvalues    EBANDS =      -482.22435605
  atomic energy  EATOM  =      1553.19799489
  Solvation  Ediel_sol  =       -18.26310550
  ---------------------------------------------------
  free energy    TOTEN  =       -89.75161648 eV

  energy without entropy =      -89.75161648  energy(sigma->0) =      -89.75161648


--------------------------------------------------------------------------------------------------------




--------------------------------------- Iteration      1(   5)  ---------------------------------------


    POTLOK:  cpu time    134.3775: real time    134.6407
    SETDIJ:  cpu time      0.3354: real time      0.3362
    EDDIAG:  cpu time      9.1135: real time      9.1366
  RMM-DIIS:  cpu time     68.6345: real time     68.7854
    ORTHCH:  cpu time      0.1197: real time      0.1200
       DOS:  cpu time      0.0004: real time      0.0004
    CHARGE:  cpu time     38.4821: real time     38.5682
    MIXING:  cpu time      0.1590: real time      0.1592
    --------------------------------------------
      LOOP:  cpu time    251.2219: real time    251.7466

 eigenvalue-minimisations  :   215
 total energy-change (2. order) :-0.9762684E+00  (-0.1814365E+00)
 number of electron      35.9999998 magnetization      10.5301293
 augmentation part        1.8534571 magnetization      10.4789959

 Broyden mixing:
  rms(total) = 0.28873E+00    rms(broyden)= 0.28871E+00
  rms(prec ) = 0.29076E+00
  weight for this iteration     100.00

 eigenvalues of (default mixing * dielectric matrix)
  average eigenvalue GAMMA=   1.3403
  2.1733  1.6418  0.8801  0.6658

 Free energy of the ion-electron system (eV)
  ---------------------------------------------------
  alpha Z        PSCENC =         0.08322424
  Ewald energy   TEWEN  =      3390.16529761
  -Hartree energ DENC   =     -4674.84778784
  -exchange      EXHF   =         0.00000000
  -V(xc)+E(xc)   XCENC  =       154.29867546
  PAW double counting   =      2633.78478885    -2649.16975260
  entropy T*S    EENTRO =        -0.00000000
  eigenvalues    EBANDS =      -481.47164331
  atomic energy  EATOM  =      1553.19799489
  Solvation  Ediel_sol  =       -16.76868218
  ---------------------------------------------------
  free energy    TOTEN  =       -90.72788487 eV

  energy without entropy =      -90.72788487  energy(sigma->0) =      -90.72788487


--------------------------------------------------------------------------------------------------------




--------------------------------------- Iteration      1(   6)  ---------------------------------------


    POTLOK:  cpu time    136.2084: real time    136.4671
    SETDIJ:  cpu time      0.3250: real time      0.3256
    EDDIAG:  cpu time      9.1803: real time      9.2041
  RMM-DIIS:  cpu time     66.9435: real time     67.0964
    ORTHCH:  cpu time      0.1214: real time      0.1218
       DOS:  cpu time      0.0003: real time      0.0002
    CHARGE:  cpu time     38.6015: real time     38.6919
    MIXING:  cpu time      0.1644: real time      0.1646
    --------------------------------------------
      LOOP:  cpu time    251.5447: real time    252.0717

 eigenvalue-minimisations  :   207
 total energy-change (2. order) :-0.1040950E+01  (-0.1086107E+00)
 number of electron      35.9999998 magnetization      10.0284000
 augmentation part        1.8577834 magnetization       9.9882694

 Broyden mixing:
  rms(total) = 0.15905E+00    rms(broyden)= 0.15905E+00
  rms(prec ) = 0.15983E+00
  weight for this iteration     100.00

 eigenvalues of (default mixing * dielectric matrix)
  average eigenvalue GAMMA=   1.3889
  2.7785  1.6339  1.1182  0.7714  0.6426

 Free energy of the ion-electron system (eV)
  ---------------------------------------------------
  alpha Z        PSCENC =         0.08322424
  Ewald energy   TEWEN  =      3390.16529761
  -Hartree energ DENC   =     -4678.04001102
  -exchange      EXHF   =         0.00000000
  -V(xc)+E(xc)   XCENC  =       153.66002752
  PAW double counting   =      2783.51353041    -2798.74440712
  entropy T*S    EENTRO =        -0.00000000
  eigenvalues    EBANDS =      -482.95228192
  atomic energy  EATOM  =      1553.19799489
  Solvation  Ediel_sol  =       -12.65220912
  ---------------------------------------------------
  free energy    TOTEN  =       -91.76883450 eV

  energy without entropy =      -91.76883450  energy(sigma->0) =      -91.76883450


--------------------------------------------------------------------------------------------------------




--------------------------------------- Iteration      1(   7)  ---------------------------------------


    POTLOK:  cpu time    126.1568: real time    126.4038
    SETDIJ:  cpu time      0.3213: real time      0.3220
    EDDIAG:  cpu time      9.1672: real time      9.1893
  RMM-DIIS:  cpu time     68.8512: real time     69.0089
    ORTHCH:  cpu time      0.1199: real time      0.1214
       DOS:  cpu time      0.0019: real time      0.0019
    CHARGE:  cpu time     38.6920: real time     38.7790
    MIXING:  cpu time      0.1690: real time      0.1692
    --------------------------------------------
      LOOP:  cpu time    243.4795: real time    243.9956

 eigenvalue-minimisations  :   216
 total energy-change (2. order) : 0.3745222E+00  (-0.4245170E-01)
 number of electron      35.9999998 magnetization       9.3236676
 augmentation part        1.8544021 magnetization       9.2890555

 Broyden mixing:
  rms(total) = 0.13313E+00    rms(broyden)= 0.13313E+00
  rms(prec ) = 0.13375E+00
  weight for this iteration     100.00

 eigenvalues of (default mixing * dielectric matrix)
  average eigenvalue GAMMA=   1.3076
  2.8260  1.7595  0.9439  0.9439  0.6445  0.7278

 Free energy of the ion-electron system (eV)
  ---------------------------------------------------
  alpha Z        PSCENC =         0.08322424
  Ewald energy   TEWEN  =      3390.16529761
  -Hartree energ DENC   =     -4682.57613771
  -exchange      EXHF   =         0.00000000
  -V(xc)+E(xc)   XCENC  =       154.30256985
  PAW double counting   =      2807.65510042    -2822.89302049
  entropy T*S    EENTRO =        -0.00000000
  eigenvalues    EBANDS =      -480.71327483
  atomic energy  EATOM  =      1553.19799489
  Solvation  Ediel_sol  =       -10.61606625
  ---------------------------------------------------
  free energy    TOTEN  =       -91.39431226 eV

  energy without entropy =      -91.39431226  energy(sigma->0) =      -91.39431226


--------------------------------------------------------------------------------------------------------




--------------------------------------- Iteration      1(   8)  ---------------------------------------


    POTLOK:  cpu time    126.3963: real time    126.6389
    SETDIJ:  cpu time      0.3203: real time      0.3210
    EDDIAG:  cpu time      9.2036: real time      9.2256
  RMM-DIIS:  cpu time     68.7324: real time     68.8864
    ORTHCH:  cpu time      0.1261: real time      0.1264
       DOS:  cpu time      0.0012: real time      0.0012
    CHARGE:  cpu time     38.5658: real time     38.6259
    MIXING:  cpu time      0.1790: real time      0.1792
    --------------------------------------------
      LOOP:  cpu time    243.5246: real time    244.0047

 eigenvalue-minimisations  :   215
 total energy-change (2. order) : 0.1311440E+01  (-0.3653549E-01)
 number of electron      35.9999998 magnetization       7.5146702
 augmentation part        1.8503472 magnetization       7.4846726

 Broyden mixing:
  rms(total) = 0.10270E+00    rms(broyden)= 0.10269E+00
  rms(prec ) = 0.10307E+00
  weight for this iteration     100.00

 eigenvalues of (default mixing * dielectric matrix)
  average eigenvalue GAMMA=   1.6562
  4.0711  2.6868  1.5239  1.1642  0.8136  0.7078  0.6257

 Free energy of the ion-electron system (eV)
  ---------------------------------------------------
  alpha Z        PSCENC =         0.08322424
  Ewald energy   TEWEN  =      3390.16529761
  -Hartree energ DENC   =     -4685.71900408
  -exchange      EXHF   =         0.00000000
  -V(xc)+E(xc)   XCENC  =       155.61746451
  PAW double counting   =      2783.39620792    -2798.64425709
  entropy T*S    EENTRO =        -0.00000000
  eigenvalues    EBANDS =      -480.50336552
  atomic energy  EATOM  =      1553.19799489
  Solvation  Ediel_sol  =        -7.67643452
  ---------------------------------------------------
  free energy    TOTEN  =       -90.08287205 eV

  energy without entropy =      -90.08287205  energy(sigma->0) =      -90.08287205


--------------------------------------------------------------------------------------------------------




--------------------------------------- Iteration      1(   9)  ---------------------------------------


    POTLOK:  cpu time    131.3266: real time    131.5755
    SETDIJ:  cpu time      0.3206: real time      0.3213
    EDDIAG:  cpu time      9.1880: real time      9.2100
  RMM-DIIS:  cpu time     68.9074: real time     69.0648
    ORTHCH:  cpu time      0.1209: real time      0.1212
       DOS:  cpu time      0.0015: real time      0.0015
    CHARGE:  cpu time     38.7507: real time     38.8384
    MIXING:  cpu time      0.1811: real time      0.1813
    --------------------------------------------
      LOOP:  cpu time    248.7967: real time    249.3140

 eigenvalue-minimisations  :   214
 total energy-change (2. order) : 0.1889556E+01  (-0.4791290E-01)
 number of electron      35.9999998 magnetization       6.9983945
 augmentation part        1.8468268 magnetization       6.9744105

 Broyden mixing:
  rms(total) = 0.57520E-01    rms(broyden)= 0.57513E-01
  rms(prec ) = 0.57751E-01
  weight for this iteration     100.00

 eigenvalues of (default mixing * dielectric matrix)
  average eigenvalue GAMMA=   1.7259
  5.4939  2.6079  1.6597  0.9126  0.9126  0.8472  0.6250  0.7483

 Free energy of the ion-electron system (eV)
  ---------------------------------------------------
  alpha Z        PSCENC =         0.08322424
  Ewald energy   TEWEN  =      3390.16529761
  -Hartree energ DENC   =     -4692.70124561
  -exchange      EXHF   =         0.00000000
  -V(xc)+E(xc)   XCENC  =       157.59355462
  PAW double counting   =      2754.83690247    -2770.08871385
  entropy T*S    EENTRO =        -0.00000000
  eigenvalues    EBANDS =      -480.11891756
  atomic energy  EATOM  =      1553.19799489
  Solvation  Ediel_sol  =        -1.16141278
  ---------------------------------------------------
  free energy    TOTEN  =       -88.19331596 eV

  energy without entropy =      -88.19331596  energy(sigma->0) =      -88.19331596


--------------------------------------------------------------------------------------------------------




--------------------------------------- Iteration      1(  10)  ---------------------------------------


    POTLOK:  cpu time    119.6886: real time    119.9218
    SETDIJ:  cpu time      0.3233: real time      0.3240
    EDDIAG:  cpu time      9.1849: real time      9.2071
  RMM-DIIS:  cpu time     69.2064: real time     69.3559
    ORTHCH:  cpu time      0.1202: real time      0.1205
       DOS:  cpu time      0.0018: real time      0.0018
    CHARGE:  cpu time     38.6750: real time     38.7654
    MIXING:  cpu time      0.1929: real time      0.1933
    --------------------------------------------
      LOOP:  cpu time    237.3932: real time    237.8897

 eigenvalue-minimisations  :   216
 total energy-change (2. order) : 0.3451971E+00  (-0.1202702E-01)
 number of electron      35.9999998 magnetization       6.3116010
 augmentation part        1.8450633 magnetization       6.2913571

 Broyden mixing:
  rms(total) = 0.45430E-01    rms(broyden)= 0.45426E-01
  rms(prec ) = 0.45643E-01
  weight for this iteration     100.00

 eigenvalues of (default mixing * dielectric matrix)
  average eigenvalue GAMMA=   1.7582
  6.4144  2.4496  1.5430  1.5430  1.0048  0.6243  0.7409  0.7409  0.7630

 Free energy of the ion-electron system (eV)
  ---------------------------------------------------
  alpha Z        PSCENC =         0.08322424
  Ewald energy   TEWEN  =      3390.16529761
  -Hartree energ DENC   =     -4693.67619165
  -exchange      EXHF   =         0.00000000
  -V(xc)+E(xc)   XCENC  =       157.97908400
  PAW double counting   =      2766.11871348    -2781.36403502
  entropy T*S    EENTRO =        -0.00000000
  eigenvalues    EBANDS =      -480.09554201
  atomic energy  EATOM  =      1553.19799489
  Solvation  Ediel_sol  =        -0.25666437
  ---------------------------------------------------
  free energy    TOTEN  =       -87.84811882 eV

  energy without entropy =      -87.84811882  energy(sigma->0) =      -87.84811882


--------------------------------------------------------------------------------------------------------




--------------------------------------- Iteration      1(  11)  ---------------------------------------


    POTLOK:  cpu time    117.9153: real time    118.1411
    SETDIJ:  cpu time      0.3284: real time      0.3291
    EDDIAG:  cpu time      9.1993: real time      9.2208
  RMM-DIIS:  cpu time     69.1817: real time     69.3302
    ORTHCH:  cpu time      0.1205: real time      0.1208
       DOS:  cpu time      0.0002: real time      0.0002
    CHARGE:  cpu time     38.6470: real time     38.6939
    MIXING:  cpu time      0.2198: real time      0.2202
    --------------------------------------------
      LOOP:  cpu time    235.6123: real time    236.0565

 eigenvalue-minimisations  :   216
 total energy-change (2. order) : 0.7613470E+00  (-0.8082431E-02)
 number of electron      35.9999998 magnetization       5.4554457
 augmentation part        1.8464949 magnetization       5.4384588

 Broyden mixing:
  rms(total) = 0.34887E-01    rms(broyden)= 0.34884E-01
  rms(prec ) = 0.34993E-01
  weight for this iteration     100.00

 eigenvalues of (default mixing * dielectric matrix)
  average eigenvalue GAMMA=   1.9039
  7.5450  2.6275  2.2978  1.7014  0.9874  0.9874  0.7770  0.7770  0.6268  0.7120

 Free energy of the ion-electron system (eV)
  ---------------------------------------------------
  alpha Z        PSCENC =         0.08322424
  Ewald energy   TEWEN  =      3390.16529761
  -Hartree energ DENC   =     -4692.70895072
  -exchange      EXHF   =         0.00000000
  -V(xc)+E(xc)   XCENC  =       158.67047572
  PAW double counting   =      2768.17542918    -2783.40180833
  entropy T*S    EENTRO =        -0.00000000
  eigenvalues    EBANDS =      -481.85215881
  atomic energy  EATOM  =      1553.19799489
  Solvation  Ediel_sol  =         0.58372438
  ---------------------------------------------------
  free energy    TOTEN  =       -87.08677184 eV

  energy without entropy =      -87.08677184  energy(sigma->0) =      -87.08677184


--------------------------------------------------------------------------------------------------------




--------------------------------------- Iteration      1(  12)  ---------------------------------------


    POTLOK:  cpu time    122.7551: real time    122.9892
    SETDIJ:  cpu time      0.3250: real time      0.3257
    EDDIAG:  cpu time      9.1885: real time      9.2097
  RMM-DIIS:  cpu time     69.2306: real time     69.3851
    ORTHCH:  cpu time      0.1208: real time      0.1212
       DOS:  cpu time      0.0004: real time      0.0004
    CHARGE:  cpu time     38.7069: real time     38.8008
    MIXING:  cpu time      0.2180: real time      0.2183
    --------------------------------------------
      LOOP:  cpu time    240.5453: real time    241.0504

 eigenvalue-minimisations  :   216
 total energy-change (2. order) : 0.8819345E+00  ( 0.6281557E-03)
 number of electron      35.9999998 magnetization       4.9108460
 augmentation part        1.8468697 magnetization       4.8955149

 Broyden mixing:
  rms(total) = 0.26254E-01    rms(broyden)= 0.26253E-01
  rms(prec ) = 0.26326E-01
  weight for this iteration     100.00

 eigenvalues of (default mixing * dielectric matrix)
  average eigenvalue GAMMA=   1.8957
  8.0221  3.1117  2.2481  1.5725  1.1009  1.1009  0.7850  0.7850  0.8086  0.6278
  0.6898

 Free energy of the ion-electron system (eV)
  ---------------------------------------------------
  alpha Z        PSCENC =         0.08322424
  Ewald energy   TEWEN  =      3390.16529761
  -Hartree energ DENC   =     -4692.48926277
  -exchange      EXHF   =         0.00000000
  -V(xc)+E(xc)   XCENC  =       159.51574221
  PAW double counting   =      2759.92717761    -2775.15678990
  entropy T*S    EENTRO =        -0.00000000
  eigenvalues    EBANDS =      -482.73558571
  atomic energy  EATOM  =      1553.19799489
  Solvation  Ediel_sol  =         1.28736450
  ---------------------------------------------------
  free energy    TOTEN  =       -86.20483730 eV

  energy without entropy =      -86.20483730  energy(sigma->0) =      -86.20483730


--------------------------------------------------------------------------------------------------------




--------------------------------------- Iteration      1(  13)  ---------------------------------------


    POTLOK:  cpu time    117.9324: real time    118.1710
    SETDIJ:  cpu time      0.3317: real time      0.3324
    EDDIAG:  cpu time      9.2005: real time      9.2218
  RMM-DIIS:  cpu time     69.0227: real time     69.1838
    ORTHCH:  cpu time      0.1189: real time      0.1193
       DOS:  cpu time      0.0014: real time      0.0014
    CHARGE:  cpu time     38.5828: real time     38.6762
    MIXING:  cpu time      0.2206: real time      0.2211
    --------------------------------------------
      LOOP:  cpu time    235.4111: real time    235.9270

 eigenvalue-minimisations  :   216
 total energy-change (2. order) : 0.4184550E+00  ( 0.3976406E-02)
 number of electron      35.9999998 magnetization       3.9435480
 augmentation part        1.8456155 magnetization       3.9291169

 Broyden mixing:
  rms(total) = 0.21870E-01    rms(broyden)= 0.21869E-01
  rms(prec ) = 0.21919E-01
  weight for this iteration     100.00

 eigenvalues of (default mixing * dielectric matrix)
  average eigenvalue GAMMA=   2.0484
  8.9033  4.0530  2.1857  2.1857  1.6356  1.0116  1.0116  0.7644  0.7644  0.7661
  0.6267  0.6733

 Free energy of the ion-electron system (eV)
  ---------------------------------------------------
  alpha Z        PSCENC =         0.08322424
  Ewald energy   TEWEN  =      3390.16529761
  -Hartree energ DENC   =     -4692.72075555
  -exchange      EXHF   =         0.00000000
  -V(xc)+E(xc)   XCENC  =       159.94194486
  PAW double counting   =      2760.07328305    -2775.31069994
  entropy T*S    EENTRO =        -0.00000000
  eigenvalues    EBANDS =      -482.55884433
  atomic energy  EATOM  =      1553.19799489
  Solvation  Ediel_sol  =         1.34217289
  ---------------------------------------------------
  free energy    TOTEN  =       -85.78638227 eV

  energy without entropy =      -85.78638227  energy(sigma->0) =      -85.78638227


--------------------------------------------------------------------------------------------------------




--------------------------------------- Iteration      1(  14)  ---------------------------------------


    POTLOK:  cpu time    121.3332: real time    121.5659
    SETDIJ:  cpu time      0.3252: real time      0.3263
    EDDIAG:  cpu time      9.1767: real time      9.2009
  RMM-DIIS:  cpu time     69.0418: real time     69.1894
    ORTHCH:  cpu time      0.1195: real time      0.1199
       DOS:  cpu time      0.0006: real time      0.0006
    CHARGE:  cpu time     38.4648: real time     38.5609
    MIXING:  cpu time      0.2281: real time      0.2285
    --------------------------------------------
      LOOP:  cpu time    238.6899: real time    239.1924

 eigenvalue-minimisations  :   216
 total energy-change (2. order) : 0.6379950E+00  ( 0.1162674E-02)
 number of electron      35.9999998 magnetization       3.5408455
 augmentation part        1.8432775 magnetization       3.5285178

 Broyden mixing:
  rms(total) = 0.18934E-01    rms(broyden)= 0.18930E-01
  rms(prec ) = 0.19025E-01
  weight for this iteration     100.00

 eigenvalues of (default mixing * dielectric matrix)
  average eigenvalue GAMMA=   2.0878
  9.6058  4.7534  2.3791  2.3791  1.3758  1.1176  1.1176  0.8137  0.8137  0.7484
  0.7484  0.6272  0.6611

 Free energy of the ion-electron system (eV)
  ---------------------------------------------------
  alpha Z        PSCENC =         0.08322424
  Ewald energy   TEWEN  =      3390.16529761
  -Hartree energ DENC   =     -4692.24217489
  -exchange      EXHF   =         0.00000000
  -V(xc)+E(xc)   XCENC  =       160.55601835
  PAW double counting   =      2763.50098730    -2778.73911329
  entropy T*S    EENTRO =        -0.00000000
  eigenvalues    EBANDS =      -482.96393716
  atomic energy  EATOM  =      1553.19799489
  Solvation  Ediel_sol  =         1.29331564
  ---------------------------------------------------
  free energy    TOTEN  =       -85.14838731 eV

  energy without entropy =      -85.14838731  energy(sigma->0) =      -85.14838731


--------------------------------------------------------------------------------------------------------




--------------------------------------- Iteration      1(  15)  ---------------------------------------


    POTLOK:  cpu time    116.2006: real time    116.4358
    SETDIJ:  cpu time      0.3230: real time      0.3237
    EDDIAG:  cpu time      9.2851: real time      9.3063
  RMM-DIIS:  cpu time     68.9404: real time     69.1004
    ORTHCH:  cpu time      0.1206: real time      0.1209
       DOS:  cpu time      0.0004: real time      0.0004
    CHARGE:  cpu time     38.6423: real time     38.6738
    MIXING:  cpu time      0.2402: real time      0.2406
    --------------------------------------------
      LOOP:  cpu time    233.7526: real time    234.2019

 eigenvalue-minimisations  :   216
 total energy-change (2. order) : 0.1819444E+00  (-0.3062884E-02)
 number of electron      35.9999998 magnetization       2.7650735
 augmentation part        1.8433835 magnetization       2.7536977

 Broyden mixing:
  rms(total) = 0.15252E-01    rms(broyden)= 0.15251E-01
  rms(prec ) = 0.15272E-01
  weight for this iteration     100.00

 eigenvalues of (default mixing * dielectric matrix)
  average eigenvalue GAMMA=   2.1046
  9.9941  5.1815  2.7072  2.1278  1.4777  1.4777  1.1605  0.9061  0.9061  0.7691
  0.7285  0.7285  0.6274  0.6722

 Free energy of the ion-electron system (eV)
  ---------------------------------------------------
  alpha Z        PSCENC =         0.08322424
  Ewald energy   TEWEN  =      3390.16529761
  -Hartree energ DENC   =     -4691.36828524
  -exchange      EXHF   =         0.00000000
  -V(xc)+E(xc)   XCENC  =       160.70236211
  PAW double counting   =      2764.98095142    -2780.20911843
  entropy T*S    EENTRO =        -0.00000000
  eigenvalues    EBANDS =      -483.75516081
  atomic energy  EATOM  =      1553.19799489
  Solvation  Ediel_sol  =         1.23629134
  ---------------------------------------------------
  free energy    TOTEN  =       -84.96644286 eV

  energy without entropy =      -84.96644286  energy(sigma->0) =      -84.96644286


--------------------------------------------------------------------------------------------------------




--------------------------------------- Iteration      1(  16)  ---------------------------------------


    POTLOK:  cpu time    116.3789: real time    116.5983
    SETDIJ:  cpu time      0.3216: real time      0.3223
    EDDIAG:  cpu time      9.1471: real time      9.1734
  RMM-DIIS:  cpu time     69.2265: real time     69.3880
    ORTHCH:  cpu time      0.1188: real time      0.1198
       DOS:  cpu time      0.0011: real time      0.0011
    CHARGE:  cpu time     38.4058: real time     38.4635
    MIXING:  cpu time      0.2498: real time      0.2504
    --------------------------------------------
      LOOP:  cpu time    233.8497: real time    234.3167

 eigenvalue-minimisations  :   216
 total energy-change (2. order) : 0.4254451E+00  (-0.1926418E-02)
 number of electron      35.9999998 magnetization       1.9949728
 augmentation part        1.8435143 magnetization       1.9847343

 Broyden mixing:
  rms(total) = 0.13706E-01    rms(broyden)= 0.13705E-01
  rms(prec ) = 0.13753E-01
  weight for this iteration     100.00

 eigenvalues of (default mixing * dielectric matrix)
  average eigenvalue GAMMA=   2.1838
 10.6261  5.9306  3.0693  2.4425  1.7538  1.5743  1.1117  1.1117  0.8558  0.8558
  0.7511  0.7511  0.6764  0.6232  0.6232

 Free energy of the ion-electron system (eV)
  ---------------------------------------------------
  alpha Z        PSCENC =         0.08322424
  Ewald energy   TEWEN  =      3390.16529761
  -Hartree energ DENC   =     -4690.36836641
  -exchange      EXHF   =         0.00000000
  -V(xc)+E(xc)   XCENC  =       161.09755658
  PAW double counting   =      2766.70844320    -2781.92587945
  entropy T*S    EENTRO =        -0.00000000
  eigenvalues    EBANDS =      -484.56140167
  atomic energy  EATOM  =      1553.19799489
  Solvation  Ediel_sol  =         1.06213325
  ---------------------------------------------------
  free energy    TOTEN  =       -84.54099776 eV

  energy without entropy =      -84.54099776  energy(sigma->0) =      -84.54099776


--------------------------------------------------------------------------------------------------------




--------------------------------------- Iteration      1(  17)  ---------------------------------------


    POTLOK:  cpu time    116.4105: real time    116.6446
    SETDIJ:  cpu time      0.3210: real time      0.3218
    EDDIAG:  cpu time      9.1826: real time      9.2058
  RMM-DIIS:  cpu time     69.0319: real time     69.1818
    ORTHCH:  cpu time      0.1212: real time      0.1215
       DOS:  cpu time      0.0002: real time      0.0002
    CHARGE:  cpu time     38.6251: real time     38.7313
    MIXING:  cpu time      0.2598: real time      0.2602
    --------------------------------------------
      LOOP:  cpu time    233.9524: real time    234.4672

 eigenvalue-minimisations  :   216
 total energy-change (2. order) : 0.3911453E+00  (-0.1794271E-02)
 number of electron      35.9999998 magnetization       1.3926389
 augmentation part        1.8434891 magnetization       1.3835058

 Broyden mixing:
  rms(total) = 0.11048E-01    rms(broyden)= 0.11046E-01
  rms(prec ) = 0.11113E-01
  weight for this iteration     100.00

 eigenvalues of (default mixing * dielectric matrix)
  average eigenvalue GAMMA=   2.2363
 11.2894  6.6441  3.6247  2.4889  1.9687  1.3598  1.1937  1.1937  0.8848  0.8848
  0.8510  0.7300  0.7300  0.6877  0.6252  0.6252

 Free energy of the ion-electron system (eV)
  ---------------------------------------------------
  alpha Z        PSCENC =         0.08322424
  Ewald energy   TEWEN  =      3390.16529761
  -Hartree energ DENC   =     -4689.97354334
  -exchange      EXHF   =         0.00000000
  -V(xc)+E(xc)   XCENC  =       161.48124601
  PAW double counting   =      2764.99391315    -2780.21011160
  entropy T*S    EENTRO =        -0.00000000
  eigenvalues    EBANDS =      -484.80269586
  atomic energy  EATOM  =      1553.19799489
  Solvation  Ediel_sol  =         0.91482241
  ---------------------------------------------------
  free energy    TOTEN  =       -84.14985248 eV

  energy without entropy =      -84.14985248  energy(sigma->0) =      -84.14985248


--------------------------------------------------------------------------------------------------------




--------------------------------------- Iteration      1(  18)  ---------------------------------------


    POTLOK:  cpu time    114.6544: real time    114.8743
    SETDIJ:  cpu time      0.3825: real time      0.3833
    EDDIAG:  cpu time      9.1030: real time      9.1253
  RMM-DIIS:  cpu time     68.8686: real time     69.0223
    ORTHCH:  cpu time      0.1205: real time      0.1209
       DOS:  cpu time      0.0005: real time      0.0005
    CHARGE:  cpu time     38.4430: real time     38.5387
    MIXING:  cpu time      0.2850: real time      0.2855
    --------------------------------------------
      LOOP:  cpu time    231.8575: real time    232.3510

 eigenvalue-minimisations  :   216
 total energy-change (2. order) : 0.2806782E+00  (-0.1060534E-02)
 number of electron      35.9999998 magnetization       0.4811526
 augmentation part        1.8429511 magnetization       0.4724971

 Broyden mixing:
  rms(total) = 0.74627E-02    rms(broyden)= 0.74616E-02
  rms(prec ) = 0.74867E-02
  weight for this iteration     100.00

 eigenvalues of (default mixing * dielectric matrix)
  average eigenvalue GAMMA=   2.5091
 13.6465  8.1330  4.5481  2.4895  2.3862  1.6242  1.6242  1.1426  1.1426  0.8632
  0.8632  0.7846  0.7266  0.7266  0.6893  0.6289  0.6350

 Free energy of the ion-electron system (eV)
  ---------------------------------------------------
  alpha Z        PSCENC =         0.08322424
  Ewald energy   TEWEN  =      3390.16529761
  -Hartree energ DENC   =     -4690.16934019
  -exchange      EXHF   =         0.00000000
  -V(xc)+E(xc)   XCENC  =       161.77636488
  PAW double counting   =      2764.63643925    -2779.85843804
  entropy T*S    EENTRO =        -0.00000000
  eigenvalues    EBANDS =      -484.49184685
  atomic energy  EATOM  =      1553.19799489
  Solvation  Ediel_sol  =         0.79112997
  ---------------------------------------------------
  free energy    TOTEN  =       -83.86917424 eV

  energy without entropy =      -83.86917424  energy(sigma->0) =      -83.86917424


--------------------------------------------------------------------------------------------------------




--------------------------------------- Iteration      1(  19)  ---------------------------------------


    POTLOK:  cpu time    116.6399: real time    116.8718
    SETDIJ:  cpu time      0.3215: real time      0.3223
    EDDIAG:  cpu time      9.1854: real time      9.2108
  RMM-DIIS:  cpu time     69.1591: real time     69.3077
    ORTHCH:  cpu time      0.1214: real time      0.1225
       DOS:  cpu time      0.0003: real time      0.0003
    CHARGE:  cpu time     38.4972: real time     38.5828
    MIXING:  cpu time      0.2915: real time      0.2926
    --------------------------------------------
      LOOP:  cpu time    234.2164: real time    234.7108

 eigenvalue-minimisations  :   216
 total energy-change (2. order) : 0.3505736E+00  ( 0.2649881E-02)
 number of electron      35.9999998 magnetization       0.2402319
 augmentation part        1.8424542 magnetization       0.2314337

 Broyden mixing:
  rms(total) = 0.71048E-02    rms(broyden)= 0.71045E-02
  rms(prec ) = 0.71927E-02
  weight for this iteration     100.00

 eigenvalues of (default mixing * dielectric matrix)
  average eigenvalue GAMMA=   2.7437
 17.6554  8.9939  5.0479  2.8337  2.4932  1.7316  1.4596  1.1962  1.1962  0.8698
  0.8698  0.9317  0.7223  0.7223  0.7328  0.6758  0.6270  0.6270

 Free energy of the ion-electron system (eV)
  ---------------------------------------------------
  alpha Z        PSCENC =         0.08322424
  Ewald energy   TEWEN  =      3390.16529761
  -Hartree energ DENC   =     -4690.49556911
  -exchange      EXHF   =         0.00000000
  -V(xc)+E(xc)   XCENC  =       162.14773889
  PAW double counting   =      2764.23414415    -2779.46455509
  entropy T*S    EENTRO =        -0.00000000
  eigenvalues    EBANDS =      -484.02719431
  atomic energy  EATOM  =      1553.19799489
  Solvation  Ediel_sol  =         0.64031809
  ---------------------------------------------------
  free energy    TOTEN  =       -83.51860063 eV

  energy without entropy =      -83.51860063  energy(sigma->0) =      -83.51860063


--------------------------------------------------------------------------------------------------------




--------------------------------------- Iteration      1(  20)  ---------------------------------------


    POTLOK:  cpu time    111.5348: real time    111.7471
    SETDIJ:  cpu time      0.3198: real time      0.3204
    EDDIAG:  cpu time      9.2235: real time      9.2447
  RMM-DIIS:  cpu time     69.1650: real time     69.3240
    ORTHCH:  cpu time      0.1282: real time      0.1286
       DOS:  cpu time      0.0004: real time      0.0004
    CHARGE:  cpu time     38.4132: real time     38.5007
    MIXING:  cpu time      0.3022: real time      0.3027
    --------------------------------------------
      LOOP:  cpu time    229.0870: real time    229.5685

 eigenvalue-minimisations  :   216
 total energy-change (2. order) : 0.8137922E-01  (-0.1411210E-02)
 number of electron      35.9999998 magnetization       0.1484435
 augmentation part        1.8424585 magnetization       0.1402384

 Broyden mixing:
  rms(total) = 0.47610E-02    rms(broyden)= 0.47604E-02
  rms(prec ) = 0.48008E-02
  weight for this iteration     100.00

 eigenvalues of (default mixing * dielectric matrix)
  average eigenvalue GAMMA=   2.8122
 20.1516  9.2245  5.1895  2.9073  2.5386  1.8118  1.4146  1.4146  1.2595  0.9260
  0.9260  0.8396  0.8396  0.7186  0.7186  0.6429  0.6429  0.6327  0.6327

 Free energy of the ion-electron system (eV)
  ---------------------------------------------------
  alpha Z        PSCENC =         0.08322424
  Ewald energy   TEWEN  =      3390.16529761
  -Hartree energ DENC   =     -4690.22790629
  -exchange      EXHF   =         0.00000000
  -V(xc)+E(xc)   XCENC  =       162.21943751
  PAW double counting   =      2764.39625333    -2779.62266013
  entropy T*S    EENTRO =        -0.00000000
  eigenvalues    EBANDS =      -484.27963798
  atomic energy  EATOM  =      1553.19799489
  Solvation  Ediel_sol  =         0.63077540
  ---------------------------------------------------
  free energy    TOTEN  =       -83.43722141 eV

  energy without entropy =      -83.43722141  energy(sigma->0) =      -83.43722141


--------------------------------------------------------------------------------------------------------




--------------------------------------- Iteration      1(  21)  ---------------------------------------


    POTLOK:  cpu time    113.2199: real time    113.4459
    SETDIJ:  cpu time      0.3254: real time      0.3260
    EDDIAG:  cpu time      9.1855: real time      9.2097
  RMM-DIIS:  cpu time     68.7959: real time     68.9431
    ORTHCH:  cpu time      0.1194: real time      0.1208
       DOS:  cpu time      0.0012: real time      0.0012
    CHARGE:  cpu time     38.5086: real time     38.6138
    MIXING:  cpu time      0.3123: real time      0.3129
    --------------------------------------------
      LOOP:  cpu time    230.4683: real time    230.9735

 eigenvalue-minimisations  :   216
 total energy-change (2. order) : 0.4649876E-01  (-0.7863030E-04)
 number of electron      35.9999998 magnetization       0.0658266
 augmentation part        1.8425833 magnetization       0.0579297

 Broyden mixing:
  rms(total) = 0.23270E-02    rms(broyden)= 0.23263E-02
  rms(prec ) = 0.23525E-02
  weight for this iteration     100.00

 eigenvalues of (default mixing * dielectric matrix)
  average eigenvalue GAMMA=   2.8957
 22.5831  9.4065  5.3506  3.0968  2.2941  2.2941  1.4854  1.4854  1.2410  1.2410
  0.9472  0.8556  0.8556  0.7640  0.7272  0.7272  0.6529  0.6263  0.6400  0.6400

 Free energy of the ion-electron system (eV)
  ---------------------------------------------------
  alpha Z        PSCENC =         0.08322424
  Ewald energy   TEWEN  =      3390.16529761
  -Hartree energ DENC   =     -4689.94925195
  -exchange      EXHF   =         0.00000000
  -V(xc)+E(xc)   XCENC  =       162.25132845
[...]

 Broyden mixing:
  rms(total) = 0.11515E-02    rms(broyden)= 0.11510E-02
  rms(prec ) = 0.11630E-02
  weight for this iteration     100.00

 eigenvalues of (default mixing * dielectric matrix)
  average eigenvalue GAMMA=   1.6964
  1.6964

 Free energy of the ion-electron system (eV)
  ---------------------------------------------------
  alpha Z        PSCENC =         0.08322424
  Ewald energy   TEWEN  =      3355.39840352
  -Hartree energ DENC   =     -4656.13091172
  -exchange      EXHF   =         0.00000000
  -V(xc)+E(xc)   XCENC  =       161.97175301
  PAW double counting   =      2742.53303789    -2757.66600596
  entropy T*S    EENTRO =        -0.00000000
  eigenvalues    EBANDS =      -484.23930307
  atomic energy  EATOM  =      1553.19799489
  Solvation  Ediel_sol  =         1.14572477
  ---------------------------------------------------
  free energy    TOTEN  =       -83.70608242 eV

  energy without entropy =      -83.70608242  energy(sigma->0) =      -83.70608242


--------------------------------------------------------------------------------------------------------




--------------------------------------- Iteration     20(   3)  ---------------------------------------


    POTLOK:  cpu time    104.8112: real time    105.0168
    SETDIJ:  cpu time      0.3413: real time      0.3420
    EDDIAG:  cpu time      9.3044: real time      9.3272
  RMM-DIIS:  cpu time     47.3442: real time     47.4523
    ORTHCH:  cpu time      0.1185: real time      0.1189
       DOS:  cpu time      0.0030: real time      0.0030
    CHARGE:  cpu time     38.9117: real time     38.5625
    MIXING:  cpu time      0.1478: real time      0.1480
    --------------------------------------------
      LOOP:  cpu time    200.9821: real time    200.9706

 eigenvalue-minimisations  :   120
 total energy-change (2. order) :-0.1387446E-04  (-0.2293097E-05)
 number of electron      36.0000001 magnetization       0.0000000
 augmentation part        1.8120633 magnetization       0.0000000

 Broyden mixing:
  rms(total) = 0.39474E-03    rms(broyden)= 0.39457E-03
  rms(prec ) = 0.39871E-03
  weight for this iteration     100.00

 eigenvalues of (default mixing * dielectric matrix)
  average eigenvalue GAMMA=   1.7760
  1.1313  2.4207

 Free energy of the ion-electron system (eV)
  ---------------------------------------------------
  alpha Z        PSCENC =         0.08322424
  Ewald energy   TEWEN  =      3355.39840352
  -Hartree energ DENC   =     -4656.11990416
  -exchange      EXHF   =         0.00000000
  -V(xc)+E(xc)   XCENC  =       161.97108779
  PAW double counting   =      2742.43673211    -2757.56951175
  entropy T*S    EENTRO =        -0.00000000
  eigenvalues    EBANDS =      -484.25017220
  atomic energy  EATOM  =      1553.19799489
  Solvation  Ediel_sol  =         1.14604926
  ---------------------------------------------------
  free energy    TOTEN  =       -83.70609629 eV

  energy without entropy =      -83.70609629  energy(sigma->0) =      -83.70609629


--------------------------------------------------------------------------------------------------------




--------------------------------------- Iteration     20(   4)  ---------------------------------------


    POTLOK:  cpu time    101.7996: real time    101.9915
    SETDIJ:  cpu time      0.3331: real time      0.3338
    EDDIAG:  cpu time      9.2291: real time      9.2520
  RMM-DIIS:  cpu time     42.6485: real time     42.7471
    ORTHCH:  cpu time      0.1229: real time      0.1232
       DOS:  cpu time      0.0004: real time      0.0004
    --------------------------------------------
      LOOP:  cpu time    154.1335: real time    154.4479

 eigenvalue-minimisations  :   108
 total energy-change (2. order) :-0.2898699E-05  (-0.5685840E-06)
 number of electron      36.0000001 magnetization       0.0000000
 augmentation part        1.8120633 magnetization       0.0000000

 Free energy of the ion-electron system (eV)
  ---------------------------------------------------
  alpha Z        PSCENC =         0.08322424
  Ewald energy   TEWEN  =      3355.39840352
  -Hartree energ DENC   =     -4656.11392808
  -exchange      EXHF   =         0.00000000
  -V(xc)+E(xc)   XCENC  =       161.97079984
  PAW double counting   =      2742.39719362    -2757.52991937
  entropy T*S    EENTRO =        -0.00000000
  eigenvalues    EBANDS =      -484.25577665
  atomic energy  EATOM  =      1553.19799489
  Solvation  Ediel_sol  =         1.14590878
  ---------------------------------------------------
  free energy    TOTEN  =       -83.70609919 eV

  energy without entropy =      -83.70609919  energy(sigma->0) =      -83.70609919


--------------------------------------------------------------------------------------------------------




 average (electrostatic) potential at core
  the test charge radii are     0.6991  0.7215  0.5201
  (the norm of the test charge is              1.0000)
       1 -61.6115       2 -61.6115       3 -61.6115       4 -61.6115       5 -84.1758
       6 -84.1758       7 -44.2494       8 -44.0406       9 -44.2494      10 -44.0406
      11 -44.2496      12 -44.0411      13 -44.2496      14 -44.0411
 
 
 
 E-fermi :  -5.4640     XC(G=0):  -0.0226     alpha+bet : -0.0121

 Fermi energy:        -5.4640294766

 spin component 1

 k-point     1 :       0.0000    0.0000    0.0000
  band No.  band energies     occupation 
      1     -27.7029      1.00000
      2     -26.7183      1.00000
      3     -20.2307      1.00000
      4     -18.0335      1.00000
      5     -17.0375      1.00000
      6     -14.8125      1.00000
      7     -12.8479      1.00000
      8     -12.1343      1.00000
      9     -12.0759      1.00000
     10     -11.9380      1.00000
     11     -11.2179      1.00000
     12      -9.9556      1.00000
     13      -9.2127      1.00000
     14      -9.1086      1.00000
     15      -8.9759      1.00000
     16      -7.4573      1.00000
     17      -6.9014      1.00000
     18      -5.7670      1.00000
     19      -0.0128      0.00000
     20       0.0567      0.00000
     21       0.0852      0.00000
     22       0.0872      0.00000
     23       0.0874      0.00000
     24       0.0897      0.00000
     25       0.0902      0.00000
     26       0.1508      0.00000
     27       0.1716      0.00000
     28       0.1770      0.00000
     29       0.1772      0.00000
     30       0.1814      0.00000
     31       0.1815      0.00000
     32       0.1823      0.00000
     33       0.1837      0.00000
     34       0.1838      0.00000
     35       0.1841      0.00000
     36       0.1843      0.00000
 Fermi energy:        -5.4640294766

 spin component 2

 k-point     1 :       0.0000    0.0000    0.0000
  band No.  band energies     occupation 
      1     -27.7029      1.00000
      2     -26.7183      1.00000
      3     -20.2307      1.00000
      4     -18.0335      1.00000
      5     -17.0375      1.00000
      6     -14.8125      1.00000
      7     -12.8479      1.00000
      8     -12.1343      1.00000
      9     -12.0759      1.00000
     10     -11.9380      1.00000
     11     -11.2179      1.00000
     12      -9.9556      1.00000
     13      -9.2127      1.00000
     14      -9.1086      1.00000
     15      -8.9759      1.00000
     16      -7.4573      1.00000
     17      -6.9014      1.00000
     18      -5.7670      1.00000
     19      -0.0128      0.00000
     20       0.0567      0.00000
     21       0.0852      0.00000
     22       0.0872      0.00000
     23       0.0874      0.00000
     24       0.0897      0.00000
     25       0.0902      0.00000
     26       0.1508      0.00000
     27       0.1715      0.00000
     28       0.1770      0.00000
     29       0.1772      0.00000
     30       0.1814      0.00000
     31       0.1816      0.00000
     32       0.1824      0.00000
     33       0.1837      0.00000
     34       0.1838      0.00000
     35       0.1841      0.00000
     36       0.1842      0.00000


--------------------------------------------------------------------------------------------------------


 soft charge-density along one line, spin component           1
         0         1         2         3         4         5         6         7         8         9
 total charge-density along one line
 
 soft charge-density along one line, spin component           2
         0         1         2         3         4         5         6         7         8         9
 total charge-density along one line
 
 pseudopotential strength for first ion, spin component:           1
 10.479  13.934   0.014  -0.006   0.006  -0.028   0.013  -0.014
 13.934  18.528   0.018  -0.008   0.008  -0.036   0.016  -0.018
  0.014   0.018  -4.379  -0.013   0.016   8.514   0.020  -0.024
 -0.006  -0.008  -0.013  -4.398  -0.003   0.020   8.543   0.004
  0.006   0.008   0.016  -0.003  -4.392  -0.024   0.004   8.533
 -0.028  -0.036   8.514   0.020  -0.024 -18.830  -0.026   0.032
  0.013   0.016   0.020   8.543   0.004  -0.026 -18.866  -0.004
 -0.014  -0.018  -0.024   0.004   8.533   0.032  -0.004 -18.852
 pseudopotential strength for first ion, spin component:           2
 10.479  13.934   0.014  -0.006   0.006  -0.028   0.013  -0.014
 13.934  18.528   0.018  -0.008   0.008  -0.036   0.016  -0.018
  0.014   0.018  -4.379  -0.013   0.016   8.514   0.020  -0.024
 -0.006  -0.008  -0.013  -4.398  -0.003   0.020   8.543   0.004
  0.006   0.008   0.016  -0.003  -4.392  -0.024   0.004   8.533
 -0.028  -0.036   8.514   0.020  -0.024 -18.830  -0.026   0.032
  0.013   0.016   0.020   8.543   0.004  -0.026 -18.866  -0.004
 -0.014  -0.018  -0.024   0.004   8.533   0.032  -0.004 -18.852
 total augmentation occupancy for first ion, spin component:           1
  8.328  -3.766   0.032  -0.012   0.022   0.035  -0.018   0.009
 -3.766   1.769  -0.103   0.046  -0.052  -0.031   0.016  -0.008
  0.032  -0.103   1.478   0.102  -0.123   0.144  -0.002   0.001
 -0.012   0.046   0.102   1.638   0.028  -0.002   0.139  -0.001
  0.022  -0.052  -0.123   0.028   1.607   0.002  -0.001   0.143
  0.035  -0.031   0.144  -0.002   0.002   0.016  -0.002   0.002
 -0.018   0.016  -0.002   0.139  -0.001  -0.002   0.013  -0.001
  0.009  -0.008   0.001  -0.001   0.143   0.002  -0.001   0.014
 total augmentation occupancy for first ion, spin component:           2
 -0.000   0.000  -0.000  -0.000   0.000  -0.000  -0.000   0.000
  0.000  -0.000   0.000   0.000  -0.000   0.000   0.000  -0.000
 -0.000   0.000  -0.000  -0.000  -0.000  -0.000  -0.000  -0.000
 -0.000   0.000  -0.000  -0.000   0.000   0.000  -0.000   0.000
  0.000  -0.000  -0.000   0.000  -0.000  -0.000  -0.000  -0.000
 -0.000   0.000  -0.000   0.000  -0.000  -0.000  -0.000  -0.000
 -0.000   0.000  -0.000  -0.000  -0.000  -0.000  -0.000  -0.000
  0.000  -0.000  -0.000   0.000  -0.000  -0.000  -0.000  -0.000


------------------------ aborting loop because EDIFF is reached ----------------------------------------


    CHARGE:  cpu time      5.3664: real time      5.3790
    FORLOC:  cpu time      0.3279: real time      0.3285
    FORNL :  cpu time      3.3864: real time      3.3941
    STRESS:  cpu time    125.0980: real time    125.3709
    FORCOR:  cpu time      8.9413: real time      8.9567
    FORHAR:  cpu time      1.0327: real time      1.0345
    MIXING:  cpu time      0.1247: real time      0.1250
    OFIELD:  cpu time      0.0001: real time      0.0000

 ---------------------------------------------------------------------------------------------

         DFTD3 V3.0 Rev 1        
 Edisp (eV)   -0.07987

 E6    (eV) :    -0.0640
 E8    (eV) :    -0.0159
 % E8        : 19.89
    FORVDW:  cpu time      0.0069: real time      0.0070

  FORCE on cell =-STRESS in cart. coord.  units (eV):
  Direction    XX          YY          ZZ          XY          YZ          ZX
  --------------------------------------------------------------------------------------
  Alpha Z     0.08322     0.08322     0.08322
  Ewald    1355.49806  1589.37002   410.53005    -0.01077    -0.00175   -53.86136
  Hartree  1791.22847  1832.93042  1031.94580     0.00027     0.00009   -20.20098
  E(xc)    -148.17418  -149.40215  -148.18277     0.00005     0.00005     0.39051
  Local   -3540.54349 -3764.84588 -1833.19299     0.00601     0.00158    58.07213
  n-local   -83.72690   -78.27489   -86.53512    -0.00076    -0.00028    -1.37445
  augment    14.16113    10.87081    14.84349    -0.00003     0.00015     1.29868
  Kinetic   609.86238   560.31884   610.28601     0.00209     0.00116    16.25648
  Fock        0.00000     0.00000     0.00000     0.00000     0.00000     0.00000
  vdW        -0.01017    -0.02187    -0.00371     0.00000    -0.00000    -0.00231
  -------------------------------------------------------------------------------------
  Total      -1.62146     1.02852    -0.22602     0.00000     0.00000     0.57870
  in kB      -0.04059     0.02575    -0.00566     0.00000     0.00000     0.01449
  external pressure =       -0.01 kB  Pullay stress =        0.00 kB


 VOLUME and BASIS-vectors are now :
 -----------------------------------------------------------------------------
  energy-cutoff  :      500.00
  volume of cell :    64000.00
      direct lattice vectors                 reciprocal lattice vectors
    40.000000000  0.000000000  0.000000000     0.025000000  0.000000000  0.000000000
     0.000000000 40.000000000  0.000000000     0.000000000  0.025000000  0.000000000
     0.000000000  0.000000000 40.000000000     0.000000000  0.000000000  0.025000000

  length of vectors
    40.000000000 40.000000000 40.000000000     0.025000000  0.025000000  0.025000000


 FORCES acting on ions
    electron-ion (+dipol)            ewald-force                    non-local-force                 convergence-correction
 -----------------------------------------------------------------------------------------------
   -.842E+02 0.205E+03 -.667E+02   0.820E+02 -.209E+03 0.686E+02   0.251E+01 0.498E+01 -.221E+01   -.825E-03 -.203E-03 -.411E-03
   0.841E+02 0.205E+03 0.667E+02   -.820E+02 -.209E+03 -.686E+02   -.251E+01 0.498E+01 0.221E+01   0.825E-03 -.203E-03 0.411E-03
   0.842E+02 -.205E+03 0.667E+02   -.820E+02 0.209E+03 -.686E+02   -.251E+01 -.498E+01 0.221E+01   0.825E-03 0.203E-03 0.411E-03
   -.841E+02 -.205E+03 -.667E+02   0.820E+02 0.209E+03 0.686E+02   0.251E+01 -.498E+01 -.221E+01   -.825E-03 0.203E-03 -.411E-03
   0.331E+03 0.495E-01 -.126E+03   -.369E+03 -.136E-01 0.152E+03   0.356E+02 -.108E-18 -.248E+02   0.126E-02 0.259E-06 0.226E-02
   -.331E+03 -.495E-01 0.126E+03   0.369E+03 0.136E-01 -.152E+03   -.356E+02 0.108E-18 0.248E+02   -.126E-02 -.259E-06 -.226E-02
   0.457E+02 0.787E+02 -.201E+02   -.487E+02 -.830E+02 0.223E+02   0.294E+01 0.476E+01 -.221E+01   0.178E-03 0.465E-04 0.516E-04
   0.197E+02 0.318E+02 0.844E+02   -.201E+02 -.318E+02 -.900E+02   0.352E+00 0.198E+00 0.579E+01   0.202E-03 0.614E-04 0.649E-04
   -.457E+02 -.787E+02 0.201E+02   0.487E+02 0.830E+02 -.223E+02   -.294E+01 -.476E+01 0.221E+01   -.178E-03 -.465E-04 -.516E-04
   -.197E+02 -.318E+02 -.844E+02   0.201E+02 0.318E+02 0.900E+02   -.352E+00 -.198E+00 -.579E+01   -.202E-03 -.614E-04 -.649E-04
   0.457E+02 -.786E+02 -.201E+02   -.487E+02 0.830E+02 0.223E+02   0.294E+01 -.476E+01 -.221E+01   0.178E-03 -.465E-04 0.516E-04
   0.197E+02 -.318E+02 0.844E+02   -.201E+02 0.318E+02 -.900E+02   0.352E+00 -.198E+00 0.579E+01   0.201E-03 -.613E-04 0.649E-04
   -.457E+02 0.786E+02 0.201E+02   0.487E+02 -.830E+02 -.223E+02   -.294E+01 0.476E+01 0.221E+01   -.178E-03 0.465E-04 -.516E-04
   -.197E+02 0.318E+02 -.844E+02   0.201E+02 -.318E+02 0.900E+02   -.352E+00 0.198E+00 -.579E+01   -.201E-03 0.613E-04 -.649E-04
 -----------------------------------------------------------------------------------------------
   -.861E-12 -.516E-13 -.456E-09   -.213E-13 -.142E-13 -.284E-13   -.555E-16 0.833E-15 0.888E-15   0.192E-12 0.277E-11 0.719E-10
 
 
 POSITION                                       TOTAL-FORCE (eV/Angst)
 -----------------------------------------------------------------------------------
     20.72467     18.82749     20.21880         0.000550     -0.014304      0.007923
     19.27541     18.82745     19.78120        -0.000550     -0.014304     -0.007923
     19.27533     21.17251     19.78120        -0.000550      0.014304     -0.007923
     20.72459     21.17255     20.21880         0.000550      0.014304      0.007923
     18.60638     19.99996     20.26301        -0.015123      0.000000      0.007742
     21.39362     20.00004     19.73699         0.015123     -0.000000     -0.007742
     18.74295     17.96769     20.19151         0.006615      0.004413      0.007181
     19.21432     18.80118     18.68348         0.010941     -0.010750      0.003912
     21.25705     22.03231     19.80849        -0.006615     -0.004413     -0.007181
     20.78568     21.19882     21.31652        -0.010941      0.010750     -0.003912
     18.74283     22.03223     20.19155         0.006615     -0.004413      0.007181
     19.21420     21.19882     18.68352         0.010941      0.010750      0.003912
     21.25717     17.96777     19.80845        -0.006615      0.004413     -0.007181
     20.78580     18.80118     21.31648        -0.010941     -0.010750     -0.003912
 -----------------------------------------------------------------------------------
    total drift:                               -0.000000      0.000000     -0.000000


--------------------------------------------------------------------------------------------------------



  FREE ENERGIE OF THE ION-ELECTRON SYSTEM (eV)
  ---------------------------------------------------
  free  energy   TOTEN  =       -83.78597243 eV

  energy  without entropy=      -83.78597243  energy(sigma->0) =      -83.78597243
 
 d Force = 0.1070553E-03[ 0.710E-04, 0.143E-03]  d Energy = 0.1100485E-03-0.299E-05
 d Force =-0.5864485E-02[-0.559E-02,-0.614E-02]  d Ewald  =-0.5864437E-02-0.474E-07


--------------------------------------------------------------------------------------------------------


    POTLOK:  cpu time     96.7365: real time     96.9135


--------------------------------------------------------------------------------------------------------


 Conjugate gradient step on ions:
 trial-energy change:   -0.000110  1 .order   -0.000107   -0.000143   -0.000071
  (g-gl).g = 0.191E-03      g.g   = 0.217E-03  gl.gl    = 0.266E-03
 g(Force)  = 0.217E-03   g(Stress)= 0.000E+00 ortho     = 0.272E-04
 gamma     =   0.71840
 trial     =   0.60515
 opt step  =   1.20003  (harmonic =   1.20003) maximal distance =0.00178934
 next E    =   -83.786004   (d E  =  -0.00014)


--------------------------------------------------------------------------------------------------------


  
 reached required accuracy - stopping structural energy minimisation
 writing wavefunctions
     LOOP+:  cpu time    997.2334: real time    999.1923
    4ORBIT:  cpu time      0.0000: real time      0.0000

 total amount of memory used by VASP MPI-rank0  1085501. kBytes
=======================================================================

   base      :      30000. kBytes
   nonlr-proj:        902. kBytes
   fftplans  :     212203. kBytes
   grid      :     807723. kBytes
   one-center:         12. kBytes
   wavefun   :      34661. kBytes
 
  
  
 General timing and accounting informations for this job:
 ========================================================
  
                  Total CPU time used (sec):    41014.035
                            User time (sec):    37829.922
                          System time (sec):     3184.113
                         Elapsed time (sec):    41099.354
  
                   Maximum memory used (kb):     6784860.
                   Average memory used (kb):          N/A
  
                          Minor page faults:    720023268
                          Major page faults:           30
                 Voluntary context switches:       749769
