 vasp.6.4.2 20Jul23 (build Sep 06 2024 14:39:43) complex                        
  
 executed on             LinuxIFC date 2025.09.04  10:11:30
 running   90 mpi-ranks, on    6 nodes
 distrk:  each k-point on   90 cores,    1 groups
 distr:  one band on NCORE=  30 cores,    3 groups


--------------------------------------------------------------------------------------------------------


 INCAR:
   SYSTEM = 015_red
   ISTART = 1
   ICHARG = 2
   INIWAV = 1
   LHFCALC = .TRUE.
   HFSCREEN = 0.2
   NELM = 500
   ALGO = Damped
   ISPIN = 2
   EDIFF = 1E-05
   ISMEAR = 0
   SIGMA = 0.05
   PREC = accurate
   ENCUT = 500
   LREAL = auto  	
   LDIAG = .FALSE.
   LWAVE = .TRUE.
   LCHARG = .FALSE.
   LAECHG = .FALSE.
   LVHAR = .FALSE.
   LVTOT = .FALSE.
   EDIFFG = -0.02
   IBRION = 2
   NSW = 500
   ISIF = 2
   POTIM = 0.5
   IVDW = 12
   VDW_A1 = 0.383
   VDW_S8 = 2.310
   VDW_A2 = 5.685
   LPLANE = .TRUE.
   NCORE = 30
   LSCALU = .FALSE.
   NSIM = 4
   LSOL = .TRUE.
   EB_K = 35.6880
   LAMBDA_D_K = 3.04
   TAU = 0

 POTCAR:    PAW_PBE C 08Apr2002                   
 POTCAR:    PAW_PBE H 15Jun2001                   
 -----------------------------------------------------------------------------
|                                                                             |
|           W    W    AA    RRRRR   N    N  II  N    N   GGGG   !!!           |
|           W    W   A  A   R    R  NN   N  II  NN   N  G    G  !!!           |
|           W    W  A    A  R    R  N N  N  II  N N  N  G       !!!           |
|           W WW W  AAAAAA  RRRRR   N  N N  II  N  N N  G  GGG   !            |
|           WW  WW  A    A  R   R   N   NN  II  N   NN  G    G                |
|           W    W  A    A  R    R  N    N  II  N    N   GGGG   !!!           |
|                                                                             |
|     You use a magnetic or noncollinear calculation, but did not specify     |
|     the initial magnetic moment with the MAGMOM tag. Note that a            |
|     default of 1 will be used for all atoms. This ferromagnetic setup       |
|     may break the symmetry of the crystal, in particular it may rule        |
|     out finding an antiferromagnetic solution. Thence, we recommend         |
|     setting the initial magnetic moment manually or verifying carefully     |
|     that this magnetic setup is desired.                                    |
|                                                                             |
 -----------------------------------------------------------------------------

 -----------------------------------------------------------------------------
|                                                                             |
|           W    W    AA    RRRRR   N    N  II  N    N   GGGG   !!!           |
|           W    W   A  A   R    R  NN   N  II  NN   N  G    G  !!!           |
|           W    W  A    A  R    R  N N  N  II  N N  N  G       !!!           |
|           W WW W  AAAAAA  RRRRR   N  N N  II  N  N N  G  GGG   !            |
|           WW  WW  A    A  R   R   N   NN  II  N   NN  G    G                |
|           W    W  A    A  R    R  N    N  II  N    N   GGGG   !!!           |
|                                                                             |
|     For optimal performance we recommend to set                             |
|       NCORE = 2 up to number-of-cores-per-socket                            |
|     NCORE specifies how many cores store one orbital (NPAR=cpu/NCORE).      |
|     This setting can greatly improve the performance of VASP for DFT.       |
|     The default, NCORE=1 might be grossly inefficient on modern             |
|     multi-core architectures or massively parallel machines. Do your        |
|     own testing! More info at https://www.vasp.at/wiki/index.php/NCORE      |
|     Unfortunately you need to use the default for GW and RPA                |
|     calculations (for HF NCORE is supported but not extensively tested      |
|     yet).                                                                   |
|                                                                             |
 -----------------------------------------------------------------------------

 POTCAR:    PAW_PBE C 08Apr2002                   
   SHA256 =  253f7b50bb8d59471dbedb8285d89021f4a42ed1a2c5d38a03a736e69125dd95 C/POTCAR              
   COPYR  = (c) Copyright 08Apr2002 Georg Kresse                                                    
   COPYR  = This file is part of the software VASP. Any use, copying, and all other rights are regul
   COPYR  = If you do not have a valid VASP license, you may not use, copy or distribute this file. 
   VRHFIN =C: s2p2                                                                                  
   LEXCH  = PE                                                                                      
   EATOM  =   147.1560 eV,   10.8157 Ry                                                             
                                                                                                    
   TITEL  = PAW_PBE C 08Apr2002                                                                     
   LULTRA =        F    use ultrasoft PP ?                                                          
   IUNSCR =        1    unscreen: 0-lin 1-nonlin 2-no                                               
   RPACOR =    1.200    partial core radius                                                         
   POMASS =   12.011; ZVAL   =    4.000    mass and valenz                                          
   RCORE  =    1.500    outmost cutoff radius                                                       
   RWIGS  =    1.630; RWIGS  =    0.863    wigner-seitz radius (au A)                               
   ENMAX  =  400.000; ENMIN  =  300.000 eV                                                          
   ICORE  =        2    local potential                                                             
   LCOR   =        T    correct aug charges                                                         
   LPAW   =        T    paw PP                                                                      
   EAUG   =  644.873                                                                                
   DEXC   =    0.000                                                                                
   RMAX   =    1.529    core radius for proj-oper                                                   
   RAUG   =    1.300    factor for augmentation sphere                                              
   RDEP   =    1.501    radius for radial grids                                                     
   RDEPT  =    1.300    core radius for aug-charge                                                  
                                                                                                    
   Atomic configuration                                                                             
    4 entries                                                                                       
     n  l   j            E        occ.                                                              
     1  0  0.50      -273.3789   2.0000                                                             
     2  0  0.50       -13.7508   2.0000                                                             
     2  1  0.50        -5.2854   2.0000                                                             
     3  2  1.50        -5.4423   0.0000                                                             
   Description                                                                                      
     l       E           TYP  RCUT    TYP  RCUT                                                     
     0    -13.7508458     23  1.200                                                                 
     0     -8.2022199     23  1.200                                                                 
     1     -5.2854383     23  1.500                                                                 
     1     34.0145650     23  1.500                                                                 
     2     -5.4423304      7  1.500                                                                 
  local pseudopotential read in
  partial core-charges read in
  partial kinetic energy density read in
  atomic valenz-charges read in
  non local Contribution for L=           0  read in
    real space projection operators read in
  non local Contribution for L=           0  read in
    real space projection operators read in
  non local Contribution for L=           1  read in
    real space projection operators read in
  non local Contribution for L=           1  read in
    real space projection operators read in
    PAW grid and wavefunctions read in
 
   number of l-projection  operators is LMAX  =           4
   number of lm-projection operators is LMMAX =           8
 
 POTCAR:    PAW_PBE H 15Jun2001                   
   SHA256 =  030f79b5d3ab3cf0e668861823c8fb652ff669f3e15e46930bd03bfd63a607b6 H/POTCAR              
   COPYR  = (c) Copyright 15Jun2001 Georg Kresse                                                    
   COPYR  = This file is part of the software VASP. Any use, copying, and all other rights are regul
   COPYR  = If you do not have a valid VASP license, you may not use, copy or distribute this file. 
   VRHFIN =H: ultrasoft test                                                                        
   LEXCH  = PE                                                                                      
   EATOM  =    12.4884 eV,    0.9179 Ry                                                             
                                                                                                    
   TITEL  = PAW_PBE H 15Jun2001                                                                     
   LULTRA =        F    use ultrasoft PP ?                                                          
   IUNSCR =        0    unscreen: 0-lin 1-nonlin 2-no                                               
   RPACOR =    0.000    partial core radius                                                         
   POMASS =    1.000; ZVAL   =    1.000    mass and valenz                                          
   RCORE  =    1.100    outmost cutoff radius                                                       
   RWIGS  =    0.700; RWIGS  =    0.370    wigner-seitz radius (au A)                               
   ENMAX  =  250.000; ENMIN  =  200.000 eV                                                          
   RCLOC  =    0.701    cutoff for local pot                                                        
   LCOR   =        T    correct aug charges                                                         
   LPAW   =        T    paw PP                                                                      
   EAUG   =  400.000                                                                                
   RMAX   =    1.123    core radius for proj-oper                                                   
   RAUG   =    1.200    factor for augmentation sphere                                              
   RDEP   =    1.112    radius for radial grids                                                     
   RDEPT  =    0.926    core radius for aug-charge                                                  
                                                                                                    
   Atomic configuration                                                                             
    2 entries                                                                                       
     n  l   j            E        occ.                                                              
     1  0  0.50        -6.4927   1.0000                                                             
     2  1  0.50        -3.4015   0.0000                                                             
   Description                                                                                      
     l       E           TYP  RCUT    TYP  RCUT                                                     
     0     -6.4927494     23  1.100                                                                 
     0      6.8029130     23  1.100                                                                 
     1     -4.0817478     23  1.100                                                                 
  local pseudopotential read in
  atomic valenz-charges read in
  non local Contribution for L=           0  read in
    real space projection operators read in
  non local Contribution for L=           0  read in
    real space projection operators read in
  non local Contribution for L=           1  read in
    real space projection operators read in
    PAW grid and wavefunctions read in
 
   number of l-projection  operators is LMAX  =           3
   number of lm-projection operators is LMMAX =           5
 
 Optimization of the real space projectors (new method)

 maximal supplied QI-value         = 25.13
 optimisation between [QCUT,QGAM] = [ 11.31, 22.87] = [ 35.82,146.48] Ry 
 Optimized for a Real-space Cutoff    1.03 Angstroem

   l    n(q)    QCUT    max X(q) W(low)/X(q) W(high)/X(q)  e(spline) 
   0      7    11.310   115.676    0.20E-03    0.90E-03    0.20E-06
   0      7    11.310    87.132    0.20E-03    0.89E-03    0.19E-06
   1      6    11.310     4.429    0.16E-03    0.28E-03    0.12E-06
   1      6    11.310     2.733    0.12E-03    0.21E-03    0.99E-07
 Optimization of the real space projectors (new method)

 maximal supplied QI-value         = 34.20
 optimisation between [QCUT,QGAM] = [ 11.29, 22.57] = [ 35.68,142.71] Ry 
 Optimized for a Real-space Cutoff    1.20 Angstroem

   l    n(q)    QCUT    max X(q) W(low)/X(q) W(high)/X(q)  e(spline) 
   0      8    11.287    19.460    0.22E-03    0.50E-03    0.19E-06
   0      8    11.287    12.209    0.21E-03    0.48E-03    0.18E-06
   1      8    11.287     4.655    0.21E-03    0.11E-04    0.26E-06
  PAW_PBE C 08Apr2002                   :
 energy of atom  1       EATOM= -147.1560
 kinetic energy error for atom=    0.0076 (will be added to EATOM!!)
  PAW_PBE H 15Jun2001                   :
 energy of atom  2       EATOM=  -12.4884
 kinetic energy error for atom=    0.0020 (will be added to EATOM!!)
 
 
 POSCAR: C H
  positions in direct lattice
  velocities in cartesian coordinates
 exchange correlation table for  LEXCH =        8
   RHO(1)=    0.500       N(1)  =     2000
   RHO(2)=  100.500       N(2)  =     4000
 


--------------------------------------------------------------------------------------------------------


 ion  position               nearest neighbor table
   1  0.560  0.480  0.517-  26 1.08   6 1.39   2 1.40
   2  0.532  0.490  0.499-   1 1.40   3 1.40   7 1.48
   3  0.535  0.519  0.480-  18 1.08   4 1.39   2 1.40
   4  0.565  0.537  0.478-  17 1.08   3 1.39   5 1.39
   5  0.592  0.526  0.496-  16 1.08   4 1.39   6 1.39
   6  0.590  0.497  0.515-  15 1.08   1 1.39   5 1.39
   7  0.500  0.471  0.500-   8 1.34   2 1.48   9 1.48
   8  0.500  0.438  0.500-  20 1.08  19 1.08   7 1.34
   9  0.468  0.490  0.501-  10 1.40  14 1.40   7 1.48
  10  0.440  0.480  0.483-  25 1.08  11 1.39   9 1.40
  11  0.410  0.497  0.485-  24 1.08  10 1.39  12 1.39
  12  0.408  0.526  0.504-  23 1.08  13 1.39  11 1.39
  13  0.435  0.537  0.522-  22 1.08  14 1.39  12 1.39
  14  0.465  0.519  0.520-  21 1.08  13 1.39   9 1.40
  15  0.611  0.488  0.529-   6 1.08
  16  0.616  0.539  0.494-   5 1.08
  17  0.566  0.559  0.462-   4 1.08
  18  0.513  0.528  0.466-   3 1.08
  19  0.477  0.424  0.502-   8 1.08
  20  0.523  0.424  0.498-   8 1.08
  21  0.487  0.528  0.534-  14 1.08
  22  0.434  0.559  0.538-  13 1.08
  23  0.384  0.539  0.506-  12 1.08
  24  0.389  0.488  0.471-  11 1.08
  25  0.442  0.458  0.467-  10 1.08
  26  0.558  0.458  0.533-   1 1.08
 
  LATTYP: Found a simple cubic cell.
 ALAT       =    40.0000000000
  
  Lattice vectors:
  
 A1 = (  40.0000000000,   0.0000000000,   0.0000000000)
 A2 = (   0.0000000000,  40.0000000000,   0.0000000000)
 A3 = (   0.0000000000,   0.0000000000,  40.0000000000)


Analysis of symmetry for initial positions (statically):
=====================================================================
 Subroutine PRICEL returns:
 Original cell was already a primitive cell.
 

 Routine SETGRP: Setting up the symmetry group for a 
 simple cubic supercell.


 Subroutine GETGRP returns: Found  2 space group operations
 (whereof  2 operations were pure point group operations)
 out of a pool of 48 trial point group operations.


The static configuration has the point symmetry C_2 .


Analysis of symmetry for dynamics (positions and initial velocities):
=====================================================================
 Subroutine PRICEL returns:
 Original cell was already a primitive cell.
 

 Routine SETGRP: Setting up the symmetry group for a 
 simple cubic supercell.


 Subroutine GETGRP returns: Found  2 space group operations
 (whereof  2 operations were pure point group operations)
 out of a pool of 48 trial point group operations.


The dynamic configuration has the point symmetry C_2 .


Analysis of constrained symmetry for selective dynamics:
=====================================================================
 Subroutine PRICEL returns:
 Original cell was already a primitive cell.
 

 Routine SETGRP: Setting up the symmetry group for a 
 simple cubic supercell.


 Subroutine GETGRP returns: Found  2 space group operations
 (whereof  2 operations were pure point group operations)
 out of a pool of 48 trial point group operations.


The constrained configuration has the point symmetry C_2 .


Analysis of structural, dynamic, and magnetic symmetry:
=====================================================================
 Subroutine PRICEL returns:
 Original cell was already a primitive cell.
 

 Routine SETGRP: Setting up the symmetry group for a 
 simple cubic supercell.


 Subroutine GETGRP returns: Found  2 space group operations
 (whereof  2 operations were pure point group operations)
 out of a pool of 48 trial point group operations.


The overall configuration has the point symmetry C_2 .


 Subroutine INISYM returns: Found  2 space group operations
 (whereof  2 operations are pure point group operations),
 and found     1 'primitive' translations


----------------------------------------------------------------------------------------

                                     Primitive cell                                     

  volume of cell :   64000.0000

  direct lattice vectors                    reciprocal lattice vectors
    40.000000000  0.000000000  0.000000000     0.025000000  0.000000000  0.000000000
     0.000000000 40.000000000  0.000000000     0.000000000  0.025000000  0.000000000
     0.000000000  0.000000000 40.000000000     0.000000000  0.000000000  0.025000000

  length of vectors
    40.000000000 40.000000000 40.000000000     0.025000000  0.025000000  0.025000000

  position of ions in fractional coordinates (direct lattice)
     0.559806731  0.479649189  0.516852997
     0.531774650  0.490436428  0.499027169
     0.534578321  0.519400025  0.479668512
     0.564564505  0.536723457  0.477807738
     0.592280645  0.525607458  0.495541849
     0.589773149  0.497025215  0.515113616
     0.500000000  0.471419073  0.500000000
     0.500000000  0.437963647  0.499999000
     0.468225350  0.490436428  0.500972831
     0.440193269  0.479650189  0.483147003
     0.410226851  0.497026215  0.484886384
     0.407719355  0.525608458  0.504458151
     0.435435495  0.536723457  0.522193262
     0.465421679  0.519400025  0.520332488
     0.611187580  0.488378825  0.529331820
     0.615640449  0.539275977  0.494269488
     0.566262016  0.559006910  0.462455016
     0.513115978  0.528259100  0.465729643
     0.476937737  0.423865122  0.501734100
     0.523061263  0.423864122  0.498263900
     0.486884022  0.528258100  0.534271357
     0.433737984  0.559005910  0.537546984
     0.384359551  0.539276977  0.505731512
     0.388812420  0.488379825  0.470667180
     0.442093383  0.457679435  0.467404229
     0.557906617  0.457678435  0.532593771

  ion indices of the primitive-cell ions
   primitive index   ion index
                 1           1
                 2           2
                 3           3
                 4           4
                 5           5
                 6           6
                 7           7
                 8           8
                 9           9
                10          10
                11          11
                12          12
                13          13
                14          14
                15          15
                16          16
                17          17
                18          18
                19          19
                20          20
                21          21
                22          22
                23          23
                24          24
                25          25
                26          26

----------------------------------------------------------------------------------------

 
 
 KPOINTS: K-Point Grid                            

Automatic generation of k-mesh.
 Grid dimensions read from file:
 generate k-points for:    1    1    1

 Generating k-lattice:

  Cartesian coordinates                     Fractional coordinates (reciprocal lattice)
     0.025000000  0.000000000  0.000000000     1.000000000  0.000000000  0.000000000
     0.000000000  0.025000000  0.000000000     0.000000000  1.000000000  0.000000000
     0.000000000  0.000000000  0.025000000     0.000000000  0.000000000  1.000000000

  Length of vectors
     0.025000000  0.025000000  0.025000000

  Shift w.r.t. Gamma in fractional coordinates (k-lattice)
     0.000000000  0.000000000  0.000000000

 
 Subroutine IBZKPT returns following result:
 ===========================================
 
 Found      1 irreducible k-points:
 
 Following reciprocal coordinates:
            Coordinates               Weight
  0.000000  0.000000  0.000000      1.000000
 
 Following cartesian coordinates:
            Coordinates               Weight
  0.000000  0.000000  0.000000      1.000000
 
 
 Subroutine IBZKPT_HF returns following result:
 ==============================================
 
 Found      1 k-points in 1st BZ
 the following      1 k-points will be used (e.g. in the exchange kernel)
 Following reciprocal coordinates:   # in IRBZ
  0.000000  0.000000  0.000000    1.00000000   1 t-inv F


--------------------------------------------------------------------------------------------------------




 Dimension of arrays:
   k-points           NKPTS =      1   k-points in BZ     NKDIM =      1   number of bands    NBANDS=     63
   number of dos      NEDOS =    301   number of ions     NIONS =     26
   non local maximal  LDIM  =      4   non local SUM 2l+1 LMDIM =      8
   total plane-waves  NPLWV = ******
   max r-space proj   IRMAX =   2915   max aug-charges    IRDMAX=   4885
   dimension x,y,z NGX =   294 NGY =  294 NGZ =  294
   dimension x,y,z NGXF=   588 NGYF=  588 NGZF=  588
   support grid    NGXF=   588 NGYF=  588 NGZF=  588
   ions per type =              14  12
   NGX,Y,Z   is equivalent  to a cutoff of  12.22, 12.22, 12.22 a.u.
   NGXF,Y,Z  is equivalent  to a cutoff of  24.44, 24.44, 24.44 a.u.

 SYSTEM =  015_red                                 
 POSCAR =  C H                                     

 Startparameter for this run:
   NWRITE =      2    write-flag & timer
   PREC   = accura    normal or accurate (medium, high low for compatibility)
   ISTART =      1    job   : 0-new  1-cont  2-samecut
   ICHARG =      2    charge: 1-file 2-atom 10-const
   ISPIN  =      2    spin polarized calculation?
   LNONCOLLINEAR =      F non collinear calculations
   LSORBIT =      F    spin-orbit coupling
   INIWAV =      1    electr: 0-lowe 1-rand  2-diag
   LASPH  =      F    aspherical Exc in radial PAW
 Electronic Relaxation 1
   ENCUT  =  500.0 eV  36.75 Ry    6.06 a.u.  72.93 72.93 72.93*2*pi/ulx,y,z
   ENINI  =  500.0     initial cutoff
   ENAUG  =  644.9 eV  augmentation charge cutoff
   NELM   =    500;   NELMIN=  2; NELMDL=  0     # of ELM steps 
   EDIFF  = 0.1E-04   stopping-criterion for ELM
   LREAL  =      T    real-space projection
   NLSPLINE    = F    spline interpolate recip. space projectors
   LCOMPAT=      F    compatible to vasp.4.4
   GGA_COMPAT  = T    GGA compatible to vasp.4.4-vasp.4.6
   LMAXPAW     = -100 max onsite density
   LMAXMIX     =    2 max onsite mixed and CHGCAR
   VOSKOWN=      0    Vosko Wilk Nusair interpolation
   ROPT   =   -0.00025  -0.00025
 Ionic relaxation
   EDIFFG = -.2E-01   stopping-criterion for IOM
   NSW    =    500    number of steps for IOM
   NBLOCK =      1;   KBLOCK =    500    inner block; outer block 
   IBRION =      2    ionic relax: 0-MD 1-quasi-New 2-CG
   NFREE  =      1    steps in history (QN), initial steepest desc. (CG)
   ISIF   =      2    stress and relaxation
   IWAVPR =     11    prediction:  0-non 1-charg 2-wave 3-comb
   ISYM   =      3    0-nonsym 1-usesym 2-fastsym
   LCORR  =      T    Harris-Foulkes like correction to forces

   POTIM  = 0.5000    time-step for ionic-motion
   TEIN   =    0.0    initial temperature
   TEBEG  =    0.0;   TEEND  =   0.0 temperature during run
   SMASS  =  -3.00    Nose mass-parameter (am)
   estimated Nose-frequenzy (Omega)   =  0.10E-29 period in steps = 0.13E+47 mass=  -0.366E-25a.u.
   SCALEE = 1.0000    scale energy and forces
   NPACO  =    256;   APACO  = 10.0  distance and # of slots for P.C.
   PSTRESS=    0.0 pullay stress

  Mass of Ions in am
   POMASS =  12.01  1.00
  Ionic Valenz
   ZVAL   =   4.00  1.00
  Atomic Wigner-Seitz radii
   RWIGS  =  -1.00 -1.00
  virtual crystal weights 
   VCA    =   1.00  1.00
   NELECT =      68.0000    total number of electrons
   NUPDOWN=      -1.0000    fix difference up-down

 DOS related values:
   EMIN   =  10.00;   EMAX   =-10.00  energy-range for DOS
   EFERMI =   0.00;   METHOD = LEGACY      
   ISMEAR =     0;   SIGMA  =   0.05  broadening in eV -4-tet -1-fermi 0-gaus

 Electronic relaxation 2 (details)
   IALGO  =     53    algorithm
   LDIAG  =      F    sub-space diagonalisation (order eigenvalues)
   LSUBROT=      F    optimize rotation matrix (better conditioning)
   TURBO    =      0    0=normal 1=particle mesh
   IRESTART =      0    0=no restart 2=restart with 2 vectors
   NREBOOT  =      0    no. of reboots
   NMIN     =      0    reboot dimension
   EREF     =   0.00    reference energy to select bands
   IMIX   =      4    mixing-type and parameters
     AMIX     =   0.40;   BMIX     =  1.00
     AMIX_MAG =   1.60;   BMIX_MAG =  1.00
     AMIN     =   0.10
     WC   =   100.;   INIMIX=   1;  MIXPRE=   1;  MAXMIX= -45

 Intra band minimization:
   WEIMIN = 0.0010     energy-eigenvalue tresh-hold
   EBREAK =  0.40E-07  absolut break condition
   DEPER  =   0.30     relativ break condition  

   TIME   =   0.40     timestep for ELM

  volume/ion in A,a.u.               =    2461.54     16611.28
  Fermi-wavevector in a.u.,A,eV,Ry     =   0.167052  0.315682  0.379688  0.027906
  Thomas-Fermi vector in A             =   0.871524
 
 Write flags
   LWAVE        =      T    write WAVECAR
   LDOWNSAMPLE  =      F    k-point downsampling of WAVECAR
   LCHARG       =      F    write CHGCAR
   LVTOT        =      F    write LOCPOT, total local potential
   LVHAR        =      F    write LOCPOT, Hartree potential only
   LELF         =      F    write electronic localiz. function (ELF)
   LORBIT       =      0    0 simple, 1 ext, 2 COOP (PROOUT), +10 PAW based schemes


 Dipole corrections
   LMONO  =      F    monopole corrections only (constant potential shift)
   LDIPOL =      F    correct potential (dipole corrections)
   IDIPOL =      0    1-x, 2-y, 3-z, 4-all directions 
   EPSILON=  1.0000000 bulk dielectric constant

 Exchange correlation treatment:
   GGA     =    --    GGA type
   LEXCH   =     8    internal setting for exchange type
   LIBXC   =     F    Libxc                    
   VOSKOWN =     0    Vosko Wilk Nusair interpolation
   EXXOEP  =     0    0=HF, 1=EXX-LHF (local Hartree Fock) 2=EXX OEP
   LHFCALC =     T    Hartree Fock is set to
   LSYMGRAD=     F    symmetrize gradient (conserves proper symmetry)
   PRECFOCK=normal    Normal, Fast or Accurate (Low or Medium for compatibility)
   LRHFCALC=     F    long range Hartree Fock
   LRSCOR  =     F    long range correlation only (use DFT for short range part)
   LTHOMAS =     F    Thomas Fermi screening in HF
   LMODELHF=     F    short range full HF, long range fraction AEXX
   FOCKCORR=     1    mode to apply convergence corrections
   LFOCKACE=     F    use Adeptively-Compressed-Exchange operator
   ENCUT4O =  -1.0   cutoff for four orbital integrals eV
   LMAXFOCK=     4    L truncation for augmentation on plane wave grid
   LMAXFOCKAE=  -1    L truncation for all-electron charge restoration on plane wave grid
   NMAXFOCKAE=   1    number of basis functions for all-electron charge restoration
   LFOCKAEDFT=     F  apply the AE augmentation even for DFT
   NKREDX  =     1    reduce k-point grid by
   NKREDY  =     1    reduce k-point grid by
   NKREDZ  =     1    reduce k-point grid by
   SHIFTRED=     F    shift reduced grid of Gamma
   HFKIDENT=     F    idential grid for each k-point
   ODDONLY =     F    use only odd q-grid points
   EVENONLY=     F    use only even q-grid points
   HFALPHA =   -1.0000 decay constant for conv. correction
   MCALPHA =    0.0000 extent of test-charge in conv. correction in multipole expansion
   AEXX    =    0.2500 exact exchange contribution
   HFSCREEN=    0.2000 screening length (either q_TF or 0.3 A-1)
   HFSCREENC=   0.2000 screening length for correlation (either q_TF or 0.3 A-1)
   HFRCUT  =    0.0000 spherical cutoff for potential kernel
   ALDAX   =    0.7500 LDA exchange part
   AGGAX   =    0.7500 GGA exchange part
   ALDAC   =    1.0000 LDA correlation
   AGGAC   =    1.0000 GGA correlation
   ENCUTFOCK=  -1.0 apply spherical cutoff to Coloumb kernel
   NBANDSGWLOW=     1    first orbital included in HF term
   NBLOCK_FOCK=    64    blocking factor in FOCK_ACC

 Linear response parameters
   LEPSILON=     F    determine dielectric tensor
   LRPA    =     F    only Hartree local field effects (RPA)
   LNABLA  =     F    use nabla operator in PAW spheres
   LVEL    =     F    velocity operator in full k-point grid
   CSHIFT  =0.1000    complex shift for real part using Kramers Kronig
   OMEGAMAX=  -1.0    maximum frequency
   DEG_THRESHOLD= 0.2000000E-02 threshold for treating states as degnerate
   RTIME   =   -0.100 relaxation time in fs
  (WPLASMAI=    0.000 imaginary part of plasma frequency in eV, 0.658/RTIME)
   DFIELD  = 0.0000000 0.0000000 0.0000000 field for delta impulse in time
 
  Optional k-point grid parameters
   LKPOINTS_OPT  =     F    use optional k-point grid
   KPOINTS_OPT_MODE=     1    mode for optional k-point grid
 
 Orbital magnetization related:
   ORBITALMAG=     F  switch on orbital magnetization
   LCHIMAG   =     F  perturbation theory with respect to B field
   DQ        =  0.001000  dq finite difference perturbation B field
   LLRAUG    =     F  two centre corrections for induced B field
   LBONE     =     F  B-component reconstruction in AE one-centre
   LVGVCALC  =     T  calculate vGv susceptibility
   LVGVAPPL  =     F  apply vGv susceptibility instead of pGv for G=0

 Random number generation:
   RANDOM_GENERATOR = DEFAULT
   PCG_SEED         = not used
 Solvation model:
   LSOL    =     T         switch on solvation model
   EB_K    = 35.688000     relative permittivity of the bulk solvent
   SIGMA_K =  0.600000     width of the dielectric cavity
   NC_K    =  0.002500     cutoff charge density
   TAU     =  0.000000     cavity surface tension
   LAMBDA_D_K    =  3.040000     Debye length in Angstroms
   LRHOB     =     F     write boundcharge  density
   LRHOION     =     F     write ioniccharge density



--------------------------------------------------------------------------------------------------------


 conjugate gradient relaxation of ions
   using selective dynamics as specified on POSCAR
 charge density and potential will be updated during run
 spin polarized calculation
 Conjugate gradient for all bands (Kresse, et al. variant)
 perform Loewdin sub-space diagonalisation
    ordering is kept fixed
    before iterative eigenvector-optimisation
 modified Broyden-mixing scheme, WC =      100.0
 initial mixing is a Kerker type mixing with AMIX =  0.4000 and BMIX =      1.0000
 Hartree-type preconditioning will be used
 using additional bands           29
 real space projection scheme for non local part
 use partial core corrections
 no Harris-corrections to forces 
 use gradient corrections 
 use of overlap-Matrix (Vanderbilt PP)
 Gauss-broadening in eV      SIGMA  =   0.05


--------------------------------------------------------------------------------------------------------


  energy-cutoff  :      500.00
  volume of cell :    64000.00
      direct lattice vectors                 reciprocal lattice vectors
    40.000000000  0.000000000  0.000000000     0.025000000  0.000000000  0.000000000
     0.000000000 40.000000000  0.000000000     0.000000000  0.025000000  0.000000000
     0.000000000  0.000000000 40.000000000     0.000000000  0.000000000  0.025000000

  length of vectors
    40.000000000 40.000000000 40.000000000     0.025000000  0.025000000  0.025000000


 
 old parameters found on file WAVECAR:
  energy-cutoff  :      500.00
  volume of cell :    64000.00
      direct lattice vectors                 reciprocal lattice vectors
    40.000000000  0.000000000  0.000000000     0.025000000  0.000000000  0.000000000
     0.000000000 40.000000000  0.000000000     0.000000000  0.025000000  0.000000000
     0.000000000  0.000000000 40.000000000     0.000000000  0.000000000  0.025000000

  length of vectors

 
 k-points in units of 2pi/SCALE and weight: K-Point Grid                            
   0.00000000  0.00000000  0.00000000       1.000
 
 k-points in reciprocal lattice and weights: K-Point Grid                            
   0.00000000  0.00000000  0.00000000       1.000
 
 position of ions in fractional coordinates (direct lattice) 
   0.55980673  0.47964919  0.51685300
   0.53177465  0.49043643  0.49902717
   0.53457832  0.51940002  0.47966851
   0.56456451  0.53672346  0.47780774
   0.59228064  0.52560746  0.49554185
   0.58977315  0.49702522  0.51511362
   0.50000000  0.47141907  0.50000000
   0.50000000  0.43796365  0.49999900
   0.46822535  0.49043643  0.50097283
   0.44019327  0.47965019  0.48314700
   0.41022685  0.49702622  0.48488638
   0.40771936  0.52560846  0.50445815
   0.43543549  0.53672346  0.52219326
   0.46542168  0.51940002  0.52033249
   0.61118758  0.48837883  0.52933182
   0.61564045  0.53927598  0.49426949
   0.56626202  0.55900691  0.46245502
   0.51311598  0.52825910  0.46572964
   0.47693774  0.42386512  0.50173410
   0.52306126  0.42386412  0.49826390
   0.48688402  0.52825810  0.53427136
   0.43373798  0.55900591  0.53754698
   0.38435955  0.53927698  0.50573151
   0.38881242  0.48837983  0.47066718
   0.44209338  0.45767943  0.46740423
   0.55790662  0.45767843  0.53259377
 
 position of ions in cartesian coordinates  (Angst):
  22.39226924 19.18596756 20.67411989
  21.27098600 19.61745711 19.96108676
  21.38313283 20.77600099 19.18674048
  22.58258022 21.46893830 19.11230952
  23.69122580 21.02429832 19.82167395
  23.59092596 19.88100861 20.60454463
  20.00000000 18.85676292 20.00000000
  20.00000000 17.51854586 19.99996000
  18.72901400 19.61745711 20.03891324
  17.60773076 19.18600756 19.32588011
  16.40907404 19.88104861 19.39545537
  16.30877420 21.02433832 20.17832605
  17.41741978 21.46893830 20.88773048
  18.61686717 20.77600099 20.81329952
  24.44750319 19.53515300 21.17327279
  24.62561796 21.57103907 19.77077952
  22.65048062 22.36027638 18.49820065
  20.52463911 21.13036400 18.62918573
  19.07750948 16.95460487 20.06936401
  20.92245052 16.95456487 19.93055599
  19.47536089 21.13032400 21.37085427
  17.34951938 22.36023638 21.50187935
  15.37438204 21.57107907 20.22926048
  15.55249681 19.53519300 18.82668721
  17.68373530 18.30717740 18.69616917
  22.31626470 18.30713740 21.30375083
 


--------------------------------------------------------------------------------------------------------


 k-point   1 :   0.0000 0.0000 0.0000  plane waves: 1624525

 maximum and minimum number of plane-waves per node :     54169    54136

 maximum number of plane-waves:   1624525
 maximum index in each direction: 
   IXMAX=   72   IYMAX=   72   IZMAX=   72
   IXMIN=  -72   IYMIN=  -72   IZMIN=  -72


 real space projection operators:
  total allocation   :       2863.06 KBytes
  max/ min on nodes  :        112.00         84.20


 parallel 3D FFT for wavefunctions:
    minimum data exchange during FFTs selected (reduces bandwidth)
 parallel 3D FFT for charge:
    minimum data exchange during FFTs selected (reduces bandwidth)


 FFT grid for exact exchange (Hartree Fock) 
  NGX =224; NGY =224; NGZ =224

 
 Radii for the augmentation spheres in the non-local exchange
 for species   1 augmentation radius   0.874 (default was   0.699)
       energy cutoff for augmentation   2000.0
 for species   2 augmentation radius   0.650 (default was   0.520)
       energy cutoff for augmentation   2000.0

 real space projection operators:
  total allocation   :        655.03 KBytes
  max/ min on nodes  :         29.81         12.30

 Maximum index for augmentation-charges in exchange           77
  SETUP_FOCK is finished

 total amount of memory used by VASP MPI-rank0   533436. kBytes
=======================================================================

   base      :      30000. kBytes
   nonlr-proj:       1652. kBytes
   fftplans  :     129164. kBytes
   grid      :     263386. kBytes
   one-center:          6. kBytes
   HF        :          4. kBytes
   wavefun   :     109224. kBytes
 
     INWAV:  cpu time     18.9127: real time     18.9687
 Broyden mixing: mesh for mixing (old mesh)
   NGX =145   NGY =145   NGZ =145
  (NGX  =588   NGY  =588   NGZ  =588)
  gives a total of ****** points

 initial charge density was supplied:
 charge density of overlapping atoms calculated
 number of electron      68.0000000 magnetization      26.0000000
 charge density for first step will be calculated from the start-wavefunctions


--------------------------------------------------------------------------------------------------------


 Maximum index for non-local projection operator          240
 Maximum index for augmentation-charges          288 (set IRDMAX)


--------------------------------------------------------------------------------------------------------


 initial charge from wavefunction
 First call to EWALD:  gamma=   0.044
 Maximum number of real-space cells 3x 3x 3
 Maximum number of reciprocal cells 3x 3x 3

    FEWALD:  cpu time      0.0026: real time      0.0026


--------------------------------------- Ionic step        1  -------------------------------------------




--------------------------------------- Iteration      1(   1)  ---------------------------------------


    POTLOK:  cpu time    370.1650: real time    371.3143
    SETDIJ:  cpu time      0.1564: real time      0.1564
    TRIAL :  cpu time    356.2879: real time    356.2971
    CORREC:  cpu time      0.0020: real time      0.0020
    CHARGE:  cpu time      3.3945: real time      3.3945
    --------------------------------------------
      LOOP:  cpu time    730.0871: real time    731.2459

 eigenvalue-minimisations  :     0
 total energy-change (2. order) :-0.1955355E+03  (-0.3046586E-05)
 number of electron      67.9999999 magnetization       0.0000000
 augmentation part        1.5657167 magnetization       0.0000000

 Free energy of the ion-electron system (eV)
  ---------------------------------------------------
  alpha Z        PSCENC =         0.33654424
  Ewald energy   TEWEN  =      8166.98700598
  -Hartree energ DENC   =     -9943.48055022
  -exchange      EXHF   =       148.77412322
  -V(xc)+E(xc)   XCENC  =       172.87346734
  PAW double counting   =      6574.02981637    -6580.59674825
  entropy T*S    EENTRO =        -0.00000000
  eigenvalues    EBANDS =      -923.42956356
  atomic energy  EATOM  =      2179.40783421
  ---------------------------------------------------
  free energy    TOTEN  =      -195.53549835 eV

  energy without entropy =     -195.53549835  energy(sigma->0) =     -195.53549835
  exchange ACFDT corr.  =        -0.00000000  see jH, gK, PRB 81, 115126


--------------------------------------------------------------------------------------------------------




--------------------------------------- Iteration      1(   2)  ---------------------------------------


    POTLOK:  cpu time    252.2736: real time    252.2916
    SETDIJ:  cpu time      0.1513: real time      0.1513
    TRIAL :  cpu time    346.2466: real time    346.2471
    CORREC:  cpu time      0.2184: real time      0.2184
    CHARGE:  cpu time      3.9550: real time      3.9550
    --------------------------------------------
      LOOP:  cpu time    602.8703: real time    602.9125

 eigenvalue-minimisations  :     0
 total energy-change (2. order) :-0.2223193E-05  (-0.1573156E-05)
 number of electron      67.9999999 magnetization       0.0000000
 augmentation part        1.5657179 magnetization       0.0000000

 Free energy of the ion-electron system (eV)
  ---------------------------------------------------
  alpha Z        PSCENC =         0.33654424
  Ewald energy   TEWEN  =      8166.98700598
  -Hartree energ DENC   =     -9943.49286650
  -exchange      EXHF   =       148.77428245
  -V(xc)+E(xc)   XCENC  =       172.87362353
  PAW double counting   =      6574.05267122    -6580.61961849
  entropy T*S    EENTRO =        -0.00000000
  eigenvalues    EBANDS =      -923.42104234
  atomic energy  EATOM  =      2179.40783421
  ---------------------------------------------------
  free energy    TOTEN  =      -195.53550057 eV

  energy without entropy =     -195.53550057  energy(sigma->0) =     -195.53550057
  exchange ACFDT corr.  =        -0.00000000  see jH, gK, PRB 81, 115126


--------------------------------------------------------------------------------------------------------


  average scaling for gradient   1.0003


 average (electrostatic) potential at core
  the test charge radii are     0.6991  0.5201
  (the norm of the test charge is              1.0000)
       1 -54.9625       2 -55.2716       3 -54.9611       4 -54.9505       5 -54.9421
       6 -54.9535       7 -55.3476       8 -54.6718       9 -55.2717      10 -54.9626
      11 -54.9536      12 -54.9422      13 -54.9505      14 -54.9611      15 -37.8728
      16 -37.8733      17 -37.8708      18 -37.8963      19 -37.8352      20 -37.8354
      21 -37.8965      22 -37.8708      23 -37.8733      24 -37.8727      25 -37.8898
      26 -37.8901
 
 
 
 E-fermi :  -5.8714     XC(G=0):  -0.0373     alpha+bet : -0.0271

 Fermi energy:        -5.8713654007

 spin component 1

 k-point     1 :       0.0000    0.0000    0.0000
  band No.  band energies     occupation 
      1     -24.1478      1.00000
      2     -23.6982      1.00000
      3     -22.2958      1.00000
      4     -20.7000      1.00000
      5     -20.6945      1.00000
      6     -20.5397      1.00000
      7     -19.8340      1.00000
      8     -17.4022      1.00000
      9     -16.7640      1.00000
     10     -16.5241      1.00000
     11     -16.4442      1.00000
     12     -15.1438      1.00000
     13     -14.3872      1.00000
     14     -13.7008      1.00000
     15     -12.7751      1.00000
     16     -12.6253      1.00000
     17     -12.3242      1.00000
     18     -12.0482      1.00000
     19     -11.9703      1.00000
     20     -11.4273      1.00000
     21     -11.4140      1.00000
     22     -11.3328      1.00000
     23     -10.4182      1.00000
     24     -10.2341      1.00000
     25     -10.2277      1.00000
     26      -9.6395      1.00000
     27      -9.3421      1.00000
     28      -9.1330      1.00000
     29      -8.9754      1.00000
     30      -8.2412      1.00000
     31      -7.1522      1.00000
     32      -7.0406      1.00000
     33      -6.9653      1.00000
     34      -6.1478      1.00000
     35      -1.5587      0.00000
     36      -0.9481      0.00000
     37      -0.8275      0.00000
     38      -0.4686      0.00000
     39      -0.3534      0.00000
     40      -0.0965      0.00000
     41       0.0000      0.00000
     42       0.0134      0.00000
     43       0.0439      0.00000
     44       0.0932      0.00000
     45       0.0961      0.00000
     46       0.1131      0.00000
     47       0.1180      0.00000
     48       0.1259      0.00000
     49       0.1297      0.00000
     50       0.1789      0.00000
     51       0.1805      0.00000
     52       0.1835      0.00000
     53       0.1865      0.00000
     54       0.1892      0.00000
     55       0.1911      0.00000
     56       0.1911      0.00000
     57       0.1911      0.00000
     58       0.2318      0.00000
     59       0.2342      0.00000
     60       0.2389      0.00000
     61       0.2508      0.00000
     62       0.2702      0.00000
     63       0.3469      0.00000
 Fermi energy:        -5.8713654007

 spin component 2

 k-point     1 :       0.0000    0.0000    0.0000
  band No.  band energies     occupation 
      1     -24.1478      1.00000
      2     -23.6982      1.00000
      3     -22.2958      1.00000
      4     -20.7000      1.00000
      5     -20.6945      1.00000
      6     -20.5397      1.00000
      7     -19.8340      1.00000
      8     -17.4022      1.00000
      9     -16.7640      1.00000
     10     -16.5241      1.00000
     11     -16.4442      1.00000
     12     -15.1438      1.00000
     13     -14.3872      1.00000
     14     -13.7008      1.00000
     15     -12.7751      1.00000
     16     -12.6253      1.00000
     17     -12.3242      1.00000
     18     -12.0482      1.00000
     19     -11.9703      1.00000
     20     -11.4273      1.00000
     21     -11.4140      1.00000
     22     -11.3328      1.00000
     23     -10.4182      1.00000
     24     -10.2341      1.00000
     25     -10.2277      1.00000
     26      -9.6395      1.00000
     27      -9.3421      1.00000
     28      -9.1330      1.00000
     29      -8.9754      1.00000
     30      -8.2412      1.00000
     31      -7.1522      1.00000
     32      -7.0406      1.00000
     33      -6.9653      1.00000
     34      -6.1478      1.00000
     35      -1.5587      0.00000
     36      -0.9481      0.00000
     37      -0.8275      0.00000
     38      -0.4686      0.00000
     39      -0.3534      0.00000
     40      -0.0965      0.00000
     41       0.0000      0.00000
     42       0.0134      0.00000
     43       0.0439      0.00000
     44       0.0932      0.00000
     45       0.0961      0.00000
     46       0.1131      0.00000
     47       0.1180      0.00000
     48       0.1259      0.00000
     49       0.1297      0.00000
     50       0.1789      0.00000
     51       0.1805      0.00000
     52       0.1835      0.00000
     53       0.1865      0.00000
     54       0.1892      0.00000
     55       0.1911      0.00000
     56       0.1911      0.00000
     57       0.1911      0.00000
     58       0.2318      0.00000
     59       0.2341      0.00000
     60       0.2392      0.00000
     61       0.2509      0.00000
     62       0.2704      0.00000
     63       0.3359      0.00000


--------------------------------------------------------------------------------------------------------


 soft charge-density along one line, spin component           1
         0         1         2         3         4         5         6         7         8         9
 total charge-density along one line
 
 soft charge-density along one line, spin component           2
         0         1         2         3         4         5         6         7         8         9
 total charge-density along one line
 
 pseudopotential strength for first ion, spin component:           1
  9.982  13.273   0.001  -0.001  -0.000  -0.003   0.002   0.000
 13.273  17.648   0.001  -0.001  -0.000  -0.004   0.003   0.000
  0.001   0.001  -4.201  -0.001   0.000   8.192   0.002  -0.001
 -0.001  -0.001  -0.001  -4.201  -0.000   0.002   8.192  -0.001
 -0.000  -0.000   0.000  -0.000  -4.202  -0.001  -0.001   8.192
 -0.003  -0.004   8.192   0.002  -0.001 -18.087  -0.007   0.004
  0.002   0.003   0.002   8.192  -0.001  -0.007 -18.089   0.003
  0.000   0.000  -0.001  -0.001   8.192   0.004   0.003 -18.084
 pseudopotential strength for first ion, spin component:           2
  9.982  13.273   0.001  -0.001  -0.000  -0.003   0.002   0.000
 13.273  17.648   0.001  -0.001  -0.000  -0.004   0.003   0.000
  0.001   0.001  -4.201  -0.001   0.000   8.192   0.002  -0.001
 -0.001  -0.001  -0.001  -4.201  -0.000   0.002   8.192  -0.001
 -0.000  -0.000   0.000  -0.000  -4.202  -0.001  -0.001   8.192
 -0.003  -0.004   8.192   0.002  -0.001 -18.087  -0.007   0.004
  0.002   0.003   0.002   8.192  -0.001  -0.007 -18.089   0.003
  0.000   0.000  -0.001  -0.001   8.192   0.004   0.003 -18.084
 total augmentation occupancy for first ion, spin component:           1
  8.929  -4.046   0.201  -0.127   0.027   0.041  -0.027   0.004
 -4.046   1.872  -0.130   0.085  -0.015  -0.025   0.016  -0.002
  0.201  -0.130   1.587  -0.275   0.127   0.136  -0.038   0.017
 -0.127   0.085  -0.275   1.424   0.157  -0.038   0.113   0.024
  0.027  -0.015   0.127   0.157   1.839   0.017   0.024   0.176
  0.041  -0.025   0.136  -0.038   0.017   0.012  -0.005   0.002
 -0.027   0.016  -0.038   0.113   0.024  -0.005   0.010   0.003
  0.004  -0.002   0.017   0.024   0.176   0.002   0.003   0.018
 total augmentation occupancy for first ion, spin component:           2
 -0.000   0.000  -0.000   0.000   0.000  -0.000   0.000   0.000
  0.000  -0.000   0.000  -0.000  -0.000   0.000  -0.000  -0.000
 -0.000   0.000   0.000  -0.000   0.000   0.000   0.000  -0.000
  0.000  -0.000  -0.000   0.000  -0.000   0.000  -0.000  -0.000
  0.000  -0.000   0.000  -0.000   0.000  -0.000   0.000  -0.000
 -0.000   0.000   0.000   0.000  -0.000   0.000   0.000  -0.000
  0.000  -0.000   0.000  -0.000   0.000   0.000  -0.000   0.000
  0.000  -0.000  -0.000  -0.000  -0.000  -0.000   0.000  -0.000


------------------------ aborting loop because EDIFF is reached ----------------------------------------


    FORLOC:  cpu time      0.3519: real time      0.3519
    FORHF :  cpu time    195.2557: real time    195.2629
    FORNL :  cpu time      8.4361: real time      8.4360
    STRESS:  cpu time     24.5666: real time     24.5665
    FORCOR:  cpu time     17.7486: real time     17.7484
    OFIELD:  cpu time      0.0401: real time      0.0401
 WARNING: Using user supplied parameters
     VDW_A1 = 0.383
     VDW_A2 = 5.685
     VDW_S8 = 2.31
     because the xc functional is not supported. Required parameters not
     defined in the INCAR file will be replaced with PBE defaults ones.


 ---------------------------------------------------------------------------------------------

         DFTD3 V3.0 Rev 1        
 IVDW         = 12
 DF unknown   
 parameters
 VDW_S6       =    1.0000
 VDW_S8       =    2.3100
 VDW_A1       =    0.3830
 VDW_A2       =    5.6850
 k1-k3        =   16.0000    1.3333   -4.0000
 VDW_RADIUS   =   50.2022 A
 VDW_CNRADIUS =   21.1671 A
 Edisp (eV)   -0.62169

 E6    (eV) :    -0.3168
 E8    (eV) :    -0.3048
 % E8        : 49.04
    FORVDW:  cpu time      0.0119: real time      0.0119

  FORCE on cell =-STRESS in cart. coord.  units (eV):
  Direction    XX          YY          ZZ          XY          YZ          ZX
  --------------------------------------------------------------------------------------
  Alpha Z     0.33654     0.33654     0.33654
  Ewald    5073.38455  2542.70996   550.89112    -0.02274     0.01966   477.79606
  Hartree  5197.71905  3048.15492  1697.62409    -0.01458     0.01534   234.51293
  E(xc)    -185.97048  -186.64814  -187.94438    -0.00002     0.00002     0.54978
  Local  -10899.59131 -6241.55686 -2953.41254     0.03638    -0.03520  -687.39801
  n-local   -75.43241   -74.29096   -71.60375    -0.00020     0.00074    -1.61799
  augment    -3.76440    -3.73204    -3.62341     0.00000     0.00001    -0.05148
  Kinetic   960.27794   980.31051  1027.63688     0.00113    -0.00080   -21.18436
  Fock      -66.01206   -64.88960   -61.70024     0.00005    -0.00003    -1.40429
  vdW        -0.35964    -0.14708    -0.04311     0.00000    -0.00000     0.01664
  -------------------------------------------------------------------------------------
  Total       0.58780     0.24725    -1.83881     0.00000     0.00000     1.21927
  in kB       0.01471     0.00619    -0.04603     0.00000     0.00000     0.03052
  external pressure =       -0.01 kB  Pullay stress =        0.00 kB


 VOLUME and BASIS-vectors are now :
 -----------------------------------------------------------------------------
  energy-cutoff  :      500.00
  volume of cell :    64000.00
      direct lattice vectors                 reciprocal lattice vectors
    40.000000000  0.000000000  0.000000000     0.025000000  0.000000000  0.000000000
     0.000000000 40.000000000  0.000000000     0.000000000  0.025000000  0.000000000
     0.000000000  0.000000000 40.000000000     0.000000000  0.000000000  0.025000000

  length of vectors
    40.000000000 40.000000000 40.000000000     0.025000000  0.025000000  0.025000000


 FORCES acting on ions:
    Electron-Ion                     Ewald-Force                    Non-Local-Force
 -----------------------------------------------------------------------------------------------
   -.102E+03 0.138E+03 -.121E+03   0.102E+03 -.139E+03 0.122E+03   -.363E-01 0.932E+00 -.792E+00
   -.287E+02 0.394E+02 0.344E+01   0.289E+02 -.394E+02 -.362E+01   -.171E+00 0.244E-01 -.359E-01
   0.273E+02 -.112E+03 0.134E+03   -.280E+02 0.113E+03 -.135E+03   0.885E+00 -.605E+00 0.560E+00
   -.821E+02 -.182E+03 0.121E+03   0.821E+02 0.182E+03 -.122E+03   -.168E+00 -.962E+00 0.570E+00
   -.216E+03 -.109E+03 0.139E+02   0.216E+03 0.109E+03 -.141E+02   -.102E+01 -.528E+00 0.119E+00
   -.214E+03 0.487E+02 -.995E+02   0.214E+03 -.489E+02 0.996E+02   -.931E+00 0.301E+00 -.502E+00
   0.813E-03 0.819E+02 -.356E-02   -.736E-03 -.824E+02 0.358E-02   0.000E+00 0.686E+00 0.000E+00
   0.833E-04 0.262E+03 0.687E-02   -.357E-03 -.262E+03 -.702E-02   0.000E+00 0.106E+01 0.000E+00
   0.287E+02 0.394E+02 -.344E+01   -.289E+02 -.394E+02 0.362E+01   0.171E+00 0.244E-01 0.359E-01
   0.102E+03 0.138E+03 0.121E+03   -.102E+03 -.139E+03 -.122E+03   0.363E-01 0.932E+00 0.792E+00
   0.214E+03 0.487E+02 0.995E+02   -.214E+03 -.489E+02 -.996E+02   0.931E+00 0.301E+00 0.502E+00
   0.216E+03 -.109E+03 -.139E+02   -.216E+03 0.109E+03 0.141E+02   0.102E+01 -.528E+00 -.119E+00
   0.821E+02 -.182E+03 -.121E+03   -.821E+02 0.182E+03 0.122E+03   0.168E+00 -.962E+00 -.570E+00
   -.273E+02 -.112E+03 -.134E+03   0.280E+02 0.113E+03 0.135E+03   -.885E+00 -.605E+00 -.560E+00
   -.773E+02 0.252E+02 -.449E+02   0.817E+02 -.270E+02 0.478E+02   -.455E+01 0.183E+01 -.302E+01
   -.807E+02 -.445E+02 0.463E+01   0.856E+02 0.474E+02 -.491E+01   -.498E+01 -.291E+01 0.272E+00
   -.179E+02 -.748E+02 0.512E+02   0.183E+02 0.795E+02 -.544E+02   -.361E+00 -.474E+01 0.326E+01
   0.381E+02 -.448E+02 0.621E+02   -.429E+02 0.466E+02 -.650E+02   0.458E+01 -.191E+01 0.298E+01
   0.473E+02 0.747E+02 -.647E+01   -.523E+02 -.776E+02 0.692E+01   0.486E+01 0.300E+01 -.378E+00
   -.473E+02 0.747E+02 0.647E+01   0.523E+02 -.776E+02 -.692E+01   -.486E+01 0.300E+01 0.378E+00
   -.381E+02 -.448E+02 -.621E+02   0.429E+02 0.466E+02 0.650E+02   -.458E+01 -.191E+01 -.298E+01
   0.179E+02 -.748E+02 -.512E+02   -.183E+02 0.795E+02 0.544E+02   0.361E+00 -.474E+01 -.326E+01
   0.807E+02 -.445E+02 -.463E+01   -.856E+02 0.474E+02 0.491E+01   0.498E+01 -.291E+01 -.272E+00
   0.773E+02 0.252E+02 0.449E+02   -.817E+02 -.270E+02 -.478E+02   0.455E+01 0.183E+01 0.302E+01
   0.210E+02 0.690E+02 0.582E+02   -.204E+02 -.737E+02 -.615E+02   -.400E+00 0.467E+01 0.337E+01
   -.210E+02 0.691E+02 -.582E+02   0.204E+02 -.737E+02 0.615E+02   0.400E+00 0.467E+01 -.337E+01
 -----------------------------------------------------------------------------------------------
   0.996E-03 -.799E-01 0.152E-02   -.639E-13 -.142E-13 -.426E-13   0.888E-15 -.411E-01 0.000E+00
 
 
 POSITION                                       TOTAL-FORCE (eV/Angst)
 -----------------------------------------------------------------------------------
     22.39227     19.18597     20.67412        -0.030500     -0.019388      0.005651
     21.27099     19.61746     19.96109        -0.002132      0.024507     -0.009600
     21.38313     20.77600     19.18674         0.000213     -0.020420      0.019102
     22.58258     21.46894     19.11231        -0.019156      0.009882     -0.015881
     23.69123     21.02430     19.82167         0.021713      0.020192     -0.001740
     23.59093     19.88101     20.60454         0.030563     -0.015943      0.021610
     20.00000     18.85676     20.00000         0.000000      0.021627     -0.000000
     20.00000     17.51855     19.99996         0.000000     -0.045161     -0.000000
     18.72901     19.61746     20.03891         0.002132      0.024507      0.009600
     17.60773     19.18601     19.32588         0.030500     -0.019388     -0.005651
     16.40907     19.88105     19.39546        -0.030563     -0.015943     -0.021610
     16.30877     21.02434     20.17833        -0.021713      0.020192      0.001740
     17.41742     21.46894     20.88773         0.019156      0.009882      0.015881
     18.61687     20.77600     20.81330        -0.000213     -0.020420     -0.019102
     24.44750     19.53515     21.17327        -0.024475      0.008062     -0.013638
     24.62562     21.57104     19.77078         0.004458      0.000977      0.001171
     22.65048     22.36028     18.49820         0.001168     -0.012381      0.010705
     20.52464     21.13036     18.62919        -0.020898      0.011759     -0.009412
     19.07751     16.95460     20.06936        -0.002373      0.007440     -0.004416
     20.92245     16.95456     19.93056         0.002373      0.007440      0.004416
     19.47536     21.13032     21.37085         0.020898      0.011759      0.009412
     17.34952     22.36024     21.50188        -0.001168     -0.012381     -0.010705
     15.37438     21.57108     20.22926        -0.004458      0.000977     -0.001171
     15.55250     19.53519     18.82669         0.024475      0.008062      0.013638
     17.68374     18.30718     18.69617         0.005772     -0.002919     -0.002679
     22.31626     18.30714     21.30375        -0.005772     -0.002919      0.002679
 -----------------------------------------------------------------------------------
    total drift:                                0.000996     -0.115286      0.001524


--------------------------------------------------------------------------------------------------------



  FREE ENERGIE OF THE ION-ELECTRON SYSTEM (eV)
  ---------------------------------------------------
  free  energy   TOTEN  =      -196.15718657 eV

  energy  without entropy=     -196.15718657  energy(sigma->0) =     -196.15718657
 


--------------------------------------------------------------------------------------------------------


    POTLOK:  cpu time    324.9441: real time    324.9416


--------------------------------------------------------------------------------------------------------




--------------------------------------------------------------------------------------------------------


    WAVPRE:  cpu time      1.0226: real time      1.0442
    FEWALD:  cpu time      0.0067: real time      0.0067

 real space projection operators:
  total allocation   :       2863.55 KBytes
  max/ min on nodes  :        112.06         84.29

    ORTHCH:  cpu time      4.0371: real time      4.0370
    POTLOK:  cpu time    383.8998: real time    383.8967
    EDDIAG:  cpu time    310.7940: real time    310.7961
    CHARGE:  cpu time      3.2249: real time      3.2249
 writing wavefunctions
     LOOP+:  cpu time   2685.6431: real time   2688.8403


--------------------------------------- Ionic step        2  -------------------------------------------




--------------------------------------- Iteration      2(   1)  ---------------------------------------


    POTLOK:  cpu time    359.1241: real time    359.1259
    SETDIJ:  cpu time      0.1154: real time      0.1154
    TRIAL :  cpu time    354.5088: real time    354.5121
    CORREC:  cpu time      0.1948: real time      0.1948
    CHARGE:  cpu time      4.8528: real time      4.8529
    --------------------------------------------
      LOOP:  cpu time    718.8863: real time    718.8915

 eigenvalue-minimisations  :     0
 total energy-change (2. order) : 0.1291327E-01  (-0.1110269E-01)
 number of electron      67.9999999 magnetization      -0.0000000
 augmentation part        1.5647352 magnetization       0.0000000

 Free energy of the ion-electron system (eV)
  ---------------------------------------------------
  alpha Z        PSCENC =         0.33654424
  Ewald energy   TEWEN  =      8165.46495018
  -Hartree energ DENC   =     -9943.46840932
  -exchange      EXHF   =       148.77256006
  -V(xc)+E(xc)   XCENC  =       172.87195054
  PAW double counting   =      6581.84685134    -6588.41282644
  entropy T*S    EENTRO =        -0.00000000
  eigenvalues    EBANDS =      -922.14219050
  atomic energy  EATOM  =      2179.40783421
  ---------------------------------------------------
  free energy    TOTEN  =      -195.52258507 eV

  energy without entropy =     -195.52258507  energy(sigma->0) =     -195.52258507
  exchange ACFDT corr.  =        -0.00000000  see jH, gK, PRB 81, 115126


--------------------------------------------------------------------------------------------------------




--------------------------------------- Iteration      2(   2)  ---------------------------------------


    POTLOK:  cpu time    405.8116: real time    405.8128
    SETDIJ:  cpu time      0.0797: real time      0.0797
    TRIAL :  cpu time    354.9198: real time    354.9216
    CORREC:  cpu time      0.0068: real time      0.0068
    CHARGE:  cpu time      3.2818: real time      3.2819
    --------------------------------------------
      LOOP:  cpu time    764.1306: real time    764.1438

 eigenvalue-minimisations  :     0
 total energy-change (2. order) :-0.7640607E-02  (-0.4383165E-02)
 number of electron      67.9999999 magnetization      -0.0000000
 augmentation part        1.5647730 magnetization      -0.0000000

 Free energy of the ion-electron system (eV)
  ---------------------------------------------------
  alpha Z        PSCENC =         0.33654424
  Ewald energy   TEWEN  =      8165.46495018
  -Hartree energ DENC   =     -9941.96175004
  -exchange      EXHF   =       148.74797279
  -V(xc)+E(xc)   XCENC  =       172.84803157
  PAW double counting   =      6574.64451047    -6581.20804391
  entropy T*S    EENTRO =        -0.00000000
  eigenvalues    EBANDS =      -923.47744945
  atomic energy  EATOM  =      2179.40783421
  ---------------------------------------------------
  free energy    TOTEN  =      -195.53022568 eV

  energy without entropy =     -195.53022568  energy(sigma->0) =     -195.53022568
  exchange ACFDT corr.  =        -0.00000000  see jH, gK, PRB 81, 115126


--------------------------------------------------------------------------------------------------------




--------------------------------------- Iteration      2(   3)  ---------------------------------------


    POTLOK:  cpu time    392.0144: real time    392.0109
    SETDIJ:  cpu time      0.0805: real time      0.0805
    TRIAL :  cpu time    354.4643: real time    354.4652
    CORREC:  cpu time      0.0044: real time      0.0044
    CHARGE:  cpu time      3.9024: real time      3.9024
    --------------------------------------------
      LOOP:  cpu time    750.4971: real time    750.5036

 eigenvalue-minimisations  :     0
 total energy-change (2. order) :-0.2879491E-02  (-0.1378723E-02)
 number of electron      67.9999999 magnetization      -0.0000000
 augmentation part        1.5651298 magnetization      -0.0000000

 Free energy of the ion-electron system (eV)
  ---------------------------------------------------
  alpha Z        PSCENC =         0.33654424
  Ewald energy   TEWEN  =      8165.46495018
  -Hartree energ DENC   =     -9941.71551537
  -exchange      EXHF   =       148.75303265
  -V(xc)+E(xc)   XCENC  =       172.85236585
  PAW double counting   =      6569.93049860    -6576.49457392
  entropy T*S    EENTRO =        -0.00000000
  eigenvalues    EBANDS =      -923.66979391
  atomic energy  EATOM  =      2179.40783421
  ---------------------------------------------------
  free energy    TOTEN  =      -195.53310517 eV

  energy without entropy =     -195.53310517  energy(sigma->0) =     -195.53310517
  exchange ACFDT corr.  =        -0.00000000  see jH, gK, PRB 81, 115126


--------------------------------------------------------------------------------------------------------




--------------------------------------- Iteration      2(   4)  ---------------------------------------


    POTLOK:  cpu time    374.6361: real time    374.6369
    SETDIJ:  cpu time      0.0816: real time      0.0816
    TRIAL :  cpu time    352.7979: real time    352.8022
    CORREC:  cpu time      0.0147: real time      0.0147
    CHARGE:  cpu time      3.8689: real time      3.8689
    --------------------------------------------
      LOOP:  cpu time    731.4199: real time    731.4359

 eigenvalue-minimisations  :     0
 total energy-change (2. order) :-0.8308754E-03  (-0.3732391E-03)
 number of electron      67.9999999 magnetization       0.0000000
 augmentation part        1.5653152 magnetization      -0.0000000

 Free energy of the ion-electron system (eV)
  ---------------------------------------------------
  alpha Z        PSCENC =         0.33654424
  Ewald energy   TEWEN  =      8165.46495018
  -Hartree energ DENC   =     -9942.01302000
  -exchange      EXHF   =       148.76491619
  -V(xc)+E(xc)   XCENC  =       172.86371389
  PAW double counting   =      6567.82157203    -6574.38712604
  entropy T*S    EENTRO =        -0.00000000
  eigenvalues    EBANDS =      -923.37853084
  atomic energy  EATOM  =      2179.40783421
  ---------------------------------------------------
  free energy    TOTEN  =      -195.53393605 eV

  energy without entropy =     -195.53393605  energy(sigma->0) =     -195.53393605
  exchange ACFDT corr.  =        -0.00000000  see jH, gK, PRB 81, 115126


--------------------------------------------------------------------------------------------------------




--------------------------------------- Iteration      2(   5)  ---------------------------------------


    POTLOK:  cpu time    389.7283: real time    389.7266
    SETDIJ:  cpu time      0.0775: real time      0.0775
    TRIAL :  cpu time    355.5484: real time    355.5460
    CORREC:  cpu time      0.0007: real time      0.0007
    CHARGE:  cpu time      3.4860: real time      3.4859
    --------------------------------------------
      LOOP:  cpu time    748.8438: real time    748.8618

 eigenvalue-minimisations  :     0
 total energy-change (2. order) :-0.1907313E-03  (-0.9665584E-04)
 number of electron      67.9999999 magnetization       0.0000000
 augmentation part        1.5652878 magnetization      -0.0000000

 Free energy of the ion-electron system (eV)
  ---------------------------------------------------
  alpha Z        PSCENC =         0.33654424
  Ewald energy   TEWEN  =      8165.46495018
  -Hartree energ DENC   =     -9942.10058953
  -exchange      EXHF   =       148.76630947
  -V(xc)+E(xc)   XCENC  =       172.86542908
  PAW double counting   =      6566.94323827    -6573.50931872
  entropy T*S    EENTRO =        -0.00000000
  eigenvalues    EBANDS =      -923.29029146
  atomic energy  EATOM  =      2179.40783421
  ---------------------------------------------------
  free energy    TOTEN  =      -195.53412678 eV

  energy without entropy =     -195.53412678  energy(sigma->0) =     -195.53412678
  exchange ACFDT corr.  =        -0.00000000  see jH, gK, PRB 81, 115126


--------------------------------------------------------------------------------------------------------




--------------------------------------- Iteration      2(   6)  ---------------------------------------


    POTLOK:  cpu time    375.7736: real time    375.7745
    SETDIJ:  cpu time      0.1520: real time      0.1520
    TRIAL :  cpu time    355.3133: real time    355.3147
    CORREC:  cpu time      0.0123: real time      0.0123
    CHARGE:  cpu time      4.2544: real time      4.2544
    --------------------------------------------
      LOOP:  cpu time    735.5200: real time    735.5340

 eigenvalue-minimisations  :     0
 total energy-change (2. order) :-0.4136625E-04  (-0.3737625E-04)
 number of electron      67.9999999 magnetization       0.0000000
 augmentation part        1.5652354 magnetization       0.0000000

 Free energy of the ion-electron system (eV)
  ---------------------------------------------------
  alpha Z        PSCENC =         0.33654424
  Ewald energy   TEWEN  =      8165.46495018
  -Hartree energ DENC   =     -9942.01873712
  -exchange      EXHF   =       148.76262971
  -V(xc)+E(xc)   XCENC  =       172.86210966
  PAW double counting   =      6566.69766368    -6573.26356568
  entropy T*S    EENTRO =        -0.00000000
  eigenvalues    EBANDS =      -923.36076509
  atomic energy  EATOM  =      2179.40783421
  ---------------------------------------------------
  free energy    TOTEN  =      -195.53416815 eV

  energy without entropy =     -195.53416815  energy(sigma->0) =     -195.53416815
  exchange ACFDT corr.  =        -0.00000000  see jH, gK, PRB 81, 115126


--------------------------------------------------------------------------------------------------------




--------------------------------------- Iteration      2(   7)  ---------------------------------------


    POTLOK:  cpu time    329.8687: real time    329.8685
    SETDIJ:  cpu time      0.0812: real time      0.0812
    TRIAL :  cpu time    355.9026: real time    355.9039
    CORREC:  cpu time      0.1321: real time      0.1321
    CHARGE:  cpu time      3.8846: real time      3.8846
    --------------------------------------------
      LOOP:  cpu time    689.8948: real time    689.9082

 eigenvalue-minimisations  :     0
 total energy-change (2. order) :-0.2096266E-04  (-0.2208019E-04)
 number of electron      67.9999999 magnetization       0.0000000
 augmentation part        1.5652252 magnetization       0.0000000

 Free energy of the ion-electron system (eV)
  ---------------------------------------------------
  alpha Z        PSCENC =         0.33654424
  Ewald energy   TEWEN  =      8165.46495018
  -Hartree energ DENC   =     -9941.98353563
  -exchange      EXHF   =       148.76145724
  -V(xc)+E(xc)   XCENC  =       172.86084514
  PAW double counting   =      6566.76959966    -6573.33536521
  entropy T*S    EENTRO =        -0.00000000
  eigenvalues    EBANDS =      -923.39202763
  atomic energy  EATOM  =      2179.40783421
  ---------------------------------------------------
  free energy    TOTEN  =      -195.53418911 eV

  energy without entropy =     -195.53418911  energy(sigma->0) =     -195.53418911
  exchange ACFDT corr.  =        -0.00000000  see jH, gK, PRB 81, 115126


--------------------------------------------------------------------------------------------------------




--------------------------------------- Iteration      2(   8)  ---------------------------------------


    POTLOK:  cpu time    354.1669: real time    354.1662
    SETDIJ:  cpu time      0.1326: real time      0.1326
    TRIAL :  cpu time    354.8145: real time    354.8116
    CORREC:  cpu time      0.0358: real time      0.0358
    CHARGE:  cpu time      4.6495: real time      4.6495
    --------------------------------------------
      LOOP:  cpu time    713.8187: real time    713.8322

 eigenvalue-minimisations  :     0
 total energy-change (2. order) :-0.1478341E-04  (-0.1081833E-04)
 number of electron      67.9999999 magnetization       0.0000000
 augmentation part        1.5652296 magnetization       0.0000000

 Free energy of the ion-electron system (eV)
  ---------------------------------------------------
  alpha Z        PSCENC =         0.33654424
  Ewald energy   TEWEN  =      8165.46495018
  -Hartree energ DENC   =     -9942.00162186
  -exchange      EXHF   =       148.76227133
  -V(xc)+E(xc)   XCENC  =       172.86142180
  PAW double counting   =      6566.94280727    -6573.50858139
  entropy T*S    EENTRO =        -0.00000000
  eigenvalues    EBANDS =      -923.37714684
  atomic energy  EATOM  =      2179.40783421
  ---------------------------------------------------
  free energy    TOTEN  =      -195.53420389 eV

  energy without entropy =     -195.53420389  energy(sigma->0) =     -195.53420389
  exchange ACFDT corr.  =        -0.00000000  see jH, gK, PRB 81, 115126


--------------------------------------------------------------------------------------------------------




--------------------------------------- Iteration      2(   9)  ---------------------------------------


    POTLOK:  cpu time    357.0123: real time    357.0138
    SETDIJ:  cpu time      0.1407: real time      0.1406
    TRIAL :  cpu time    354.7352: real time    354.7325
    CORREC:  cpu time      0.0816: real time      0.0816
    CHARGE:  cpu time      3.5299: real time      3.5299
    --------------------------------------------
      LOOP:  cpu time    715.5295: real time    715.5369

 eigenvalue-minimisations  :     0
 total energy-change (2. order) :-0.7271020E-05  (-0.4466286E-05)
 number of electron      67.9999999 magnetization       0.0000000
 augmentation part        1.5652298 magnetization       0.0000000

 Free energy of the ion-electron system (eV)
  ---------------------------------------------------
  alpha Z        PSCENC =         0.33654424
  Ewald energy   TEWEN  =      8165.46495018
  -Hartree energ DENC   =     -9942.01858698
  -exchange      EXHF   =       148.76291393
  -V(xc)+E(xc)   XCENC  =       172.86192526
  PAW double counting   =      6567.09601107    -6573.66179521
  entropy T*S    EENTRO =        -0.00000000
  eigenvalues    EBANDS =      -923.36398259
  atomic energy  EATOM  =      2179.40783421
  ---------------------------------------------------
  free energy    TOTEN  =      -195.53421116 eV

  energy without entropy =     -195.53421116  energy(sigma->0) =     -195.53421116
  exchange ACFDT corr.  =        -0.00000000  see jH, gK, PRB 81, 115126


--------------------------------------------------------------------------------------------------------


  average scaling for gradient   1.2921


 average (electrostatic) potential at core
  the test charge radii are     0.6991  0.5201
  (the norm of the test charge is              1.0000)
       1 -54.9652       2 -55.2708       3 -54.9634       4 -54.9514       5 -54.9446
       6 -54.9537       7 -55.3512       8 -54.6728       9 -55.2708      10 -54.9652
      11 -54.9537      12 -54.9447      13 -54.9514      14 -54.9634      15 -37.8984
      16 -37.8830      17 -37.8834      18 -37.8814      19 -37.8455      20 -37.8457
      21 -37.8815      22 -37.8834      23 -37.8830      24 -37.8983      25 -37.8971
      26 -37.8975
 
 
 
 E-fermi :  -5.8753     XC(G=0):  -0.0373     alpha+bet : -0.0271

 Fermi energy:        -5.8753010671

 spin component 1

 k-point     1 :       0.0000    0.0000    0.0000
  band No.  band energies     occupation 
      1     -24.1446      1.00000
      2     -23.6898      1.00000
      3     -22.2813      1.00000
      4     -20.6960      1.00000
      5     -20.6898      1.00000
      6     -20.5401      1.00000
      7     -19.8255      1.00000
      8     -17.4052      1.00000
      9     -16.7614      1.00000
     10     -16.5261      1.00000
     11     -16.4499      1.00000
     12     -15.1522      1.00000
     13     -14.3862      1.00000
     14     -13.6966      1.00000
     15     -12.7773      1.00000
     16     -12.6203      1.00000
     17     -12.3285      1.00000
     18     -12.0552      1.00000
     19     -11.9748      1.00000
     20     -11.4291      1.00000
     21     -11.4171      1.00000
     22     -11.3257      1.00000
     23     -10.4236      1.00000
     24     -10.2281      1.00000
     25     -10.2268      1.00000
     26      -9.6386      1.00000
     27      -9.3494      1.00000
     28      -9.1440      1.00000
     29      -8.9760      1.00000
     30      -8.2310      1.00000
     31      -7.1509      1.00000
     32      -7.0366      1.00000
     33      -6.9600      1.00000
     34      -6.1446      1.00000
     35      -1.5642      0.00000
     36      -0.9527      0.00000
     37      -0.8296      0.00000
     38      -0.4764      0.00000
     39      -0.3530      0.00000
     40      -0.0953      0.00000
     41       0.0002      0.00000
     42       0.0134      0.00000
     43       0.0439      0.00000
     44       0.0932      0.00000
     45       0.0961      0.00000
     46       0.1131      0.00000
     47       0.1180      0.00000
     48       0.1259      0.00000
     49       0.1297      0.00000
     50       0.1790      0.00000
     51       0.1806      0.00000
     52       0.1835      0.00000
     53       0.1865      0.00000
     54       0.1892      0.00000
     55       0.1911      0.00000
     56       0.1911      0.00000
     57       0.1911      0.00000
     58       0.2319      0.00000
     59       0.2342      0.00000
     60       0.2389      0.00000
     61       0.2508      0.00000
     62       0.2699      0.00000
     63       0.3385      0.00000
 Fermi energy:        -5.8753010671

 spin component 2

 k-point     1 :       0.0000    0.0000    0.0000
  band No.  band energies     occupation 
      1     -24.1446      1.00000
      2     -23.6898      1.00000
      3     -22.2813      1.00000
      4     -20.6960      1.00000
      5     -20.6898      1.00000
      6     -20.5401      1.00000
      7     -19.8255      1.00000
      8     -17.4052      1.00000
      9     -16.7614      1.00000
     10     -16.5261      1.00000
     11     -16.4499      1.00000
     12     -15.1522      1.00000
     13     -14.3862      1.00000
     14     -13.6966      1.00000
     15     -12.7773      1.00000
     16     -12.6203      1.00000
     17     -12.3285      1.00000
     18     -12.0552      1.00000
     19     -11.9748      1.00000
     20     -11.4291      1.00000
     21     -11.4171      1.00000
     22     -11.3257      1.00000
     23     -10.4236      1.00000
     24     -10.2281      1.00000
     25     -10.2268      1.00000
     26      -9.6386      1.00000
     27      -9.3494      1.00000
     28      -9.1440      1.00000
     29      -8.9760      1.00000
     30      -8.2310      1.00000
     31      -7.1509      1.00000
     32      -7.0366      1.00000
     33      -6.9600      1.00000
     34      -6.1446      1.00000
     35      -1.5642      0.00000
     36      -0.9527      0.00000
     37      -0.8296      0.00000
     38      -0.4764      0.00000
     39      -0.3530      0.00000
     40      -0.0953      0.00000
     41       0.0002      0.00000
[...]


    POTLOK:  cpu time    341.4423: real time    341.4453
    SETDIJ:  cpu time      0.0785: real time      0.0785
    TRIAL :  cpu time    347.1870: real time    347.1915
    CORREC:  cpu time      0.1569: real time      0.1569
    CHARGE:  cpu time      3.6605: real time      3.6606
    --------------------------------------------
      LOOP:  cpu time    692.5462: real time    692.5624

 eigenvalue-minimisations  :     0
 total energy-change (2. order) :-0.5328901E-05  (-0.2427183E-05)
 number of electron      67.9999999 magnetization      -0.0000000
 augmentation part        1.5656077 magnetization       0.0000000

 Free energy of the ion-electron system (eV)
  ---------------------------------------------------
  alpha Z        PSCENC =         0.33654424
  Ewald energy   TEWEN  =      8166.68574031
  -Hartree energ DENC   =     -9943.20497206
  -exchange      EXHF   =       148.77186095
  -V(xc)+E(xc)   XCENC  =       172.87112222
  PAW double counting   =      6572.84900888    -6579.41565707
  entropy T*S    EENTRO =        -0.00000000
  eigenvalues    EBANDS =      -923.41119514
  atomic energy  EATOM  =      2179.40783421
  ---------------------------------------------------
  free energy    TOTEN  =      -195.53557914 eV

  energy without entropy =     -195.53557914  energy(sigma->0) =     -195.53557914
  exchange ACFDT corr.  =        -0.00000000  see jH, gK, PRB 81, 115126


--------------------------------------------------------------------------------------------------------


  average scaling for gradient   0.9433


 average (electrostatic) potential at core
  the test charge radii are     0.6991  0.5201
  (the norm of the test charge is              1.0000)
       1 -54.9629       2 -55.2716       3 -54.9614       4 -54.9506       5 -54.9427
       6 -54.9539       7 -55.3481       8 -54.6720       9 -55.2716      10 -54.9629
      11 -54.9539      12 -54.9428      13 -54.9506      14 -54.9614      15 -37.8785
      16 -37.8758      17 -37.8733      18 -37.8930      19 -37.8374      20 -37.8376
      21 -37.8931      22 -37.8734      23 -37.8758      24 -37.8784      25 -37.8914
      26 -37.8917
 
 
 
 E-fermi :  -5.8821     XC(G=0):  -0.0373     alpha+bet : -0.0271

 Fermi energy:        -5.8821487983

 spin component 1

 k-point     1 :       0.0000    0.0000    0.0000
  band No.  band energies     occupation 
      1     -24.1472      1.00000
      2     -23.6965      1.00000
      3     -22.2929      1.00000
      4     -20.6992      1.00000
      5     -20.6935      1.00000
      6     -20.5398      1.00000
      7     -19.8323      1.00000
      8     -17.4028      1.00000
      9     -16.7635      1.00000
     10     -16.5245      1.00000
     11     -16.4454      1.00000
     12     -15.1455      1.00000
     13     -14.3870      1.00000
     14     -13.7000      1.00000
     15     -12.7756      1.00000
     16     -12.6243      1.00000
     17     -12.3250      1.00000
     18     -12.0496      1.00000
     19     -11.9713      1.00000
     20     -11.4277      1.00000
     21     -11.4147      1.00000
     22     -11.3314      1.00000
     23     -10.4193      1.00000
     24     -10.2329      1.00000
     25     -10.2276      1.00000
     26      -9.6394      1.00000
     27      -9.3436      1.00000
     28      -9.1353      1.00000
     29      -8.9756      1.00000
     30      -8.2392      1.00000
     31      -7.1519      1.00000
     32      -7.0398      1.00000
     33      -6.9642      1.00000
     34      -6.1472      1.00000
     35      -1.5598      0.00000
     36      -0.9490      0.00000
     37      -0.8280      0.00000
     38      -0.4701      0.00000
     39      -0.3533      0.00000
     40      -0.0962      0.00000
     41       0.0000      0.00000
     42       0.0134      0.00000
     43       0.0439      0.00000
     44       0.0932      0.00000
     45       0.0961      0.00000
     46       0.1131      0.00000
     47       0.1180      0.00000
     48       0.1259      0.00000
     49       0.1297      0.00000
     50       0.1789      0.00000
     51       0.1805      0.00000
     52       0.1835      0.00000
     53       0.1865      0.00000
     54       0.1892      0.00000
     55       0.1911      0.00000
     56       0.1911      0.00000
     57       0.1911      0.00000
     58       0.2318      0.00000
     59       0.2342      0.00000
     60       0.2389      0.00000
     61       0.2508      0.00000
     62       0.2696      0.00000
     63       0.3305      0.00000
 Fermi energy:        -5.8821487983

 spin component 2

 k-point     1 :       0.0000    0.0000    0.0000
  band No.  band energies     occupation 
      1     -24.1472      1.00000
      2     -23.6965      1.00000
      3     -22.2929      1.00000
      4     -20.6992      1.00000
      5     -20.6935      1.00000
      6     -20.5398      1.00000
      7     -19.8323      1.00000
      8     -17.4028      1.00000
      9     -16.7635      1.00000
     10     -16.5245      1.00000
     11     -16.4454      1.00000
     12     -15.1455      1.00000
     13     -14.3870      1.00000
     14     -13.7000      1.00000
     15     -12.7756      1.00000
     16     -12.6243      1.00000
     17     -12.3250      1.00000
     18     -12.0496      1.00000
     19     -11.9713      1.00000
     20     -11.4277      1.00000
     21     -11.4147      1.00000
     22     -11.3314      1.00000
     23     -10.4193      1.00000
     24     -10.2329      1.00000
     25     -10.2276      1.00000
     26      -9.6394      1.00000
     27      -9.3436      1.00000
     28      -9.1353      1.00000
     29      -8.9756      1.00000
     30      -8.2392      1.00000
     31      -7.1519      1.00000
     32      -7.0398      1.00000
     33      -6.9642      1.00000
     34      -6.1472      1.00000
     35      -1.5598      0.00000
     36      -0.9490      0.00000
     37      -0.8280      0.00000
     38      -0.4701      0.00000
     39      -0.3533      0.00000
     40      -0.0962      0.00000
     41       0.0000      0.00000
     42       0.0134      0.00000
     43       0.0439      0.00000
     44       0.0932      0.00000
     45       0.0961      0.00000
     46       0.1131      0.00000
     47       0.1180      0.00000
     48       0.1259      0.00000
     49       0.1297      0.00000
     50       0.1789      0.00000
     51       0.1805      0.00000
     52       0.1835      0.00000
     53       0.1865      0.00000
     54       0.1892      0.00000
     55       0.1911      0.00000
     56       0.1911      0.00000
     57       0.1911      0.00000
     58       0.2318      0.00000
     59       0.2341      0.00000
     60       0.2391      0.00000
     61       0.2508      0.00000
     62       0.2699      0.00000
     63       0.3220      0.00000


--------------------------------------------------------------------------------------------------------


 soft charge-density along one line, spin component           1
         0         1         2         3         4         5         6         7         8         9
 total charge-density along one line
 
 soft charge-density along one line, spin component           2
         0         1         2         3         4         5         6         7         8         9
 total charge-density along one line
 
 pseudopotential strength for first ion, spin component:           1
  9.982  13.273   0.001  -0.001  -0.000  -0.003   0.002   0.000
 13.273  17.648   0.001  -0.001  -0.000  -0.004   0.003   0.000
  0.001   0.001  -4.201  -0.001   0.000   8.192   0.002  -0.001
 -0.001  -0.001  -0.001  -4.201  -0.000   0.002   8.192  -0.001
 -0.000  -0.000   0.000  -0.000  -4.202  -0.001  -0.001   8.192
 -0.003  -0.004   8.192   0.002  -0.001 -18.087  -0.007   0.004
  0.002   0.003   0.002   8.192  -0.001  -0.007 -18.090   0.003
  0.000   0.000  -0.001  -0.001   8.192   0.004   0.003 -18.084
 pseudopotential strength for first ion, spin component:           2
  9.982  13.273   0.001  -0.001  -0.000  -0.003   0.002   0.000
 13.273  17.648   0.001  -0.001  -0.000  -0.004   0.003   0.000
  0.001   0.001  -4.201  -0.001   0.000   8.192   0.002  -0.001
 -0.001  -0.001  -0.001  -4.201  -0.000   0.002   8.192  -0.001
 -0.000  -0.000   0.000  -0.000  -4.202  -0.001  -0.001   8.192
 -0.003  -0.004   8.192   0.002  -0.001 -18.087  -0.007   0.004
  0.002   0.003   0.002   8.192  -0.001  -0.007 -18.090   0.003
  0.000   0.000  -0.001  -0.001   8.192   0.004   0.003 -18.084
 total augmentation occupancy for first ion, spin component:           1
  8.926  -4.045   0.200  -0.127   0.026   0.041  -0.027   0.004
 -4.045   1.871  -0.129   0.085  -0.015  -0.025   0.016  -0.002
  0.200  -0.129   1.587  -0.275   0.127   0.136  -0.038   0.017
 -0.127   0.085  -0.275   1.424   0.158  -0.038   0.113   0.024
  0.026  -0.015   0.127   0.158   1.839   0.017   0.024   0.176
  0.041  -0.025   0.136  -0.038   0.017   0.012  -0.005   0.002
 -0.027   0.016  -0.038   0.113   0.024  -0.005   0.010   0.003
  0.004  -0.002   0.017   0.024   0.176   0.002   0.003   0.018
 total augmentation occupancy for first ion, spin component:           2
  0.000  -0.000   0.000   0.000   0.000   0.000   0.000   0.000
 -0.000   0.000  -0.000  -0.000  -0.000  -0.000  -0.000  -0.000
  0.000  -0.000  -0.000  -0.000   0.000   0.000   0.000   0.000
  0.000  -0.000  -0.000  -0.000   0.000  -0.000  -0.000  -0.000
  0.000  -0.000   0.000   0.000  -0.000  -0.000   0.000  -0.000
  0.000  -0.000   0.000  -0.000  -0.000   0.000  -0.000   0.000
  0.000  -0.000   0.000  -0.000   0.000  -0.000  -0.000  -0.000
  0.000  -0.000   0.000  -0.000  -0.000   0.000  -0.000  -0.000


------------------------ aborting loop because EDIFF is reached ----------------------------------------


    FORLOC:  cpu time      0.3260: real time      0.3260
    FORHF :  cpu time    193.9723: real time    193.9711
    FORNL :  cpu time      8.8662: real time      8.8662
    STRESS:  cpu time     26.3106: real time     26.3105
    FORCOR:  cpu time     17.4849: real time     17.4849
    OFIELD:  cpu time      0.0254: real time      0.0254

 ---------------------------------------------------------------------------------------------

         DFTD3 V3.0 Rev 1        
 Edisp (eV)   -0.62169

 E6    (eV) :    -0.3168
 E8    (eV) :    -0.3048
 % E8        : 49.04
    FORVDW:  cpu time      0.0132: real time      0.0132

  FORCE on cell =-STRESS in cart. coord.  units (eV):
  Direction    XX          YY          ZZ          XY          YZ          ZX
  --------------------------------------------------------------------------------------
  Alpha Z     0.33654     0.33654     0.33654
  Ewald    5073.15890  2542.60565   550.91959    -0.02273     0.01966   477.73012
  Hartree  5197.56611  3048.07988  1697.56128    -0.01458     0.01533   234.50161
  E(xc)    -185.96823  -186.64579  -187.94168    -0.00002     0.00002     0.54966
  Local  -10899.23257 -6241.39045 -2953.35072     0.03638    -0.03520  -687.33079
  n-local   -75.42978   -74.29206   -71.59934    -0.00000    -0.00001    -1.62284
  augment    -3.76295    -3.73067    -3.62238     0.00000     0.00001    -0.05143
  Kinetic   960.26888   980.27943  1027.60367     0.00113    -0.00080   -21.18273
  Fock      -66.01015   -64.88842   -61.69935     0.00005    -0.00003    -1.40405
  vdW        -0.35975    -0.14720    -0.04315     0.00000    -0.00000     0.01661
  -------------------------------------------------------------------------------------
  Total       0.56701     0.20691    -1.83554     0.00000     0.00000     1.20616
  in kB       0.01419     0.00518    -0.04595     0.00000     0.00000     0.03020
  external pressure =       -0.01 kB  Pullay stress =        0.00 kB


 VOLUME and BASIS-vectors are now :
 -----------------------------------------------------------------------------
  energy-cutoff  :      500.00
  volume of cell :    64000.00
      direct lattice vectors                 reciprocal lattice vectors
    40.000000000  0.000000000  0.000000000     0.025000000  0.000000000  0.000000000
     0.000000000 40.000000000  0.000000000     0.000000000  0.025000000  0.000000000
     0.000000000  0.000000000 40.000000000     0.000000000  0.000000000  0.025000000

  length of vectors
    40.000000000 40.000000000 40.000000000     0.025000000  0.025000000  0.025000000


 FORCES acting on ions:
    Electron-Ion                     Ewald-Force                    Non-Local-Force
 -----------------------------------------------------------------------------------------------
   -.102E+03 0.138E+03 -.121E+03   0.102E+03 -.139E+03 0.122E+03   -.219E-01 0.940E+00 -.795E+00
   -.287E+02 0.394E+02 0.343E+01   0.289E+02 -.394E+02 -.360E+01   -.172E+00 0.163E-01 -.306E-01
   0.272E+02 -.112E+03 0.134E+03   -.280E+02 0.113E+03 -.135E+03   0.881E+00 -.594E+00 0.550E+00
   -.821E+02 -.182E+03 0.121E+03   0.821E+02 0.182E+03 -.122E+03   -.159E+00 -.968E+00 0.578E+00
   -.216E+03 -.109E+03 0.139E+02   0.216E+03 0.109E+03 -.141E+02   -.102E+01 -.535E+00 0.121E+00
   -.213E+03 0.487E+02 -.994E+02   0.214E+03 -.488E+02 0.996E+02   -.948E+00 0.307E+00 -.512E+00
   0.813E-03 0.820E+02 -.356E-02   -.736E-03 -.825E+02 0.358E-02   0.000E+00 0.677E+00 0.000E+00
   0.852E-04 0.262E+03 0.686E-02   -.360E-03 -.262E+03 -.701E-02   0.000E+00 0.108E+01 0.000E+00
   0.287E+02 0.394E+02 -.343E+01   -.289E+02 -.394E+02 0.360E+01   0.172E+00 0.163E-01 0.306E-01
   0.102E+03 0.138E+03 0.121E+03   -.102E+03 -.139E+03 -.122E+03   0.219E-01 0.940E+00 0.795E+00
   0.213E+03 0.487E+02 0.994E+02   -.214E+03 -.488E+02 -.996E+02   0.948E+00 0.307E+00 0.512E+00
   0.216E+03 -.109E+03 -.139E+02   -.216E+03 0.109E+03 0.141E+02   0.102E+01 -.535E+00 -.121E+00
   0.821E+02 -.182E+03 -.121E+03   -.821E+02 0.182E+03 0.122E+03   0.159E+00 -.968E+00 -.578E+00
   -.272E+02 -.112E+03 -.134E+03   0.280E+02 0.113E+03 0.135E+03   -.881E+00 -.594E+00 -.550E+00
   -.773E+02 0.252E+02 -.449E+02   0.818E+02 -.270E+02 0.479E+02   -.456E+01 0.184E+01 -.302E+01
   -.807E+02 -.445E+02 0.463E+01   0.856E+02 0.474E+02 -.491E+01   -.498E+01 -.291E+01 0.272E+00
   -.180E+02 -.749E+02 0.512E+02   0.183E+02 0.795E+02 -.544E+02   -.363E+00 -.474E+01 0.326E+01
   0.381E+02 -.448E+02 0.621E+02   -.428E+02 0.466E+02 -.650E+02   0.457E+01 -.191E+01 0.298E+01
   0.473E+02 0.747E+02 -.647E+01   -.523E+02 -.776E+02 0.692E+01   0.487E+01 0.300E+01 -.378E+00
   -.473E+02 0.747E+02 0.647E+01   0.523E+02 -.776E+02 -.692E+01   -.487E+01 0.300E+01 0.378E+00
   -.381E+02 -.448E+02 -.621E+02   0.428E+02 0.466E+02 0.650E+02   -.457E+01 -.191E+01 -.298E+01
   0.180E+02 -.749E+02 -.512E+02   -.183E+02 0.795E+02 0.544E+02   0.363E+00 -.474E+01 -.326E+01
   0.807E+02 -.445E+02 -.464E+01   -.856E+02 0.474E+02 0.491E+01   0.498E+01 -.291E+01 -.272E+00
   0.773E+02 0.252E+02 0.449E+02   -.818E+02 -.270E+02 -.479E+02   0.456E+01 0.184E+01 0.302E+01
   0.210E+02 0.690E+02 0.582E+02   -.204E+02 -.737E+02 -.616E+02   -.398E+00 0.467E+01 0.337E+01
   -.210E+02 0.691E+02 -.582E+02   0.204E+02 -.737E+02 0.616E+02   0.398E+00 0.467E+01 -.337E+01
 -----------------------------------------------------------------------------------------------
   0.996E-03 -.931E-01 0.153E-02   -.146E-12 -.128E-12 -.711E-13   0.000E+00 -.219E-01 0.000E+00
 
 
 POSITION                                       TOTAL-FORCE (eV/Angst)
 -----------------------------------------------------------------------------------
     22.39198     19.18578     20.67417        -0.001699     -0.001341      0.000494
     21.27097     19.61769     19.96100        -0.005236      0.003957      0.004666
     21.38313     20.77581     19.18692        -0.008536      0.006543     -0.002913
     22.58240     21.46903     19.11216        -0.002861     -0.004021      0.000840
     23.69143     21.02449     19.82166        -0.000462      0.002494      0.002634
     23.59122     19.88086     20.60475        -0.010139     -0.004925     -0.001316
     20.00000     18.85697     20.00000         0.000000     -0.012660      0.000000
     20.00000     17.51812     19.99996         0.000000      0.007819      0.000000
     18.72903     19.61769     20.03900         0.005236      0.003957     -0.004666
     17.60802     19.18582     19.32583         0.001699     -0.001341     -0.000494
     16.40878     19.88090     19.39525         0.010139     -0.004925      0.001316
     16.30857     21.02453     20.17834         0.000462      0.002494     -0.002634
     17.41760     21.46903     20.88788         0.002861     -0.004021     -0.000840
     18.61687     20.77581     20.81312         0.008536      0.006543      0.002913
     24.44727     19.53523     21.17314        -0.008116      0.000026     -0.002250
     24.62566     21.57105     19.77079         0.010498      0.005356      0.000223
     22.65049     22.36016     18.49830        -0.000816     -0.005033      0.004204
     20.52444     21.13048     18.62910        -0.011994      0.005892     -0.002075
     19.07749     16.95468     20.06932        -0.007939      0.001303     -0.003869
     20.92247     16.95464     19.93060         0.007939      0.001303      0.003869
     19.47556     21.13044     21.37094         0.011994      0.005892      0.002075
     17.34951     22.36012     21.50178         0.000816     -0.005033     -0.004204
     15.37434     21.57109     20.22925        -0.010498      0.005356     -0.000223
     15.55273     19.53527     18.82682         0.008116      0.000026      0.002250
     17.68379     18.30715     18.69614         0.009495     -0.007830     -0.004887
     22.31621     18.30711     21.30378        -0.009495     -0.007830      0.004887
 -----------------------------------------------------------------------------------
    total drift:                                0.000996     -0.108279      0.001527


--------------------------------------------------------------------------------------------------------



  FREE ENERGIE OF THE ION-ELECTRON SYSTEM (eV)
  ---------------------------------------------------
  free  energy   TOTEN  =      -196.15726870 eV

  energy  without entropy=     -196.15726870  energy(sigma->0) =     -196.15726870
 
 d Force = 0.1312575E-02[-0.218E-04, 0.265E-02]  d Energy = 0.1353975E-02-0.414E-04
 d Force =-0.1220790E+01[-0.122E+01,-0.122E+01]  d Ewald  =-0.1220790E+01-0.187E-06


--------------------------------------------------------------------------------------------------------


    POTLOK:  cpu time    343.2468: real time    343.2442


--------------------------------------------------------------------------------------------------------




--------------------------------------------------------------------------------------------------------


  
 reached required accuracy - stopping structural energy minimisation
 writing wavefunctions
     LOOP+:  cpu time   7083.5997: real time   7084.6242
    4ORBIT:  cpu time      0.0000: real time      0.0000

 total amount of memory used by VASP MPI-rank0   539565. kBytes
=======================================================================

   base      :      30000. kBytes
   nonlr-proj:       7781. kBytes
   fftplans  :     129164. kBytes
   grid      :     263386. kBytes
   one-center:          6. kBytes
   HF        :          4. kBytes
   wavefun   :     109224. kBytes
   fock_wrk  :          0. kBytes
 
  
  
 General timing and accounting informations for this job:
 ========================================================
  
                  Total CPU time used (sec):    17760.629
                            User time (sec):     8865.258
                          System time (sec):     8895.371
                         Elapsed time (sec):    17767.413
  
                   Maximum memory used (kb):     1557976.
                   Average memory used (kb):          N/A
  
                          Minor page faults:    428824324
                          Major page faults:            0
                 Voluntary context switches:         9072
