
                                 *****************
                                 * O   R   C   A *
                                 *****************

                                            #,                                       
                                            ###                                      
                                            ####                                     
                                            #####                                    
                                            ######                                   
                                           ########,                                 
                                     ,,################,,,,,                         
                               ,,#################################,,                 
                          ,,##########################################,,             
                       ,#########################################, ''#####,          
                    ,#############################################,,   '####,        
                  ,##################################################,,,,####,       
                ,###########''''           ''''###############################       
              ,#####''   ,,,,##########,,,,          '''####'''          '####       
            ,##' ,,,,###########################,,,                        '##       
           ' ,,###''''                  '''############,,,                           
         ,,##''                                '''############,,,,        ,,,,,,###''
      ,#''                                            '''#######################'''  
     '                                                          ''''####''''         
             ,#######,   #######,   ,#######,      ##                                
            ,#'     '#,  ##    ##  ,#'     '#,    #''#        ,####,   ,####,        
            ##       ##  ##   ,#'  ##            #'  '#       #'       #'  '#        
            ##       ##  #######   ##           ,######,      #####,   #    #        
            '#,     ,#'  ##    ##  '#,     ,#' ,#      #,     #,   #   #,  ,#        
             '#######'   ##     ##  '#######'  #'      '#     '####' # '####'        



                #########################################################
                #                        -***-                          #
                #          Department of theory and spectroscopy        #
                #                                                       #
                #                      Frank Neese                      #
                #                                                       #
                #     Directorship, Architecture, Infrastructure        #
                #                    SHARK, DRIVERS                     #
                #        Core code/Algorithms in most modules           #
                #                                                       #
                #        Max Planck Institute fuer Kohlenforschung      #
                #                Kaiser Wilhelm Platz 1                 #
                #                 D-45470 Muelheim/Ruhr                 #
                #                      Germany                          #
                #                                                       #
                #                  All rights reserved                  #
                #                        -***-                          #
                #########################################################


                         Program Version 6.0.0  -   RELEASE  -


 With contributions from (in alphabetic order):
   Daniel Aravena         : Magnetic Suceptibility
   Michael Atanasov       : Ab Initio Ligand Field Theory (pilot matlab implementation)
   Alexander A. Auer      : GIAO ZORA, VPT2 properties, NMR spectrum
   Ute Becker             : All parallelization in ORCA, NUMFREQ, NUMCALC
   Giovanni Bistoni       : ED, misc. LED, open-shell LED, HFLD
   Martin Brehm           : Molecular dynamics
   Dmytro Bykov           : pre 5.0 version of the SCF Hessian
   Marcos Casanova-Páez   : Triplet and SCS-CIS(D). UHF-(DLPNO)-IP/EA/STEOM-CCSD. UHF-CVS-IP/STEOM-CCSD
   Vijay G. Chilkuri      : MRCI spin determinant printing, contributions to CSF-ICE
   Pauline Colinet        : FMM embedding
   Dipayan Datta          : RHF DLPNO-CCSD density
   Achintya Kumar Dutta   : EOM-CC, STEOM-CC
   Nicolas Foglia         : Exact transition moments, OPA infrastructure, MCD improvements
   Dmitry Ganyushin       : Spin-Orbit,Spin-Spin,Magnetic field MRCI
   Miquel Garcia          : C-PCM and meta-GGA Hessian, CCSD/C-PCM, Gaussian charge scheme
   Tiago L. C. Gouveia    : GS-ROHF, GS-ROCIS
   Yang Guo               : DLPNO-NEVPT2, F12-NEVPT2, CIM, IAO-localization
   Andreas Hansen         : Spin unrestricted coupled pair/coupled cluster methods
   Ingolf Harden          : AUTO-CI MPn and infrastructure 
   Benjamin Helmich-Paris : MC-RPA, TRAH-(SCF,CASSCF), AVAS, COSX integrals, SCF dyn. polar.
   Lee Huntington         : MR-EOM, pCC
   Robert Izsak           : Overlap fitted RIJCOSX, COSX-SCS-MP3, EOM
   Riya Kayal             : Wick's Theorem for AUTO-CI, AUTO-CI UHF-CCSDT
   Emily Kempfer          : AUTO-CI, RHF CISDT and CCSDT
   Christian Kollmar      : KDIIS, OOCD, Brueckner-CCSD(T), CCSD density, CASPT2, CASPT2-K, improved NEVPT2
   Axel Koslowski         : Symmetry handling
   Simone Kossmann        : Meta GGA functionals, TD-DFT gradient, OOMP2, (MP2 Hessian; deprecated post 5.0)
   Lucas Lang             : DCDCAS
   Marvin Lechner         : AUTO-CI (C++ implementation), FIC-MRCC
   Spencer Leger          : CASSCF response
   Dagmar Lenk            : GEPOL surface, SMD, ORCA-2-JSON
   Dimitrios Liakos       : Extrapolation schemes; Compound Job, initial MDCI parallelization
   Dimitrios Manganas     : Further ROCIS development; embedding schemes. LFT, Crystal Embedding
   Dimitrios Pantazis     : SARC Basis sets
   Anastasios Papadopoulos: AUTO-CI, single reference methods and gradients
   Taras Petrenko         : pre 6.0 DFT Hessian and TD-DFT gradient, (ASA, deprecated), ECA, 1-Electron XAS/XES, NRVS
   Peter Pinski           : DLPNO-MP2, DLPNO-MP2 Gradient
   Christoph Reimann      : Effective Core Potentials
   Marius Retegan         : Local ZFS, SOC
   Christoph Riplinger    : Optimizer, TS searches, QM/MM, DLPNO-CCSD(T), (RO)-DLPNO pert. Triples
   Michael Roemelt        : Original ROCIS implementation
   Masaaki Saitow         : Open-shell DLPNO-CCSD energy and density
   Barbara Sandhoefer     : DKH picture change effects
   Kantharuban Sivalingam : CASSCF convergence/infrastructure, NEVPT2 and variants, FIC-MRCI
   Bernardo de Souza      : ESD, SOC TD-DFT
   Georgi Stoychev        : AutoAux, RI-MP2 NMR, DLPNO-MP2 response, X2C
   Van Anh Tran           : RI-MP2 g-tensors
   Willem Van den Heuvel  : Paramagnetic NMR
   Zikuan Wang            : NOTCH, Electric field optimization 
   Frank Wennmohs         : Technical directorship and infrastructure
   Hang Xu                : AUTO-CI-Response properties 


 We gratefully acknowledge several colleagues who have allowed us to
 interface, adapt or use parts of their codes:
   Stefan Grimme, W. Hujo, H. Kruse, P. Pracht,  : VdW corrections, initial TS optimization,
                  C. Bannwarth, S. Ehlert,         DFT functionals, gCP, sTDA/sTD-DF
                  L. Wittmann, M. Mueller
   Ed Valeev, F. Pavosevic, A. Kumar             : LibInt (2-el integral package), F12 methods
   Garnet Chan, S. Sharma, J. Yang, R. Olivares  : DMRG
   Ulf Ekstrom                                   : XCFun DFT Library
   Mihaly Kallay                                 : mrcc  (arbitrary order and MRCC methods)
   Frank Weinhold                                : gennbo (NPA and NBO analysis)
   Simon Mueller                                 : openCOSMO-RS
   Christopher J. Cramer and Donald G. Truhlar   : smd solvation model
   Lars Goerigk                                  : TD-DFT with DH, B97 family of functionals
   V. Asgeirsson, H. Jonsson                     : NEB implementation
   FAccTs GmbH                                   : IRC, NEB, NEB-TS, DLPNO-Multilevel, CI-OPT
                                                   MM, QMMM, 2- and 3-layer-ONIOM, Crystal-QMMM,
                                                   LR-CPCM, SF, NACMEs, symmetry and pop. for TD-DFT,
                                                   nearIR, NL-DFT gradient (VV10), updates on ESD,
                                                   ML-optimized integration grids, MBIS, APM,
                                                   GOAT, DOCKER, SOLVATOR, interface openCOSMO-RS
   S Lehtola, MJT Oliveira, MAL Marques          : LibXC Library
   Liviu Ungur et al                             : ANISO software


 Your calculation uses the libint2 library for the computation of 2-el integrals
 For citations please refer to: http://libint.valeyev.net

 Your ORCA version has been built with support for libXC version: 6.2.2
 For citations please refer to: https://libxc.gitlab.io

 This ORCA versions uses:
   CBLAS   interface :  Fast vector & matrix operations
   LAPACKE interface :  Fast linear algebra routines
   SCALAPACK package :  Parallel linear algebra routines
   Shared memory     :  Shared parallel matrices
   BLAS/LAPACK       :  OpenBLAS 0.3.27  USE64BITINT DYNAMIC_ARCH NO_AFFINITY Sandybridge SINGLE_THREADED
        Core in use  :  Sandybridge
   Copyright (c) 2011-2014, The OpenBLAS Project


NOTE: MaxCore=3500 MB was set to SCF,MP2,MDCI,CIPSI,MRCI and CIS
      => If you want to overwrite this, your respective input block should be placed after the MaxCore statement
Your calculation utilizes the atom-pairwise dispersion correction
with the Becke-Johnson damping scheme (D3BJ)


Your calculation utilizes the SMD solvation module
Please cite in your paper:
A.V. Marenich, C.J. Cramer, D.G. Truhlar J. Phys. Chem. B, 113, (2009), 6378 

Warning: RI is on but no J-basis has been assigned. Assigning Def2/J (nothing to worry about!)
================================================================================

----- Orbital basis set information -----
Your calculation utilizes the basis: aug-cc-pVTZ 
    H, B-Ne : Obtained from the ccRepo (grant-hill.group.shef.ac.uk/ccrepo) Feb. 2017
              R. A. Kendall, T. H. Dunning, Jr., R. J. Harrison, J. Chem. Phys. 96, 6796 (1992)
         He : Obtained from the ccRepo (grant-hill.group.shef.ac.uk/ccrepo) Feb. 2017
              D. E. Woon, T. H. Dunning, Jr., J. Chem. Phys. 100, 2975 (1994)
  Li-Be, Na : Obtained from the ccRepo (grant-hill.group.shef.ac.uk/ccrepo) Feb. 2017
              B. P. Prascher, D. E. Woon, K. A. Peterson, T. H. Dunning, Jr., A. K. Wilson, Theor. Chem. Acc. 128, 69 (2011)
         Mg : Obtained from the Peterson Research Group Website (tyr0.chem.wsu.edu/~kipeters) Feb. 2017
              B. P. Prascher, D. E. Woon, K. A. Peterson, T. H. Dunning, Jr., A. K. Wilson, Theor. Chem. Acc. 128, 69 (2011)
      Al-Ar : Obtained from the ccRepo (grant-hill.group.shef.ac.uk/ccrepo) Feb. 2017
              D. E. Woon, T. H. Dunning, Jr., J. Chem. Phys. 98, 1358 (1993)
      Sc-Zn : Obtained from the ccRepo (grant-hill.group.shef.ac.uk/ccrepo) Feb. 2017
              N. B. Balabanov, K. A. Peterson, J. Chem. Phys. 123, 064107 (2005)
              N. B. Balabanov, K. A. Peterson, J. Chem. Phys. 125, 074110 (2006)
      Ga-Kr : Obtained from the ccRepo (grant-hill.group.shef.ac.uk/ccrepo) Feb. 2017
              A. K. Wilson, D. E. Woon, K. A. Peterson, T. H. Dunning, Jr., J. Chem. Phys. 110, 7667 (1999)
     Ag, Au : Obtained from the Peterson Research Group Website (tyr0.chem.wsu.edu/~kipeters) Feb. 2017
              K. A. Peterson, C. Puzzarini, Theor. Chem. Acc. 114, 283 (2005)

----- AuxJ basis set information -----
Your calculation utilizes the auxiliary basis: def2/J
   F. Weigend, Phys. Chem. Chem. Phys. 8, 1057 (2006).

================================================================================
                                        WARNINGS
                       Please study these warnings very carefully!
================================================================================

Using LibXC functional ID 497 : Re-regularized SCAN exchange by Furness et al
[ 1]  J. W. Furness, A. D. Kaplan, J. Ning, J. P. Perdew, and J. Sun.,  J. Phys. Chem. Lett. 11, 8208-8215 (2020)
[ 2]  J. W. Furness, A. D. Kaplan, J. Ning, J. P. Perdew, and J. Sun.,  J. Phys. Chem. Lett. 11, 9248-9248 (2020)
Using LibXC functional ID 498 : Re-regularized SCAN correlation by Furness et al
[ 1]  J. W. Furness, A. D. Kaplan, J. Ning, J. P. Perdew, and J. Sun.,  J. Phys. Chem. Lett. 11, 8208-8215 (2020)
[ 2]  J. W. Furness, A. D. Kaplan, J. Ning, J. P. Perdew, and J. Sun.,  J. Phys. Chem. Lett. 11, 9248-9248 (2020)
Using LibXC functional ID 497 : Re-regularized SCAN exchange by Furness et al
[ 1]  J. W. Furness, A. D. Kaplan, J. Ning, J. P. Perdew, and J. Sun.,  J. Phys. Chem. Lett. 11, 8208-8215 (2020)
[ 2]  J. W. Furness, A. D. Kaplan, J. Ning, J. P. Perdew, and J. Sun.,  J. Phys. Chem. Lett. 11, 9248-9248 (2020)
Using LibXC functional ID 498 : Re-regularized SCAN correlation by Furness et al
[ 1]  J. W. Furness, A. D. Kaplan, J. Ning, J. P. Perdew, and J. Sun.,  J. Phys. Chem. Lett. 11, 8208-8215 (2020)
[ 2]  J. W. Furness, A. D. Kaplan, J. Ning, J. P. Perdew, and J. Sun.,  J. Phys. Chem. Lett. 11, 9248-9248 (2020)

WARNING: your system is open-shell and RHF/RKS was chosen
  ===> : WILL SWITCH to UHF/UKS


WARNING: Geometry Optimization
  ===> : Switching off AutoStart
         For restart on a previous wavefunction, please use MOREAD

================================================================================
                                       INPUT FILE
================================================================================
NAME = cs_rporg_075_ox_opt_07.inp
|  1> !r2SCANh opt aug-cc-pVTZ d3 TightSCF SlowConv RIJCOSX defgrid2
|  2> 
|  3> %pal
|  4> nprocs 8
|  5> end
|  6> 
|  7> %scf
|  8> MaxIter 1500
|  9> end
| 10> 
| 11> %maxcore 3500
| 12> 
| 13> !CPCM
| 14> %cpcm smd true
| 15> SMDsolvent "MeCN"
| 16> surfacetype gepol_ses
| 17> rsolv 2.19
| 18> end 
| 19> 
| 20> * xyz 1 2
| 21> C          -0.22428548195010     -1.24213438922305     -0.03849982740281
| 22> C           1.14800811610277     -1.22870080724969      0.00227297677880
| 23> C           1.84566180598227     -0.00004019353139      0.02297012210753
| 24> C           1.14805042698559      1.22864411313713      0.00227054482980
| 25> C          -0.22424154749405      1.24212983950181     -0.03850931873892
| 26> C          -0.94084900168795      0.00001024661649     -0.05989305493678
| 27> N          -2.26985305582395      0.00003075135377     -0.09979281491323
| 28> H          -2.80165535396914      0.86997483968693     -0.11591197867223
| 29> H          -2.80167508667297     -0.86990117124685     -0.11590823438470
| 30> H          -0.77890173993705      2.18488554366972     -0.05504522287995
| 31> H           1.70373713208460      2.16980587419055      0.01885237386387
| 32> H           2.93889913121278     -0.00005967561260      0.05550059305168
| 33> H           1.70365895934134     -2.16988118368011      0.01885253182221
| 34> H          -0.77898600417414     -2.18486378761269     -0.05503389052528
| 35> *
| 36> 
| 37>                          ****END OF INPUT****
================================================================================

                       *****************************
                       * Geometry Optimization Run *
                       *****************************

Geometry optimization settings:
Update method            Update   .... BFGS
Choice of coordinates    CoordSys .... (2022) Redundant Internals
Initial Hessian          InHess   .... Almloef's Model
Max. no of cycles        MaxIter  .... 50

Convergence Tolerances:
Energy Change            TolE     ....  5.0000e-06 Eh
Max. Gradient            TolMAXG  ....  3.0000e-04 Eh/bohr
RMS Gradient             TolRMSG  ....  1.0000e-04 Eh/bohr
Max. Displacement        TolMAXD  ....  4.0000e-03 bohr
RMS Displacement         TolRMSD  ....  2.0000e-03 bohr
Strict Convergence                .... False

------------------------------------------------------------------------------
                        ORCA OPTIMIZATION COORDINATE SETUP
------------------------------------------------------------------------------

The optimization will be done in redundant internal coordinates (2022)
Making redundant internal coordinates   ...  (2022 redundants) done
Evaluating the initial hessian          ...  (Almloef) done
Evaluating the coordinates              ...  done
Calculating the B-matrix                .... done
Calculating the G-matrix                .... done
Diagonalizing the G-matrix              .... done
The first mode is                       ....   27
The number of degrees of freedom        ....   36

    -----------------------------------------------------------------
                    Redundant Internal Coordinates


    -----------------------------------------------------------------
         Definition                    Initial Value    Approx d2E/dq
    -----------------------------------------------------------------
      1. B(C   1,C   0)                  1.3730         0.665146   
      2. B(C   2,C   1)                  1.4131         0.574034   
      3. B(C   3,C   2)                  1.4131         0.574035   
      4. B(C   4,C   3)                  1.3730         0.665148   
      5. B(C   5,C   4)                  1.4342         0.531212   
      6. B(C   5,C   0)                  1.4342         0.531212   
      7. B(N   6,C   5)                  1.3296         0.698611   
      8. B(H   7,N   6)                  1.0197         0.417494   
      9. B(H   8,N   6)                  1.0197         0.417494   
     10. B(H   9,C   4)                  1.0939         0.354922   
     11. B(H  10,C   3)                  1.0931         0.356034   
     12. B(H  11,C   2)                  1.0937         0.355211   
     13. B(H  12,C   1)                  1.0931         0.356037   
     14. B(H  13,C   0)                  1.0939         0.354925   
     15. A(C   1,C   0,H  13)          121.0442         0.356264   
     16. A(C   1,C   0,C   5)          119.4301         0.427547   
     17. A(C   5,C   0,H  13)          119.5257         0.343003   
     18. A(C   0,C   1,C   2)          120.1601         0.433540   
     19. A(C   2,C   1,H  12)          119.8328         0.347682   
     20. A(C   0,C   1,H  12)          120.0072         0.356453   
     21. A(C   3,C   2,H  11)          119.5985         0.347546   
     22. A(C   1,C   2,H  11)          119.5984         0.347546   
     23. A(C   1,C   2,C   3)          120.8031         0.422241   
     24. A(C   2,C   3,H  10)          119.8326         0.347682   
     25. A(C   2,C   3,C   4)          120.1603         0.433540   
     26. A(C   4,C   3,H  10)          120.0071         0.356453   
     27. A(C   5,C   4,H   9)          119.5262         0.343002   
     28. A(C   3,C   4,H   9)          121.0439         0.356264   
     29. A(C   3,C   4,C   5)          119.4299         0.427547   
     30. A(C   0,C   5,N   6)          119.9916         0.428512   
     31. A(C   0,C   5,C   4)          120.0167         0.410749   
     32. A(C   4,C   5,N   6)          119.9918         0.428512   
     33. A(H   7,N   6,H   8)          117.0999         0.299814   
     34. A(C   5,N   6,H   8)          121.4498         0.363819   
     35. A(C   5,N   6,H   7)          121.4503         0.363819   
     36. D(H  12,C   1,C   0,C   5)   -179.9995         0.030907   
     37. D(C   2,C   1,C   0,C   5)      0.0033         0.030907   
     38. D(C   2,C   1,C   0,H  13)    179.9953         0.030907   
     39. D(H  12,C   1,C   0,H  13)     -0.0075         0.030907   
     40. D(C   3,C   2,C   1,C   0)      0.0028         0.022618   
     41. D(C   3,C   2,C   1,H  12)   -179.9944         0.022618   
     42. D(H  11,C   2,C   1,H  12)     -0.0001         0.022618   
     43. D(H  11,C   2,C   1,C   0)    179.9971         0.022618   
     44. D(H  10,C   3,C   2,H  11)     -0.0001         0.022618   
     45. D(H  10,C   3,C   2,C   1)    179.9942         0.022618   
     46. D(C   4,C   3,C   2,H  11)   -179.9974         0.022618   
     47. D(C   4,C   3,C   2,C   1)     -0.0031         0.022618   
     48. D(H   9,C   4,C   3,C   2)   -179.9953         0.030908   
     49. D(C   5,C   4,C   3,H  10)   -179.9999         0.030908   
     50. D(C   5,C   4,C   3,C   2)     -0.0026         0.030908   
     51. D(H   9,C   4,C   3,H  10)      0.0074         0.030908   
     52. D(N   6,C   5,C   4,H   9)      0.0130         0.019264   
     53. D(C   0,C   5,C   4,H   9)   -179.9986         0.019264   
     54. D(C   0,C   5,C   4,C   3)      0.0086         0.019264   
     55. D(N   6,C   5,C   0,H  13)     -0.0126         0.019264   
     56. D(N   6,C   5,C   0,C   1)    179.9795         0.019264   
     57. D(N   6,C   5,C   4,C   3)   -179.9798         0.019264   
     58. D(C   4,C   5,C   0,H  13)    179.9989         0.019264   
     59. D(C   4,C   5,C   0,C   1)     -0.0090         0.019264   
     60. D(H   8,N   6,C   5,C   4)    179.9842         0.040372   
     61. D(H   8,N   6,C   5,C   0)     -0.0043         0.040372   
     62. D(H   7,N   6,C   5,C   4)      0.0041         0.040372   
     63. D(H   7,N   6,C   5,C   0)   -179.9844         0.040372   
    -----------------------------------------------------------------

Number of atoms                         .... 14
Number of degrees of freedom            .... 63


         *************************************************************
         *                GEOMETRY OPTIMIZATION CYCLE   1            *
         *************************************************************
---------------------------------
CARTESIAN COORDINATES (ANGSTROEM)
---------------------------------
  C     -0.224285   -1.242134   -0.038500
  C      1.148008   -1.228701    0.002273
  C      1.845662   -0.000040    0.022970
  C      1.148050    1.228644    0.002271
  C     -0.224242    1.242130   -0.038509
  C     -0.940849    0.000010   -0.059893
  N     -2.269853    0.000031   -0.099793
  H     -2.801655    0.869975   -0.115912
  H     -2.801675   -0.869901   -0.115908
  H     -0.778902    2.184886   -0.055045
  H      1.703737    2.169806    0.018852
  H      2.938899   -0.000060    0.055501
  H      1.703659   -2.169881    0.018853
  H     -0.778986   -2.184864   -0.055034

----------------------------
CARTESIAN COORDINATES (A.U.)
----------------------------
  NO LB      ZA    FRAG     MASS         X           Y           Z
   0 C     6.0000    0    12.011   -0.423838   -2.347294   -0.072754
   1 C     6.0000    0    12.011    2.169421   -2.321908    0.004295
   2 C     6.0000    0    12.011    3.487795   -0.000076    0.043407
   3 C     6.0000    0    12.011    2.169501    2.321801    0.004291
   4 C     6.0000    0    12.011   -0.423755    2.347285   -0.072772
   5 C     6.0000    0    12.011   -1.777947    0.000019   -0.113181
   6 N     7.0000    0    14.007   -4.289401    0.000058   -0.188581
   7 H     1.0000    0     1.008   -5.294361    1.644014   -0.219042
   8 H     1.0000    0     1.008   -5.294399   -1.643875   -0.219035
   9 H     1.0000    0     1.008   -1.471911    4.128835   -0.104020
  10 H     1.0000    0     1.008    3.219597    4.100339    0.035626
  11 H     1.0000    0     1.008    5.553714   -0.000113    0.104881
  12 H     1.0000    0     1.008    3.219449   -4.100481    0.035626
  13 H     1.0000    0     1.008   -1.472070   -4.128794   -0.103999

--------------------------------
INTERNAL COORDINATES (ANGSTROEM)
--------------------------------
 C      0   0   0     0.000000000000     0.00000000     0.00000000
 C      1   0   0     1.372964894650     0.00000000     0.00000000
 C      2   1   0     1.413066150798   120.16005644     0.00000000
 C      3   2   1     1.413065898696   120.80307296     0.00000000
 C      4   3   2     1.372963992721   120.16026996     0.00000000
 C      1   2   3     1.434170228511   119.43005570     0.00000000
 N      6   1   2     1.329602860698   119.99155062   179.97950645
 H      7   6   1     1.019743216981   121.45029771   180.01560481
 H      7   6   1     1.019743070190   121.44982721     0.00000000
 H      5   4   3     1.093942266734   121.04388261   180.00471216
 H      4   3   2     1.093091090325   119.83263199   179.99418184
 H      3   2   1     1.093721208168   119.59842431   179.99707600
 H      2   1   3     1.093088853760   120.00715744   179.99720197
 H      1   2   3     1.093940018094   121.04422205   179.99529444

---------------------------
INTERNAL COORDINATES (A.U.)
---------------------------
 C      0   0   0     0.000000000000     0.00000000     0.00000000
 C      1   0   0     2.594527642377     0.00000000     0.00000000
 C      2   1   0     2.670308034122   120.16005644     0.00000000
 C      3   2   1     2.670307557719   120.80307296     0.00000000
 C      4   3   2     2.594525937979   120.16026996     0.00000000
 C      1   2   3     2.710188961310   119.43005570     0.00000000
 N      6   1   2     2.512585273598   119.99155062   179.97950645
 H      7   6   1     1.927035407018   121.45029771   180.01560481
 H      7   6   1     1.927035129623   121.44982721     0.00000000
 H      5   4   3     2.067251290449   121.04388261   180.00471216
 H      4   3   2     2.065642800143   119.83263199   179.99418184
 H      3   2   1     2.066833550299   119.59842431   179.99707600
 H      2   1   3     2.065638573649   120.00715744   179.99720197
 H      1   2   3     2.067247041134   121.04422205   179.99529444

---------------------
BASIS SET INFORMATION
---------------------
There are 3 groups of distinct atoms

 Group   1 Type C   : 19s6p3d2f contracted to 5s4p3d2f pattern {88111/3111/111/11}
 Group   2 Type N   : 19s6p3d2f contracted to 5s4p3d2f pattern {88111/3111/111/11}
 Group   3 Type H   : 6s3p2d contracted to 4s3p2d pattern {3111/111/11}

Atom   0C    basis set group =>   1
Atom   1C    basis set group =>   1
Atom   2C    basis set group =>   1
Atom   3C    basis set group =>   1
Atom   4C    basis set group =>   1
Atom   5C    basis set group =>   1
Atom   6N    basis set group =>   2
Atom   7H    basis set group =>   3
Atom   8H    basis set group =>   3
Atom   9H    basis set group =>   3
Atom  10H    basis set group =>   3
Atom  11H    basis set group =>   3
Atom  12H    basis set group =>   3
Atom  13H    basis set group =>   3
---------------------------------
AUXILIARY/J BASIS SET INFORMATION
---------------------------------
There are 3 groups of distinct atoms

 Group   1 Type C   : 12s5p4d2f1g contracted to 6s4p3d1f1g pattern {711111/2111/211/2/1}
 Group   2 Type N   : 12s5p4d2f1g contracted to 6s4p3d1f1g pattern {711111/2111/211/2/1}
 Group   3 Type H   : 5s2p1d contracted to 3s1p1d pattern {311/2/1}

Atom   0C    basis set group =>   1
Atom   1C    basis set group =>   1
Atom   2C    basis set group =>   1
Atom   3C    basis set group =>   1
Atom   4C    basis set group =>   1
Atom   5C    basis set group =>   1
Atom   6N    basis set group =>   2
Atom   7H    basis set group =>   3
Atom   8H    basis set group =>   3
Atom   9H    basis set group =>   3
Atom  10H    basis set group =>   3
Atom  11H    basis set group =>   3
Atom  12H    basis set group =>   3
Atom  13H    basis set group =>   3


           ************************************************************
           *        Program running with 8 parallel MPI-processes     *
           *              working on a common directory               *
           ************************************************************
------------------------------------------------------------------------------
                             ORCA STARTUP CALCULATIONS
                           -- RI-GTO INTEGRALS CHOSEN --
------------------------------------------------------------------------------
------------------------------------------------------------------------------
                   ___                                                        
                  /   \      - P O W E R E D   B Y -                         
                 /     \                                                     
                 |  |  |   _    _      __       _____    __    __             
                 |  |  |  | |  | |    /  \     |  _  \  |  |  /  |          
                  \  \/   | |  | |   /    \    | | | |  |  | /  /          
                 / \  \   | |__| |  /  /\  \   | |_| |  |  |/  /          
                |  |  |   |  __  | /  /__\  \  |    /   |      \           
                |  |  |   | |  | | |   __   |  |    \   |  |\   \          
                \     /   | |  | | |  |  |  |  | |\  \  |  | \   \       
                 \___/    |_|  |_| |__|  |__|  |_| \__\ |__|  \__/        
                                                                              
                      - O R C A' S   B I G   F R I E N D -                    
                                      &                                       
                       - I N T E G R A L  F E E D E R -                       
                                                                              
 v1 FN, 2020, v2 2021, v3 2022-2024                                           
------------------------------------------------------------------------------


----------------------
SHARK INTEGRAL PACKAGE
----------------------

Number of atoms                             ...     14
Number of basis functions                   ...    525
Number of shells                            ...    203
Maximum angular momentum                    ...      3
Integral batch strategy                     ... SHARK/LIBINT Hybrid
RI-J (if used) integral strategy            ... SPLIT-RIJ (Revised 2003 algorithm where possible)
Printlevel                                  ...      1
Contraction scheme used                     ... PARTIAL GENERAL contraction
Prescreening option                         ... SCHWARTZ
   Thresh                                   ... 2.500e-11
   Tcut                                     ... 2.500e-12
   Tpresel                                  ... 2.500e-12 
Coulomb Range Separation                    ... NOT USED
Exchange Range Separation                   ... NOT USED
Multipole approximations                    ... NOT USED
Finite Nucleus Model                        ... NOT USED
CABS basis                                  ... NOT available
Auxiliary Coulomb fitting basis             ... AVAILABLE
   # of basis functions in Aux-J            ...    420
   # of shells in Aux-J                     ...    140
   Maximum angular momentum in Aux-J        ...      4
Auxiliary J/K fitting basis                 ... NOT available
Auxiliary Correlation fitting basis         ... NOT available
Auxiliary 'external' fitting basis          ... NOT available

Checking pre-screening integrals            ... done (  0.1 sec) Dimension = 203
Save PGC pre-screening integrals            ... done (  0.1 sec) Dimension = 203
Calculate PGC overlap integrals             ... done (  0.1 sec) Dimension = 161
Calculating pre-screening integrals (ORCA)  ... done (  0.2 sec) Dimension = 161
Check shell pair data                       ... done (  0.0 sec)
Shell pair information
Shell pair cut-off parameter TPreSel        ...   2.5e-12
Total number of shell pairs                 ...     20706
Shell pairs after pre-screening             ...     18485
Total number of primitive shell pairs       ...     26838
Primitive shell pairs kept                  ...     22469
          la=0 lb=0:   4267 shell pairs
          la=1 lb=0:   4716 shell pairs
          la=1 lb=1:   1184 shell pairs
          la=2 lb=0:   3357 shell pairs
          la=2 lb=1:   1660 shell pairs
          la=2 lb=2:    610 shell pairs
          la=3 lb=0:   1423 shell pairs
          la=3 lb=1:    678 shell pairs
          la=3 lb=2:    485 shell pairs
          la=3 lb=3:    105 shell pairs

Calculating one electron integrals          ... done (  0.0 sec)
Calculating RI/J V-Matrix + Cholesky decomp.... done (  0.0 sec)
Calculating Nuclear repulsion               ... done (  0.0 sec) ENN=    271.305350082486 Eh

Diagonalization of the overlap matrix:
Smallest eigenvalue                        ... 6.965e-07
Time for diagonalization                   ...    0.069 sec
Threshold for overlap eigenvalues          ... 1.000e-07
Number of eigenvalues below threshold      ... 0

IMPORTANT:
Smallest eigenvalue of S below the DiffSThresh (1.000e-06) while
Thresh>1e-12 and/or TCut>1e-13! In order to avoid SCF convergence issues,
Thresh will be set to at least 1e-12 and TCut to at least 1e-13.
This can be turned off by adding %SCF DiffSThresh -1 END to the input.

Time for construction of square roots      ...    0.049 sec
Total time needed                          ...    0.173 sec

-------------------
DFT GRID GENERATION
-------------------

General Integration Accuracy     IntAcc      ... 4.388
Radial Grid Type                 RadialGrid  ... OptM3 with GC (2021)
Angular Grid (max. ang.)         AngularGrid ... 4 (Lebedev-302)
Angular grid pruning method      GridPruning ... 4 (adaptive)
Weight generation scheme         WeightScheme... mBecke (2022)
Basis function cutoff            BFCut       ... 1.0000e-11
Integration weight cutoff        WCut        ... 1.0000e-14
Partially contracted basis set               ... off
Rotationally invariant grid construction     ... off
Angular grids for H and He will be reduced by one unit
Diffuse basis detected: some atoms will have their outermost
                        angular grid increased by 1.

Total number of grid points                  ...    67963
Total number of batches                      ...     1068
Average number of points per batch           ...       63
Average number of grid points per atom       ...     4854

---------------------
SHARK GRID GENERATION
---------------------

General Integration Accuracy     IntAcc      ... 4.388
Radial Grid Type                 RadialGrid  ... OptM3 with GC (2021)
Angular Grid (max. ang.)         AngularGrid ... 4 (Lebedev-302)
Angular grid pruning method      GridPruning ... 4 (adaptive)
Weight generation scheme         WeightScheme... mBecke (2022)
Basis function cutoff            BFCut       ... 1.0000e-11
Integration weight cutoff        WCut        ... 1.0000e-14
Partially contracted basis set               ... off
Rotationally invariant grid construction     ... off
Angular grids for H and He will be reduced by one unit
Diffuse basis detected: some atoms will have their outermost
                        angular grid increased by 1.
Steep s-basis detected: some atoms will have their radial
                        grid points doubled.

Total number of grid points                  ...   112247
Total number of batches                      ...     1760
Average number of points per batch           ...       63
Average number of grid points per atom       ...     8018

--------------------
COSX GRID GENERATION
--------------------

GRIDX 1
-------
General Integration Accuracy     IntAcc      ... 3.816
Radial Grid Type                 RadialGrid  ... OptM3 with GC (2021)
Angular Grid (max. ang.)         AngularGrid ... 1 (Lebedev-50)
Angular grid pruning method      GridPruning ... 4 (adaptive)
Weight generation scheme         WeightScheme... mBecke (2022)
Basis function cutoff            BFCut       ... 1.0000e-11
Integration weight cutoff        WCut        ... 1.0000e-14
Partially contracted basis set               ... on
Rotationally invariant grid construction     ... off
Angular grids for H and He will be reduced by one unit
Diffuse basis detected: some atoms will have their outermost
                        angular grid increased by 1.

Total number of grid points                  ...     8538
Total number of batches                      ...       72
Average number of points per batch           ...      118
Average number of grid points per atom       ...      610
UseSFitting                                  ... on

GRIDX 2
-------
General Integration Accuracy     IntAcc      ... 4.020
Radial Grid Type                 RadialGrid  ... OptM3 with GC (2021)
Angular Grid (max. ang.)         AngularGrid ... 2 (Lebedev-110)
Angular grid pruning method      GridPruning ... 4 (adaptive)
Weight generation scheme         WeightScheme... mBecke (2022)
Basis function cutoff            BFCut       ... 1.0000e-11
Integration weight cutoff        WCut        ... 1.0000e-14
Partially contracted basis set               ... on
Rotationally invariant grid construction     ... off
Angular grids for H and He will be reduced by one unit
Diffuse basis detected: some atoms will have their outermost
                        angular grid increased by 1.

Total number of grid points                  ...    20754
Total number of batches                      ...      173
Average number of points per batch           ...      119
Average number of grid points per atom       ...     1482
UseSFitting                                  ... on

GRIDX 3
-------
General Integration Accuracy     IntAcc      ... 4.338
Radial Grid Type                 RadialGrid  ... OptM3 with GC (2021)
Angular Grid (max. ang.)         AngularGrid ... 3 (Lebedev-194)
Angular grid pruning method      GridPruning ... 4 (adaptive)
Weight generation scheme         WeightScheme... mBecke (2022)
Basis function cutoff            BFCut       ... 1.0000e-11
Integration weight cutoff        WCut        ... 1.0000e-14
Partially contracted basis set               ... on
Rotationally invariant grid construction     ... off
Angular grids for H and He will be reduced by one unit
Diffuse basis detected: some atoms will have their outermost
                        angular grid increased by 1.

Total number of grid points                  ...    46416
Total number of batches                      ...      370
Average number of points per batch           ...      125
Average number of grid points per atom       ...     3315
UseSFitting                                  ... on
Initializing property integral containers    ... done (  0.1 sec)

SHARK setup successfully completed in   6.2 seconds

Maximum memory used throughout the entire STARTUP-calculation: 46.3 MB


           ************************************************************
           *        Program running with 8 parallel MPI-processes     *
           *              working on a common directory               *
           ************************************************************
-------------------------------------------------------------------------------
                                 ORCA GUESS
                   Start orbitals & Density for SCF / CASSCF
-------------------------------------------------------------------------------

------------
SCF SETTINGS
------------
Hamiltonian:
 Density Functional     Method          .... DFT(GTOs)
  Functional kind                       .... Exchange
  Functional name                       .... Re-regularized SCAN exchange by Furness et al
  Functional family                     .... MGGA
  Functional refs                              
    [ 0] J. W. Furness, A. D. Kaplan, J. Ning, J. P. Perdew, and J. Sun.,  J. Phys. Chem. Lett. 11, 8208-8215 (2020), doi: 10.1021/acs.jpclett.0c02405
    [ 1] J. W. Furness, A. D. Kaplan, J. Ning, J. P. Perdew, and J. Sun.,  J. Phys. Chem. Lett. 11, 9248-9248 (2020), doi: 10.1021/acs.jpclett.0c03077
  Functional external parameters        .... 6
    Parameter  0 _c1        =  6.670000e-01 : c1 parameter        
    Parameter  1 _c2        =  8.000000e-01 : c2 parameter        
    Parameter  2 _d         =  1.240000e+00 : d parameter         
    Parameter  3 _k1        =  6.500000e-02 : k1 parameter        
    Parameter  4 _eta       =  1.000000e-03 : eta parameter       
    Parameter  5 _dp2       =  3.610000e-01 : dp2 parameter       
  Functional kind                       .... Correlation
  Functional name                       .... Re-regularized SCAN correlation by Furness et al
  Functional family                     .... MGGA
  Functional refs                              
    [ 0] J. W. Furness, A. D. Kaplan, J. Ning, J. P. Perdew, and J. Sun.,  J. Phys. Chem. Lett. 11, 8208-8215 (2020), doi: 10.1021/acs.jpclett.0c02405
    [ 1] J. W. Furness, A. D. Kaplan, J. Ning, J. P. Perdew, and J. Sun.,  J. Phys. Chem. Lett. 11, 9248-9248 (2020), doi: 10.1021/acs.jpclett.0c03077
  Functional external parameters        .... 1
    Parameter  0 _eta       =  1.000000e-03 : Regularization parameter
 Gradients option       PostSCFGGA      .... off
 Hybrid DFT is turned on
   Fraction HF Exchange ScalHFX         ....  0.100000
   Scaling of DF-GGA-X  ScalDFX         ....  0.900000
   Scaling of DF-GGA-C  ScalDFC         ....  1.000000
   Scaling of DF-LDA-C  ScalLDAC        ....  1.000000
   Perturbative correction              ....  0.000000
   NL short-range parameter             .... 11.900000
 RI-approximation to the Coulomb term is turned on
   Number of AuxJ basis functions       .... 420
   RIJ-COSX (HFX calculated with COS-X)).... on


General Settings:
 Integral files         IntName         .... cs_rporg_075_ox_opt_07
 Hartree-Fock type      HFTyp           .... UHF
 Total Charge           Charge          ....    1
 Multiplicity           Mult            ....    2
 Number of Electrons    NEL             ....   49
 Basis Dimension        Dim             ....  483
 Nuclear Repulsion      ENuc            ....    271.3053500825 Eh

Convergence Acceleration:
 AO-DIIS                CNVDIIS         .... on
   Start iteration      DIISMaxIt       ....     0
   Startup error        DIISStart       ....  0.200000
   # of expansion vecs  DIISMaxEq       ....     5
   Bias factor          DIISBfac        ....   1.050
   Max. coefficient     DIISMaxC        ....  10.000
 MO-DIIS                CNVKDIIS        .... off
 Trust-Rad. Augm. Hess. CNVTRAH         .... auto
   Auto Start mean grad. ratio tolernc. ....  1.125000
   Auto Start start iteration           ....    50
   Auto Start num. interpolation iter.  ....    10
   Max. Number of Micro iterations      ....    24
   Max. Number of Macro iterations      .... Maxiter - #DIIS iter
   Number of Davidson start vectors     ....     2
   Converg. threshold    (grad. norm)   ....   1.000e-05
   Grad. Scal. Fac. for Micro threshold ....   0.100
   Minimum threshold for Micro iter.    ....   1.000e-02
   NR start threshold (gradient norm)   ....   1.000e-04
   Initial trust radius                 ....   0.400
   Minimum AH scaling param. (alpha)    ....   1.000
   Maximum AH scaling param. (alpha)    .... 1000.000
   Quad. conv. algorithm                .... NR
   White noise on init. David. guess    .... on
   Maximum white noise                  ....   0.010
   Pseudo random numbers                .... off
   Inactive MOs                         .... canonical
   Orbital update algorithm             .... Taylor
   Preconditioner                       .... Diag
   Full preconditioner red. dimension   ....   250
 SOSCF                  CNVSOSCF        .... on
   Start iteration      SOSCFMaxIt      ....   150
   Startup grad/error   SOSCFStart      ....  0.001000
   Hessian update       SOSCFHessUp     .... L-BFGS
 Level Shifting         CNVShift        .... on
   Level shift para.    LevelShift      ....    0.2500
   Turn off err/grad.   ShiftErr        ....    0.0000
 Zerner damping         CNVZerner       .... off
 Static damping         CNVDamp         .... on
   Fraction old density DampFac         ....    0.8500
   Max. Damping (<1)    DampMax         ....    0.9800
   Min. Damping (>=0)   DampMin         ....    0.0000
   Turn off err/grad.   DampErr         ....    0.0300

SCF Procedure:
 Maximum # iterations   MaxIter         ....  1500
 SCF integral mode      SCFMode         .... Direct
   Integral package                     .... SHARK and LIBINT hybrid scheme
 Reset frequency        DirectResetFreq ....    20
 Integral Threshold     Thresh          ....  1.000e-12 Eh
 Primitive CutOff       TCut            ....  1.000e-13 Eh

Convergence Tolerance:
 Convergence Check Mode ConvCheckMode   .... Total+1el-Energy
 Convergence forced     ConvForced      .... 0
 Energy Change          TolE            ....  1.000e-08 Eh
 1-El. energy change                    ....  1.000e-05 Eh
 Orbital Gradient       TolG            ....  1.000e-05
 Orbital Rotation angle TolX            ....  1.000e-05
 DIIS Error             TolErr          ....  5.000e-07

------------------------------
INITIAL GUESS: MODEL POTENTIAL
------------------------------
Loading Hartree-Fock densities                     ... done
Calculating cut-offs                               ... done
Initializing the effective Hamiltonian             ... done
Setting up the integral package (SHARK)            ... done
Starting the Coulomb interaction                   ... done (   0.3 sec)
Making the grid                                    ... done (   0.3 sec)
Mapping shells                                     ... done
Starting the XC term evaluation                    ... done (   0.3 sec)
  promolecular density results
     # of electrons  =     49.998429352
     EX              =    -39.278084902
     EC              =     -1.642632468
     EX+EC           =    -40.920717371
Transforming the Hamiltonian                       ... done (   0.1 sec)
Diagonalizing the Hamiltonian                      ... done (   0.1 sec)
Back transforming the eigenvectors                 ... done (   0.1 sec)
Now organizing SCF variables                       ... done
                      ------------------
                      INITIAL GUESS DONE (   1.9 sec)
                      ------------------
             **** ENERGY FILE WAS UPDATED (cs_rporg_075_ox_opt_07.en.tmp) ****
Finished Guess after   3.2 sec
Maximum memory used throughout the entire GUESS-calculation: 32.3 MB


           ************************************************************
           *        Program running with 8 parallel MPI-processes     *
           *              working on a common directory               *
           ************************************************************

-------------------------------------------------------------------------------------------
                                      ORCA LEAN-SCF
                              memory conserving SCF solver
-------------------------------------------------------------------------------------------

--------------------
CPCM SOLVATION MODEL
--------------------
CPCM parameters:
  Epsilon                                         ...      35.6880
  Refrac                                          ...       1.3442
  Rsolv                                           ...       2.1900
  Surface type                                    ...    GEPOL SES
  Discretization scheme                           ... Constant num. charges
  Epsilon function type                           ...         CPCM
Solvent:                                          ... ACETONITRILE
SMD-CDS solvent descriptors:
  Soln                                            ...       1.3442
  Soln25                                          ...       1.3416
  Sola                                            ...       0.0700
  Solb                                            ...       0.3200
  Solg                                            ...      41.2500
  Solc                                            ...       0.0000
  Solh                                            ...       0.0000
Radii:
  Scheme                                          ... Element-dependent radii
  Radius for C  used is    3.4960 Bohr (=   1.8500 Ang.)
  Radius for N  used is    3.5716 Bohr (=   1.8900 Ang.)
  Radius for H  used is    2.2677 Bohr (=   1.2000 Ang.)
Calculating surface                               ...        done! (  0.0s)
Cavity surface points                             ...          454
Cavity Volume                                     ...     748.4690
Cavity Surface-area                               ...     457.0339
Calculating surface distance matrix               ...        done! (  0.0s)
Performing Cholesky decomposition & store         ...        done! (  0.0s)
Overall time for CPCM initialization              ...                 0.1s

----------------------------------------D-I-I-S--------------------------------------------
Iteration    Energy (Eh)           Delta-E    RMSDP     MaxDP     DIISErr   Damp  Time(sec)
-------------------------------------------------------------------------------------------
               ***  Starting incremental Fock matrix formation  ***
    1    -287.2445391122953993     0.00e+00  3.84e-04  1.56e-02  8.15e-02  0.850  13.9
Warning: op=1 Small HOMO/LUMO gap (   0.082) - skipping pre-diagonalization
         Will do a full diagonalization
    2    -287.2690240592616533    -2.45e-02  3.65e-04  1.38e-02  6.16e-02  0.850  12.9
                               ***Turning on AO-DIIS***
    3    -287.2862353042064001    -1.72e-02  2.92e-04  1.06e-02  4.39e-02  0.850  10.8
    4    -287.2980217960662799    -1.18e-02  2.43e-04  8.81e-03  3.65e-02  0.850  10.8
    5    -287.3068246146944489    -8.80e-03  2.05e-04  7.52e-03  3.12e-02  0.850  11.3
    6    -287.3138481408846587    -7.02e-03  1.74e-04  6.49e-03  2.67e-02  0.850  14.0
    7    -287.3196428712861348    -5.79e-03  9.88e-04  3.74e-02  2.27e-02  0.000  10.1
    8    -287.3497470257648843    -3.01e-02  4.37e-05  3.72e-03  3.54e-03  0.000  10.2
    9    -287.3499152781915313    -1.68e-04  2.47e-05  1.46e-03  2.49e-03  0.000  12.0
   10    -287.3500180346705406    -1.03e-04  3.82e-05  2.78e-03  1.35e-03  0.000  10.8
   11    -287.3501209455773164    -1.03e-04  1.82e-05  1.13e-03  1.07e-03  0.000  11.1
                              *** Initializing SOSCF ***
---------------------------------------S-O-S-C-F--------------------------------------
Iteration    Energy (Eh)           Delta-E    RMSDP     MaxDP     MaxGrad    Time(sec)
--------------------------------------------------------------------------------------
   12    -287.3501708324902779    -4.99e-05  1.51e-05  8.79e-04  6.68e-04    11.3
               *** Restarting incremental Fock matrix formation ***
   13    -287.3501923984100017    -2.16e-05  1.80e-05  9.44e-04  9.50e-04    14.1
   14    -287.3502053597705412    -1.30e-05  2.66e-05  1.23e-03  6.79e-04    11.9
   15    -287.3502119624792499    -6.60e-06  1.78e-05  9.38e-04  5.59e-04    14.5
   16    -287.3502164827145293    -4.52e-06  4.94e-06  4.79e-04  7.16e-05    13.3
   17    -287.3502166305367496    -1.48e-07  1.56e-06  1.20e-04  6.09e-05    12.0
   18    -287.3502167611283653    -1.31e-07  6.47e-07  5.19e-05  1.11e-05    12.9
   19    -287.3502167667912204    -5.66e-09  1.93e-07  1.20e-05  5.27e-06    12.3
                 **** Energy Check signals convergence ****

               *****************************************************
               *                     SUCCESS                       *
               *           SCF CONVERGED AFTER  19 CYCLES          *
               *****************************************************

Recomputing exchange energy using gridx3       ... done (   10.165 sec)
Old exchange energy                            :     -3.992777156 Eh
New exchange energy                            :     -3.992774602 Eh
Exchange energy change after final integration :      0.000002554 Eh
Total energy after final integration           :   -287.350214213 Eh

SMD CDS free energy correction energy :                -0.91223     Kcal/mol
Total Energy after SMD CDS correction =              -287.351667951 Eh
             **** ENERGY FILE WAS UPDATED (cs_rporg_075_ox_opt_07.en.tmp) ****

----------------
TOTAL SCF ENERGY
----------------

Total Energy       :       -287.35166795074491 Eh           -7819.23641 eV

Components:
Nuclear Repulsion  :        271.30535008248552 Eh            7382.59390 eV
Electronic Energy  :       -558.55809737603533 Eh          -15199.13854 eV
One Electron Energy:       -913.82877174283726 Eh          -24866.54507 eV
Two Electron Energy:        355.27067436680193 Eh            9667.40653 eV
CPCM Dielectric    :         -0.09746947324141 Eh              -2.65228 eV
SMD CDS (Gcds)     :         -0.00145373802153 Eh              -0.03956 eV

Virial components:
Potential Energy   :       -572.84503430253471 Eh          -15587.90586 eV
Kinetic Energy     :        285.49336635178986 Eh            7768.66945 eV
Virial Ratio       :          2.00650908853926

DFT components:
N(Alpha)           :       24.999976607268 electrons
N(Beta)            :       23.999981142620 electrons
N(Total)           :       48.999957749888 electrons
E(X)               :      -36.062638265954 Eh       
E(C)               :       -1.562678375422 Eh       
E(XC)              :      -37.625316641376 Eh       

CPCM Solvation Model Properties:
Surface-charge          :         -1.02936713005537
Corrected charge        :         -1.00000000000000
Outlying charge corr.   :          0.00007072591195 Eh               0.00192 eV
Free-energy (cav+disp)  :         -0.00145373802153 Eh              -0.03956 eV

---------------
SCF CONVERGENCE
---------------

  Last Energy change         ...    5.6629e-09  Tolerance :   1.0000e-08
  Last MAX-Density change    ...    1.2045e-05  Tolerance :   1.0000e-07
  Last RMS-Density change    ...    1.9288e-07  Tolerance :   5.0000e-09
  Last DIIS Error            ...    6.6788e-04  Tolerance :   5.0000e-07
  Last Orbital Gradient      ...    5.2719e-06  Tolerance :   1.0000e-05
  Last Orbital Rotation      ...    7.0362e-06  Tolerance :   1.0000e-05


----------------------
UHF SPIN CONTAMINATION
----------------------

Warning: in a DFT calculation there is little theoretical justification to 
         calculate <S**2> as in Hartree-Fock theory. We will do it anyways
         but you should keep in mind that the values have only limited relevance

Expectation value of <S**2>     :     0.802922
Ideal value S*(S+1) for S=0.5   :     0.750000
Deviation                       :     0.052922

----------------
ORBITAL ENERGIES
----------------
                 SPIN UP ORBITALS
  NO   OCC          E(Eh)            E(eV) 
   0   1.0000     -14.402156      -391.9026 
   1   1.0000     -10.267134      -279.3829 
   2   1.0000     -10.210548      -277.8431 
   3   1.0000     -10.206865      -277.7429 
   4   1.0000     -10.206863      -277.7429 
   5   1.0000     -10.193728      -277.3855 
   6   1.0000     -10.193726      -277.3854 
   7   1.0000      -1.002688       -27.2845 
   8   1.0000      -0.883812       -24.0498 
   9   1.0000      -0.788930       -21.4679 
  10   1.0000      -0.769455       -20.9379 
  11   1.0000      -0.648104       -17.6358 
  12   1.0000      -0.646842       -17.6015 
  13   1.0000      -0.563472       -15.3329 
  14   1.0000      -0.555754       -15.1228 
  15   1.0000      -0.511648       -13.9226 
  16   1.0000      -0.460801       -12.5390 
  17   1.0000      -0.452038       -12.3006 
  18   1.0000      -0.448530       -12.2051 
  19   1.0000      -0.444168       -12.0864 
  20   1.0000      -0.382096       -10.3974 
  21   1.0000      -0.370859       -10.0916 
  22   1.0000      -0.360919        -9.8211 
  23   1.0000      -0.295672        -8.0457 
  24   1.0000      -0.262970        -7.1558 
  25   0.0000      -0.055512        -1.5106 
  26   0.0000      -0.055512        -1.5106 
  27   0.0000       0.007263         0.1976 
  28   0.0000       0.020215         0.5501 
  29   0.0000       0.025783         0.7016 
  30   0.0000       0.040651         1.1062 
  31   0.0000       0.044052         1.1987 
  32   0.0000       0.053135         1.4459 
  33   0.0000       0.054026         1.4701 
  34   0.0000       0.064574         1.7572 
  35   0.0000       0.070829         1.9273 

                 SPIN DOWN ORBITALS
  NO   OCC          E(Eh)            E(eV) 
   0   1.0000     -14.391805      -391.6209 
   1   1.0000     -10.267053      -279.3807 
   2   1.0000     -10.203186      -277.6428 
   3   1.0000     -10.202363      -277.6204 
   4   1.0000     -10.202363      -277.6204 
   5   1.0000     -10.196443      -277.4593 
   6   1.0000     -10.196432      -277.4590 
   7   1.0000      -0.986883       -26.8545 
   8   1.0000      -0.874409       -23.7939 
   9   1.0000      -0.784962       -21.3599 
  10   1.0000      -0.752678       -20.4814 
  11   1.0000      -0.645393       -17.5620 
  12   1.0000      -0.638809       -17.3829 
  13   1.0000      -0.561483       -15.2787 
  14   1.0000      -0.550215       -14.9721 
  15   1.0000      -0.506472       -13.7818 
  16   1.0000      -0.457445       -12.4477 
  17   1.0000      -0.449439       -12.2299 
  18   1.0000      -0.443791       -12.0762 
  19   1.0000      -0.417296       -11.3552 
  20   1.0000      -0.380093       -10.3429 
  21   1.0000      -0.359334        -9.7780 
  22   1.0000      -0.337111        -9.1733 
  23   1.0000      -0.285655        -7.7731 
  24   0.0000      -0.182794        -4.9741 
  25   0.0000      -0.042672        -1.1612 
  26   0.0000      -0.026045        -0.7087 
  27   0.0000       0.008978         0.2443 
  28   0.0000       0.022421         0.6101 
  29   0.0000       0.026218         0.7134 
  30   0.0000       0.043768         1.1910 
  31   0.0000       0.044280         1.2049 
  32   0.0000       0.054538         1.4841 
  33   0.0000       0.055751         1.5171 
  34   0.0000       0.066389         1.8065 
*Only the first 10 virtual orbitals were printed.

                    ********************************
                    * MULLIKEN POPULATION ANALYSIS *
                    ********************************

--------------------------------------------
MULLIKEN ATOMIC CHARGES AND SPIN POPULATIONS
--------------------------------------------
   0 C :   -0.669696    0.266226
   1 C :   -0.338208   -0.197264
   2 C :   -0.356177    0.450027
   3 C :   -0.338755   -0.197265
   4 C :   -0.669245    0.266228
   5 C :    1.175618    0.037657
   6 N :   -0.366399    0.417615
   7 H :    0.074140   -0.010179
   8 H :    0.074217   -0.010178
   9 H :    0.601430   -0.007748
  10 H :    0.341574   -0.011003
  11 H :    0.529017    0.014640
  12 H :    0.341161   -0.011011
  13 H :    0.601322   -0.007747
Sum of atomic charges         :    1.0000000
Sum of atomic spin populations:    1.0000000

-----------------------------------------------------
MULLIKEN REDUCED ORBITAL CHARGES AND SPIN POPULATIONS
-----------------------------------------------------
CHARGE
  0 C s       :     3.962819  s :     3.962819
      pz      :     0.906347  p :     2.687833
      px      :     0.828407
      py      :     0.953079
      dz2     :     0.003647  d :     0.040692
      dxz     :     0.012383
      dyz     :    -0.001906
      dx2y2   :    -0.001169
      dxy     :     0.027737
      f0      :     0.000657  f :    -0.021648
      f+1     :    -0.000291
      f-1     :    -0.000044
      f+2     :     0.001425
      f-2     :    -0.000156
      f+3     :     0.000649
      f-3     :    -0.023889

  1 C s       :     3.540557  s :     3.540557
      pz      :     0.913719  p :     2.785163
      px      :     0.973228
      py      :     0.898216
      dz2     :    -0.016423  d :     0.021027
      dxz     :     0.014893
      dyz     :     0.010660
      dx2y2   :     0.000474
      dxy     :     0.011422
      f0      :     0.000727  f :    -0.008538
      f+1     :     0.000594
      f-1     :     0.000258
      f+2     :     0.000459
      f-2     :     0.000610
      f+3     :     0.000095
      f-3     :    -0.011283

  2 C s       :     3.684110  s :     3.684110
      pz      :     0.828084  p :     2.646846
      px      :     0.981736
      py      :     0.837026
      dz2     :    -0.001484  d :     0.032554
      dxz     :     0.003130
      dyz     :     0.019242
      dx2y2   :     0.028543
      dxy     :    -0.016877
      f0      :     0.001067  f :    -0.007333
      f+1     :     0.000204
      f-1     :     0.000236
      f+2     :     0.000432
      f-2     :     0.000528
      f+3     :     0.000827
      f-3     :    -0.010627

  3 C s       :     3.541023  s :     3.541023
      pz      :     0.913713  p :     2.785475
      px      :     0.973611
      py      :     0.898151
      dz2     :    -0.016441  d :     0.020774
      dxz     :     0.014891
      dyz     :     0.010664
      dx2y2   :     0.000280
      dxy     :     0.011379
      f0      :     0.000727  f :    -0.008517
      f+1     :     0.000595
      f-1     :     0.000258
      f+2     :     0.000459
      f-2     :     0.000610
      f+3     :     0.000101
      f-3     :    -0.011267

  4 C s       :     3.962787  s :     3.962787
      pz      :     0.906346  p :     2.687332
      px      :     0.828063
      py      :     0.952924
      dz2     :     0.003646  d :     0.040750
      dxz     :     0.012378
      dyz     :    -0.001903
      dx2y2   :    -0.001130
      dxy     :     0.027758
      f0      :     0.000657  f :    -0.021624
      f+1     :    -0.000294
      f-1     :    -0.000042
      f+2     :     0.001424
      f-2     :    -0.000156
      f+3     :     0.000675
      f-3     :    -0.023888

  5 C s       :     3.126648  s :     3.126648
      pz      :     0.807833  p :     1.778260
      px      :     0.341956
      py      :     0.628471
      dz2     :    -0.035724  d :    -0.031955
      dxz     :     0.040826
      dyz     :    -0.011945
      dx2y2   :    -0.011560
      dxy     :    -0.013553
      f0      :     0.003630  f :    -0.048571
      f+1     :    -0.003701
      f-1     :    -0.000296
      f+2     :     0.001646
      f-2     :     0.002328
      f+3     :    -0.009684
      f-3     :    -0.042494

  6 N s       :     3.866700  s :     3.866700
      pz      :     1.347976  p :     3.436012
      px      :     1.006696
      py      :     1.081341
      dz2     :    -0.006089  d :     0.055857
      dxz     :     0.031139
      dyz     :     0.001794
      dx2y2   :     0.015798
      dxy     :     0.013215
      f0      :     0.000781  f :     0.007829
      f+1     :     0.000672
      f-1     :    -0.000800
      f+2     :     0.001175
      f-2     :     0.000333
      f+3     :    -0.000838
      f-3     :     0.006505

  7 H s       :     0.809603  s :     0.809603
      pz      :     0.040138  p :     0.085556
      px      :     0.034810
      py      :     0.010608
      dz2     :     0.002412  d :     0.030701
      dxz     :     0.003776
      dyz     :     0.008134
      dx2y2   :     0.010242
      dxy     :     0.006136

  8 H s       :     0.809542  s :     0.809542
      pz      :     0.040138  p :     0.085542
      px      :     0.034812
      py      :     0.010592
      dz2     :     0.002412  d :     0.030699
      dxz     :     0.003777
      dyz     :     0.008134
      dx2y2   :     0.010242
      dxy     :     0.006134

  9 H s       :     0.420167  s :     0.420167
      pz      :     0.012092  p :    -0.028069
      px      :    -0.004319
      py      :    -0.035841
      dz2     :    -0.000676  d :     0.006472
      dxz     :     0.001440
      dyz     :     0.003877
      dx2y2   :     0.001928
      dxy     :    -0.000097

 10 H s       :     0.634287  s :     0.634287
      pz      :     0.016142  p :     0.015728
      px      :     0.002087
      py      :    -0.002501
      dz2     :    -0.000395  d :     0.008412
      dxz     :     0.001262
      dyz     :     0.004138
      dx2y2   :     0.001830
      dxy     :     0.001576

 11 H s       :     0.493126  s :     0.493126
      pz      :     0.011912  p :    -0.030671
      px      :    -0.035619
      py      :    -0.006964
      dz2     :    -0.000042  d :     0.008527
      dxz     :     0.004573
      dyz     :    -0.000144
      dx2y2   :     0.001822
      dxy     :     0.002318

 12 H s       :     0.634664  s :     0.634664
      pz      :     0.016142  p :     0.015764
      px      :     0.002051
      py      :    -0.002429
      dz2     :    -0.000395  d :     0.008412
      dxz     :     0.001262
      dyz     :     0.004138
      dx2y2   :     0.001830
      dxy     :     0.001576

 13 H s       :     0.420187  s :     0.420187
      pz      :     0.012091  p :    -0.027982
      px      :    -0.004211
      py      :    -0.035862
      dz2     :    -0.000677  d :     0.006472
      dxz     :     0.001441
      dyz     :     0.003876
      dx2y2   :     0.001928
      dxy     :    -0.000096


SPIN
  0 C s       :     0.016642  s :     0.016642
      pz      :     0.241302  p :     0.251276
      px      :     0.006858
      py      :     0.003116
      dz2     :    -0.001193  d :     0.000144
      dxz     :    -0.001116
      dyz     :     0.002009
      dx2y2   :     0.001115
      dxy     :    -0.000672
      f0      :    -0.000683  f :    -0.001835
      f+1     :    -0.000365
      f-1     :    -0.000254
      f+2     :    -0.000779
      f-2     :    -0.000383
      f+3     :    -0.000108
      f-3     :     0.000736

  1 C s       :    -0.023634  s :    -0.023634
      pz      :    -0.148141  p :    -0.185556
      px      :    -0.030316
      py      :    -0.007099
      dz2     :     0.000270  d :     0.012053
      dxz     :     0.004802
      dyz     :    -0.001166
      dx2y2   :     0.006712
      dxy     :     0.001435
      f0      :     0.000163  f :    -0.000127
      f+1     :     0.000209
      f-1     :     0.000227
      f+2     :     0.000200
      f-2     :     0.000561
      f+3     :    -0.000813
      f-3     :    -0.000673

  2 C s       :     0.003337  s :     0.003337
      pz      :     0.391607  p :     0.434709
      px      :     0.006969
      py      :     0.036133
      dz2     :    -0.002353  d :     0.014898
      dxz     :     0.003562
      dyz     :    -0.002879
      dx2y2   :     0.014534
      dxy     :     0.002034
      f0      :    -0.000782  f :    -0.002917
      f+1     :    -0.000617
      f-1     :    -0.000477
      f+2     :     0.000171
      f-2     :    -0.000273
      f+3     :     0.000140
      f-3     :    -0.001080

  3 C s       :    -0.023634  s :    -0.023634
      pz      :    -0.148140  p :    -0.185559
      px      :    -0.030320
      py      :    -0.007099
      dz2     :     0.000270  d :     0.012055
      dxz     :     0.004802
      dyz     :    -0.001166
      dx2y2   :     0.006713
      dxy     :     0.001435
      f0      :     0.000163  f :    -0.000127
      f+1     :     0.000209
      f-1     :     0.000227
      f+2     :     0.000200
      f-2     :     0.000561
      f+3     :    -0.000813
      f-3     :    -0.000674

  4 C s       :     0.016646  s :     0.016646
      pz      :     0.241302  p :     0.251276
      px      :     0.006858
      py      :     0.003116
      dz2     :    -0.001193  d :     0.000141
      dxz     :    -0.001118
      dyz     :     0.002008
      dx2y2   :     0.001115
      dxy     :    -0.000672
      f0      :    -0.000683  f :    -0.001835
      f+1     :    -0.000365
      f-1     :    -0.000254
      f+2     :    -0.000779
      f-2     :    -0.000383
      f+3     :    -0.000108
      f-3     :     0.000737

  5 C s       :     0.049004  s :     0.049004
      pz      :     0.020484  p :    -0.019891
      px      :    -0.016367
      py      :    -0.024008
      dz2     :    -0.001232  d :     0.008821
      dxz     :     0.012565
      dyz     :     0.002557
      dx2y2   :    -0.000725
      dxy     :    -0.004345
      f0      :    -0.000259  f :    -0.000277
      f+1     :     0.000011
      f-1     :     0.000023
      f+2     :     0.000340
      f-2     :    -0.000100
      f+3     :    -0.000238
      f-3     :    -0.000054

  6 N s       :     0.028110  s :     0.028110
      pz      :     0.352447  p :     0.387727
      px      :     0.010518
      py      :     0.024762
      dz2     :    -0.001935  d :     0.002696
      dxz     :     0.003501
      dyz     :     0.000149
      dx2y2   :    -0.000259
      dxy     :     0.001241
      f0      :     0.000032  f :    -0.000919
      f+1     :    -0.000339
      f-1     :    -0.000243
      f+2     :    -0.000041
      f-2     :    -0.000013
      f+3     :     0.000091
      f-3     :    -0.000406

  7 H s       :    -0.016590  s :    -0.016590
      pz      :     0.004653  p :     0.004590
      px      :     0.000470
      py      :    -0.000532
      dz2     :     0.000167  d :     0.001821
      dxz     :     0.000359
      dyz     :     0.001595
      dx2y2   :    -0.000349
      dxy     :     0.000049

  8 H s       :    -0.016591  s :    -0.016591
      pz      :     0.004654  p :     0.004592
      px      :     0.000470
      py      :    -0.000532
      dz2     :     0.000167  d :     0.001822
      dxz     :     0.000359
      dyz     :     0.001595
      dx2y2   :    -0.000349
      dxy     :     0.000050

  9 H s       :    -0.012276  s :    -0.012276
      pz      :     0.004509  p :     0.003585
      px      :     0.000160
      py      :    -0.001084
      dz2     :     0.000098  d :     0.000943
      dxz     :     0.000049
      dyz     :     0.000823
      dx2y2   :    -0.000008
      dxy     :    -0.000019

 10 H s       :    -0.007781  s :    -0.007781
      pz      :    -0.005728  p :    -0.002842
      px      :     0.000073
      py      :     0.002813
      dz2     :    -0.000016  d :    -0.000381
      dxz     :    -0.000229
      dyz     :    -0.000335
      dx2y2   :     0.000020
      dxy     :     0.000179

 11 H s       :     0.003088  s :     0.003088
      pz      :     0.009348  p :     0.010055
      px      :     0.001306
      py      :    -0.000599
      dz2     :     0.000178  d :     0.001497
      dxz     :     0.001640
      dyz     :    -0.000016
      dx2y2   :    -0.000138
      dxy     :    -0.000167

 12 H s       :    -0.007788  s :    -0.007788
      pz      :    -0.005728  p :    -0.002842
      px      :     0.000073
      py      :     0.002812
      dz2     :    -0.000016  d :    -0.000381
      dxz     :    -0.000229
      dyz     :    -0.000335
      dx2y2   :     0.000020
      dxy     :     0.000179

 13 H s       :    -0.012275  s :    -0.012275
      pz      :     0.004509  p :     0.003586
      px      :     0.000160
      py      :    -0.001084
      dz2     :     0.000098  d :     0.000943
      dxz     :     0.000049
      dyz     :     0.000823
      dx2y2   :    -0.000008
      dxy     :    -0.000019



                     *******************************
                     * LOEWDIN POPULATION ANALYSIS *
                     *******************************

-------------------------------------------
LOEWDIN ATOMIC CHARGES AND SPIN POPULATIONS
-------------------------------------------
   0 C :    0.279270    0.121661
   1 C :    0.242228    0.022726
   2 C :    0.260594    0.187277
   3 C :    0.242226    0.022726
   4 C :    0.279270    0.121660
   5 C :   -0.162292    0.128284
   6 N :    0.966542    0.260970
   7 H :   -0.192117    0.033422
   8 H :   -0.192119    0.033422
   9 H :   -0.138780    0.023646
  10 H :   -0.150475   -0.012894
  11 H :   -0.145086    0.046347
  12 H :   -0.150477   -0.012894
  13 H :   -0.138783    0.023646

----------------------------------------------------
LOEWDIN REDUCED ORBITAL CHARGES AND SPIN POPULATIONS
----------------------------------------------------
CHARGE
  0 C s       :     2.490168  s :     2.490168
      pz      :     0.579630  p :     2.249339
      px      :     0.853569
      py      :     0.816140
      dz2     :     0.067588  d :     0.655105
      dxz     :     0.096483
      dyz     :     0.050429
      dx2y2   :     0.191944
      dxy     :     0.248661
      f0      :     0.021722  f :     0.326118
      f+1     :     0.029352
      f-1     :     0.022286
      f+2     :     0.037644
      f-2     :     0.026500
      f+3     :     0.059057
      f-3     :     0.129558

  1 C s       :     2.495461  s :     2.495461
      pz      :     0.581468  p :     2.272709
      px      :     0.854251
      py      :     0.836991
      dz2     :     0.067459  d :     0.664089
      dxz     :     0.081514
      dyz     :     0.054532
      dx2y2   :     0.198027
      dxy     :     0.262556
      f0      :     0.020531  f :     0.325513
      f+1     :     0.028529
      f-1     :     0.022505
      f+2     :     0.041184
      f-2     :     0.018529
      f+3     :     0.056024
      f-3     :     0.138212

  2 C s       :     2.500683  s :     2.500683
      pz      :     0.535038  p :     2.232732
      px      :     0.844851
      py      :     0.852843
      dz2     :     0.067636  d :     0.678490
      dxz     :     0.040005
      dyz     :     0.113960
      dx2y2   :     0.285143
      dxy     :     0.171747
      f0      :     0.020712  f :     0.327501
      f+1     :     0.019527
      f-1     :     0.030521
      f+2     :     0.008255
      f-2     :     0.058058
      f+3     :     0.054719
      f-3     :     0.135709

  3 C s       :     2.495462  s :     2.495462
      pz      :     0.581468  p :     2.272710
      px      :     0.854252
      py      :     0.836990
      dz2     :     0.067459  d :     0.664090
      dxz     :     0.081512
      dyz     :     0.054534
      dx2y2   :     0.198020
      dxy     :     0.262564
      f0      :     0.020531  f :     0.325513
      f+1     :     0.028529
      f-1     :     0.022505
      f+2     :     0.041186
      f-2     :     0.018527
      f+3     :     0.056024
      f-3     :     0.138212

  4 C s       :     2.490169  s :     2.490169
      pz      :     0.579630  p :     2.249340
      px      :     0.853568
      py      :     0.816142
      dz2     :     0.067588  d :     0.655104
      dxz     :     0.096484
      dyz     :     0.050427
      dx2y2   :     0.191948
      dxy     :     0.248657
      f0      :     0.021722  f :     0.326118
      f+1     :     0.029352
      f-1     :     0.022286
      f+2     :     0.037642
      f-2     :     0.026502
      f+3     :     0.059057
      f-3     :     0.129557

  5 C s       :     2.458260  s :     2.458260
      pz      :     0.551873  p :     2.171765
      px      :     0.774738
      py      :     0.845154
      dz2     :     0.093916  d :     0.981991
      dxz     :     0.162478
      dyz     :     0.119478
      dx2y2   :     0.325009
      dxy     :     0.281110
      f0      :     0.033935  f :     0.550277
      f+1     :     0.042382
      f-1     :     0.034482
      f+2     :     0.056219
      f-2     :     0.062104
      f+3     :     0.081018
      f-3     :     0.240136

  6 N s       :     2.638965  s :     2.638965
      pz      :     0.914471  p :     2.883928
      px      :     0.993251
      py      :     0.976206
      dz2     :     0.037990  d :     0.380231
      dxz     :     0.064138
      dyz     :     0.004094
      dx2y2   :     0.092171
      dxy     :     0.181838
      f0      :     0.008948  f :     0.130333
      f+1     :     0.015757
      f-1     :     0.007947
      f+2     :     0.018612
      f-2     :     0.001986
      f+3     :     0.025979
      f-3     :     0.051103

  7 H s       :     0.558671  s :     0.558671
      pz      :     0.096359  p :     0.363670
      px      :     0.107041
      py      :     0.160270
      dz2     :     0.029357  d :     0.269776
      dxz     :     0.027866
      dyz     :     0.055472
      dx2y2   :     0.090103
      dxy     :     0.066977

  8 H s       :     0.558670  s :     0.558670
      pz      :     0.096359  p :     0.363671
      px      :     0.107043
      py      :     0.160269
      dz2     :     0.029357  d :     0.269777
      dxz     :     0.027868
      dyz     :     0.055471
      dx2y2   :     0.090105
      dxy     :     0.066977

  9 H s       :     0.642370  s :     0.642370
      pz      :     0.071285  p :     0.287054
      px      :     0.093533
      py      :     0.122237
      dz2     :     0.022983  d :     0.209356
      dxz     :     0.019583
      dyz     :     0.040779
      dx2y2   :     0.070797
      dxy     :     0.055214

 10 H s       :     0.652282  s :     0.652282
      pz      :     0.072634  p :     0.288983
      px      :     0.091355
      py      :     0.124994
      dz2     :     0.022596  d :     0.209211
      dxz     :     0.018881
      dyz     :     0.041587
      dx2y2   :     0.072429
      dxy     :     0.053717

 11 H s       :     0.655021  s :     0.655021
      pz      :     0.066310  p :     0.285796
      px      :     0.144368
      py      :     0.075117
      dz2     :     0.022699  d :     0.204269
      dxz     :     0.051819
      dyz     :     0.002986
      dx2y2   :     0.045225
      dxy     :     0.081540

 12 H s       :     0.652283  s :     0.652283
      pz      :     0.072634  p :     0.288984
      px      :     0.091353
      py      :     0.124997
      dz2     :     0.022596  d :     0.209211
      dxz     :     0.018879
      dyz     :     0.041589
      dx2y2   :     0.072427
      dxy     :     0.053720

 13 H s       :     0.642370  s :     0.642370
      pz      :     0.071285  p :     0.287056
      px      :     0.093536
      py      :     0.122234
      dz2     :     0.022983  d :     0.209357
      dxz     :     0.019586
      dyz     :     0.040777
      dx2y2   :     0.070800
      dxy     :     0.055212


SPIN
  0 C s       :     0.004945  s :     0.004945
      pz      :     0.125486  p :     0.130227
      px      :     0.002970
      py      :     0.001771
      dz2     :    -0.001455  d :    -0.013145
      dxz     :    -0.010399
      dyz     :     0.001523
      dx2y2   :    -0.001223
      dxy     :    -0.001590
      f0      :    -0.002809  f :    -0.000367
      f+1     :    -0.000172
      f-1     :    -0.000403
      f+2     :     0.004449
      f-2     :     0.000116
      f+3     :    -0.000504
      f-3     :    -0.001043

  1 C s       :    -0.003409  s :    -0.003409
      pz      :    -0.064779  p :    -0.073213
      px      :    -0.004233
      py      :    -0.004201
      dz2     :     0.000778  d :     0.064704
      dxz     :     0.045630
      dyz     :     0.014262
      dx2y2   :     0.001917
      dxy     :     0.002119
      f0      :     0.004441  f :     0.034644
      f+1     :    -0.000123
      f-1     :     0.000032
      f+2     :     0.016795
      f-2     :     0.011494
      f+3     :     0.001228
      f-3     :     0.000777

  2 C s       :     0.008355  s :     0.008355
      pz      :     0.204592  p :     0.214092
      px      :     0.004488
      py      :     0.005013
      dz2     :    -0.002244  d :    -0.022302
      dxz     :     0.000098
      dyz     :    -0.017002
      dx2y2   :    -0.001716
      dxy     :    -0.001438
      f0      :    -0.004618  f :    -0.012868
      f+1     :    -0.000515
      f-1     :    -0.000204
      f+2     :     0.000675
      f-2     :    -0.006549
      f+3     :    -0.000935
      f-3     :    -0.000723

  3 C s       :    -0.003409  s :    -0.003409
      pz      :    -0.064779  p :    -0.073213
      px      :    -0.004233
      py      :    -0.004202
      dz2     :     0.000778  d :     0.064704
      dxz     :     0.045628
      dyz     :     0.014263
      dx2y2   :     0.001917
      dxy     :     0.002118
      f0      :     0.004441  f :     0.034644
      f+1     :    -0.000123
      f-1     :     0.000032
      f+2     :     0.016796
[...]
      f+1     :    -0.000131
      f-1     :     0.000024
      f+2     :     0.016858
      f-2     :     0.011528
      f+3     :     0.001206
      f-3     :     0.000759

  2 C s       :     0.008110  s :     0.008110
      pz      :     0.201715  p :     0.210856
      px      :     0.004312
      py      :     0.004830
      dz2     :    -0.002226  d :    -0.021735
      dxz     :     0.000353
      dyz     :    -0.016794
      dx2y2   :    -0.001662
      dxy     :    -0.001406
      f0      :    -0.004557  f :    -0.012598
      f+1     :    -0.000505
      f-1     :    -0.000194
      f+2     :     0.000739
      f-2     :    -0.006456
      f+3     :    -0.000915
      f-3     :    -0.000710

  3 C s       :    -0.003289  s :    -0.003289
      pz      :    -0.062989  p :    -0.071137
      px      :    -0.004085
      py      :    -0.004063
      dz2     :     0.000766  d :     0.064748
      dxz     :     0.045823
      dyz     :     0.014200
      dx2y2   :     0.001879
      dxy     :     0.002080
      f0      :     0.004386  f :     0.034630
      f+1     :    -0.000131
      f-1     :     0.000024
      f+2     :     0.016860
      f-2     :     0.011526
      f+3     :     0.001206
      f-3     :     0.000759

  4 C s       :     0.004823  s :     0.004823
      pz      :     0.124140  p :     0.128706
      px      :     0.002877
      py      :     0.001689
      dz2     :    -0.001445  d :    -0.012976
      dxz     :    -0.010290
      dyz     :     0.001502
      dx2y2   :    -0.001171
      dxy     :    -0.001573
      f0      :    -0.002771  f :    -0.000092
      f+1     :    -0.000166
      f-1     :    -0.000394
      f+2     :     0.004674
      f-2     :     0.000080
      f+3     :    -0.000492
      f-3     :    -0.001022

  5 C s       :    -0.001168  s :    -0.001168
      pz      :     0.021517  p :     0.011849
      px      :    -0.005446
      py      :    -0.004222
      dz2     :     0.000010  d :     0.067809
      dxz     :     0.046819
      dyz     :     0.017035
      dx2y2   :     0.002107
      dxy     :     0.001838
      f0      :     0.003075  f :     0.050586
      f+1     :     0.000009
      f-1     :    -0.000272
      f+2     :     0.038191
      f-2     :     0.006781
      f+3     :     0.001690
      f-3     :     0.001113

  6 N s       :     0.006816  s :     0.006816
      pz      :     0.226147  p :     0.237317
      px      :     0.006139
      py      :     0.005031
      dz2     :    -0.001411  d :     0.011275
      dxz     :     0.014497
      dyz     :     0.000780
      dx2y2   :    -0.000534
      dxy     :    -0.002057
      f0      :     0.001511  f :     0.002660
      f+1     :    -0.000344
      f-1     :    -0.000431
      f+2     :     0.002255
      f-2     :     0.000431
      f+3     :    -0.000264
      f-3     :    -0.000497

  7 H s       :    -0.006230  s :    -0.006230
      pz      :     0.019825  p :     0.021709
      px      :     0.000439
      py      :     0.001445
      dz2     :    -0.000083  d :     0.018356
      dxz     :     0.001663
      dyz     :     0.015675
      dx2y2   :     0.000401
      dxy     :     0.000700

  8 H s       :    -0.006230  s :    -0.006230
      pz      :     0.019825  p :     0.021709
      px      :     0.000439
      py      :     0.001445
      dz2     :    -0.000083  d :     0.018356
      dxz     :     0.001663
      dyz     :     0.015675
      dx2y2   :     0.000401
      dxy     :     0.000701

  9 H s       :    -0.004173  s :    -0.004173
      pz      :     0.014068  p :     0.015637
      px      :     0.000288
      py      :     0.001281
      dz2     :    -0.000075  d :     0.012636
      dxz     :     0.001679
      dyz     :     0.010273
      dx2y2   :     0.000283
      dxy     :     0.000476

 10 H s       :     0.002306  s :     0.002306
      pz      :    -0.008543  p :    -0.010013
      px      :    -0.000671
      py      :    -0.000799
      dz2     :     0.000023  d :    -0.005045
      dxz     :    -0.001578
      dyz     :    -0.002563
      dx2y2   :    -0.000520
      dxy     :    -0.000407

 11 H s       :    -0.006506  s :    -0.006506
      pz      :     0.027949  p :     0.030959
      px      :     0.002847
      py      :     0.000163
      dz2     :    -0.000039  d :     0.022578
      dxz     :     0.021703
      dyz     :    -0.000624
      dx2y2   :     0.001064
      dxy     :     0.000475

 12 H s       :     0.002306  s :     0.002306
      pz      :    -0.008542  p :    -0.010012
      px      :    -0.000671
      py      :    -0.000799
      dz2     :     0.000023  d :    -0.005045
      dxz     :    -0.001578
      dyz     :    -0.002564
      dx2y2   :    -0.000520
      dxy     :    -0.000407

 13 H s       :    -0.004173  s :    -0.004173
      pz      :     0.014068  p :     0.015637
      px      :     0.000288
      py      :     0.001281
      dz2     :    -0.000075  d :     0.012636
      dxz     :     0.001679
      dyz     :     0.010273
      dx2y2   :     0.000283
      dxy     :     0.000476



                      *****************************
                      * MAYER POPULATION ANALYSIS *
                      *****************************

  NA   - Mulliken gross atomic population
  ZA   - Total nuclear charge
  QA   - Mulliken gross atomic charge
  VA   - Mayer's total valence
  BVA  - Mayer's bonded valence
  FA   - Mayer's free valence

  ATOM       NA         ZA         QA         VA         BVA        FA
  0 C      6.6840     6.0000    -0.6840     2.4877     2.4273     0.0604
  1 C      6.3600     6.0000    -0.3600     2.8980     2.8743     0.0237
  2 C      6.3760     6.0000    -0.3760     2.7889     2.6408     0.1482
  3 C      6.3604     6.0000    -0.3604     2.8983     2.8746     0.0237
  4 C      6.6843     6.0000    -0.6843     2.4896     2.4292     0.0604
  5 C      4.7767     6.0000     1.2233     1.5205     1.5009     0.0196
  6 N      7.3533     7.0000    -0.3533     3.1377     3.0066     0.1312
  7 H      0.9436     1.0000     0.0564     1.1145     1.1141     0.0004
  8 H      0.9434     1.0000     0.0566     1.1143     1.1139     0.0004
  9 H      0.3655     1.0000     0.6345     0.2817     0.2815     0.0002
 10 H      0.6713     1.0000     0.3287     0.9029     0.9029    -0.0000
 11 H      0.4437     1.0000     0.5563     0.4545     0.4543     0.0001
 12 H      0.6726     1.0000     0.3274     0.9040     0.9040    -0.0000
 13 H      0.3652     1.0000     0.6348     0.2808     0.2806     0.0002

  Mayer bond orders larger than 0.100000
B(  0-C ,  1-C ) :   1.3977 B(  0-C ,  2-C ) :   0.2985 B(  0-C ,  3-C ) :  -0.1528 
B(  0-C ,  4-C ) :   0.3572 B(  0-C ,  5-C ) :   0.4834 B(  0-C ,  6-N ) :  -0.1435 
B(  0-C , 13-H ) :   0.1427 B(  1-C ,  2-C ) :   0.9336 B(  1-C ,  3-C ) :  -0.1404 
B(  1-C ,  4-C ) :  -0.1526 B(  1-C ,  5-C ) :  -0.2230 B(  1-C , 12-H ) :   0.8777 
B(  2-C ,  3-C ) :   0.9347 B(  2-C ,  4-C ) :   0.2984 B(  2-C ,  5-C ) :  -0.1312 
B(  2-C , 11-H ) :   0.4665 B(  3-C ,  4-C ) :   1.3983 B(  3-C ,  5-C ) :  -0.2231 
B(  3-C , 10-H ) :   0.8759 B(  4-C ,  5-C ) :   0.4835 B(  4-C ,  6-N ) :  -0.1437 
B(  4-C ,  9-H ) :   0.1431 B(  5-C ,  6-N ) :   0.9428 B(  5-C ,  9-H ) :   0.1040 
B(  5-C , 13-H ) :   0.1040 B(  6-N ,  7-H ) :   1.1221 B(  6-N ,  8-H ) :   1.1216 


-------
TIMINGS
-------

Total SCF time: 0 days 0 hours 0 min 55 sec 

Total time                  ....      55.174 sec
Sum of individual times     ....      52.917 sec  ( 95.9%)

SCF preparation             ....       1.659 sec  (  3.0%)
Fock matrix formation       ....      43.097 sec  ( 78.1%)
  Startup                   ....       1.178 sec  (  2.7% of F)
  Split-RI-J                ....       1.799 sec  (  4.2% of F)
  Chain of spheres X        ....      25.978 sec  ( 60.3% of F)
  XC integration            ....      11.897 sec  ( 27.6% of F)
    Basis function eval.    ....       0.498 sec  (  4.2% of XC)
    Density eval.           ....       4.290 sec  ( 36.1% of XC)
    XC-Functional eval.     ....       0.111 sec  (  0.9% of XC)
    XC-Potential eval.      ....       5.936 sec  ( 49.9% of XC)
  CPCM terms                ....       0.805 sec  (  1.9% of F)
Diagonalization             ....       0.000 sec  (  0.0%)
Density matrix formation    ....       1.467 sec  (  2.7%)
Total Energy calculation    ....       0.962 sec  (  1.7%)
Population analysis         ....       2.098 sec  (  3.8%)
Orbital Transformation      ....       0.735 sec  (  1.3%)
Orbital Orthonormalization  ....       0.000 sec  (  0.0%)
DIIS solution               ....       0.839 sec  (  1.5%)
SOSCF solution              ....       2.060 sec  (  3.7%)
Finished LeanSCF after  55.9 sec

Maximum memory used throughout the entire LEANSCF-calculation: 63.0 MB


-------------------------------------------------------------------------------
                          DFT DISPERSION CORRECTION                            
                                                                               
                              DFTD3 V3.1  Rev 1                                
                          USING Becke-Johnson damping                          
-------------------------------------------------------------------------------
The R2SCANh functional is recognized
Active option DFTDOPT                   ...         4   

molecular C6(AA) [au] = 2149.843717 


            DFT-D V3
 parameters
 s6 scaling factor         :     1.0000 
 a1 scaling factor         :     0.4709 
 s8 scaling factor         :     1.1236 
 a2 scaling factor         :     5.9157 
 ad hoc parameters k1-k3   :    16.0000     1.3333    -4.0000 

 Edisp/kcal,au: -2.471591615696  -0.003938731532 
 E6   /kcal   :  -1.784071576 
 E8   /kcal   :  -0.687520039 
 % E8         :  27.816894790 

-------------------------   ----------------
Dispersion correction           -0.003938732
-------------------------   ----------------


-------------------------   --------------------
FINAL SINGLE POINT ENERGY      -287.356758303446
-------------------------   --------------------

                                *** OPTIMIZATION RUN DONE ***



           ************************************************************
           *        Program running with 8 parallel MPI-processes     *
           *              working on a common directory               *
           ************************************************************

------------------------------------------------------------------------------
                              ORCA PROPERTY CALCULATIONS
------------------------------------------------------------------------------

GBWName                                 ... cs_rporg_075_ox_opt_07.gbw
Number of atoms                         ...     14
Number of basis functions               ...    525
Max core memory                         ...   3500 MB

Electric properties:
Dipole moment                           ... YES
Quadrupole moment                       ...  NO
Static polarizability (Dipole/Dipole)   ...  NO
Static polarizability (Dipole/Quad.)    ...  NO
Static polarizability (Quad./Quad.)     ...  NO
Static polarizability (Velocity)        ...  NO

Atomic electric properties:
Dipole moment                           ...  NO
Quadrupole moment                       ...  NO
Static polarizability                   ...  NO

Choice of electric origin               ... Center of mass
Position of electric origin             ...     0.010560    -0.000014    -0.059885

General magnetic properties:
Magnetizability                         ...  NO

EPR properties:
g-Tensor (aka g-matrix)                 ...  NO
Zero-Field splitting spin-orbit         ...  NO
Zero-field splitting spin-spin          ...  NO
Hyperfine couplings                     ...  NO (   0 nuclei)
Quadrupole couplings                    ...  NO (   0 nuclei)
Contact density                         ...  NO (   0 nuclei)

NMR properties:
Chemical shifts                         ...  NO (   0 nuclei)
Spin-rotation constants                 ...  NO (   0 nuclei)
Spin-spin couplings                     ...  NO (   0 nuclei,    0 pairs)

Choice of magnetic origin               ... GIAO
Position of magnetic origin             ...     0.000000     0.000000     0.000000

Properties with geometric perturbations:
SCF Hessian                             ...  NO
IR spectrum                             ...  NO
VCD spectrum                            ...  NO
X-ray spectroscopy properties:
SCF XES/XAS/RIXS spectra                ...  NO


-------------
DIPOLE MOMENT
-------------

Method             : SCF
Type of density    : Electron Density
Multiplicity       :   2
Irrep              :   0
Energy             :  -287.3528195719136988 Eh
Relativity type    : 
Basis              : AO
                                X                 Y                 Z
Electronic contribution:     -0.959422421       0.000023046      -0.028323552
Nuclear contribution   :     -0.817010206       0.000008816      -0.026221946
                        -----------------------------------------
Total Dipole Moment    :     -1.776432628       0.000031862      -0.054545498
                        -----------------------------------------
Magnitude (a.u.)       :      1.777269842
Magnitude (Debye)      :      4.517460931



--------------------
Rotational spectrum 
--------------------
 
Rotational constants in cm-1:             0.181533             0.090864             0.060554 
Rotational constants in MHz :          5442.221603          2724.033480          1815.372683 

Dipole components along the rotational axes: 
x,y,z [a.u.] :     1.777269     0.000003    -0.001693 
x,y,z [Debye]:     4.517459     0.000007    -0.004302 

 

Dipole moment calculation done in   0.2 sec 

Maximum memory used throughout the entire PROP-calculation: 33.1 MB

--------------------------------
SUGGESTED CITATIONS FOR THIS RUN
--------------------------------

Below you find a list of papers that are relevant to this ORCA run
We neither can nor want to force you to cite these papers, but we appreciate if you do
You receive ORCA, which is the product of decades of hard work by many enthusiastic individuals, for free
The only thing we kindly ask in return is that you cite our papers,
We deeply appreciate it, if you show your appreciation for ORCA by not just citing the generic ORCA reference.

Please note that relegating all ORCA citations to the supporting information does *not* help us.
SI sections are not indexed - citations you put there will not count into any citation statistics
But we need these citations in order to attract the funding resources that allow us to do what we are doing

Therefore, if you are a happy ORCA user, please consider citing a few of the papers listed below in the main body of your paper

In addition to the list printed below, the program has created the file cs_rporg_075_ox_opt_07.bibtex that contains the list in bibtex format
You can import this file easily into all common literature databanks and citation aid programs


List of essential papers. We consider these as the minimum necessary citations

  1. Neese,F.
     Software update: the ORCA program system, version 5.0
     WIRES Comput. Molec. Sci., 2022 12(1)e1606
     doi.org/10.1002/wcms.1606

List of papers to cite with high priority. The work reported in these papers was absolutely
necessary for this run to complete.
Our perspective: the developers of density functionals and basis sets usually get cited in chemistry papers
Good! But without the algorithms to do something with them, the functionals or basis sets would not do anything.
Hence, in our opinion, the algorithm design and method developments papers are equally worthy of getting cited

  1. Neese,F.
     An improvement of the resolution of the identity approximation for the formation of the Coulomb matrix
     J. Comp. Chem., 2003 24(14)1740-1747
     doi.org/10.1002/jcc.10318
  2. Neese,F.; Wennmohs,F.; Hansen,A.; Becker,U.
     Efficient, approximate and parallel Hartree-Fock and hybrid DFT calculations. A 'chain-of-spheres' algorithm for the Hartree-Fock exchange
     Chem. Phys., 2009 356(1-3)98-109
     doi.org/10.1016/j.chemphys.2008.10.036
  3. Garcia-Rates,M.; Neese,F.
     Effect of the Solute Cavity on the Solvation Energy and its Derivatives within the Framework of the Gaussian Charge Scheme
     J. Comput. Chem., 2020 41 922-939
     doi.org/10.1002/jcc.26139
  4. Helmich-Paris,B.; de Souza,B.; Neese,F.; Izsák,R.
     An improved chain of spheres for exchange algorithm
     J. Chem. Phys., 2021 155 104109
     doi.org/doi: 10.1063/5.0058766.
  5. Neese,F.
     The SHARK Integral Generation and Digestion System
     J. Comp. Chem., 2022  1-16
     doi.org/10.1002/jcc.26942
  6. Lehtola,S.; Steigemann,C.; Oliveira,M.; Marques,M.
     Recent developments in Libxc - A comprehensive library of functionals for density functional theory
     Software X, 2018 7 
     doi.org/10.1016/j.softx.2017.11.002
  7. Grimme,S.; Antony,J.; Ehrlich,S.; Krieg,H.
     A consistent and accurate ab initio parametrization of density functional dispersion correction (DFT-D) for the 94 elements H-Pu
     J. Chem. Phys., 2010 132 154104-XXXX
     doi.org/10.1063/1.3382344
  8. Grimme,S.; Ehrlich,S.; Goerigk,L.
     Effect of the damping function in dispersion corrected density functional theory
     J. Comput. Chem., 2011 32(7)1456-1465
     doi.org/10.1002/jcc.21759
  9. Bursch,M.; Neugebauer,H.; Ehlert,S.; Grimme,S.
     Dispersion corrected r2SCAN based global hybrid functionals: r2SCANh, r2SCAN0, and r2SCAN50
     J. Phys. Chem., 2022 156(13)134105
     doi.org/10.1063/5.0086040

List of suggested additional citations. These are papers that are important in the 'surrounding' of 
of this run, or papers that preceded the highly important papers. If you like your results we are grateful for a citation.

  1. Izsak,R.; Neese,F.
     An overlap fitted chain of spheres exchange method
     J. Chem. Phys., 2011 135 144105
     doi.org/10.1063/1.3646921
  2. Izsak,R.; Hansen,A.; Neese,F.
     The resolution of identity and chain of spheres approximations for the LPNO-CCSD singles Fock term
     Molec. Phys., 2012 110 2413-2417
     doi.org/10.1080/00268976.2012.687466
  3. Neese,F.
     The ORCA program system
     WIRES Comput. Molec. Sci., 2012 2(1)73-78
     doi.org/10.1002/wcms.81
  4. Izsak,R.; Neese,F.; Klopper,W.
     Robust fitting techniques in the chain of spheres approximation to the Fock exchange: The role of the complementary space
     J. Chem. Phys., 2013 139 
     doi.org/10.1063/1.4819264
  5. Neese,F.
     Software update: the ORCA program system, version 4.0
     WIRES Comput. Molec. Sci., 2018 8(1)1-6
     doi.org/10.1002/wcms.1327
  6. Neese,F.; Wennmohs,F.; Becker,U.; Riplinger,C.
     The ORCA quantum chemistry program package
     J. Chem. Phys., 2020 152 Art. No. L224108
     doi.org/10.1063/5.0004608
  7. Wittmann,L.; Neugebauer,H.; Grimme,S.; Bursch,M.
     Dispersion-corrected r2SCAN based double-hybrid functionals
     J. Chem. Phys., 2023 159(22)224103
     doi.org/10.1063/5.0174988

List of optional additional citations

  1. Neese,F.
     Approximate second-order SCF convergence for spin unrestricted wavefunctions
     Chem. Phys. Lett., 2000 325(1-3)93-98
     doi.org/10.1016/s0009-2614(00)00662-x

Timings for individual modules:

Sum of individual times          ...     1163.337 sec (=  19.389 min)
Startup calculation              ...       51.513 sec (=   0.859 min)   4.4 %
SCF iterations                   ...      751.476 sec (=  12.525 min)  64.6 %
Property calculations            ...        2.092 sec (=   0.035 min)   0.2 %
SCF Gradient evaluation          ...      357.776 sec (=   5.963 min)  30.8 %
Geometry relaxation              ...        0.480 sec (=   0.008 min)   0.0 %
                             ****ORCA TERMINATED NORMALLY****
TOTAL RUN TIME: 0 days 0 hours 19 minutes 46 seconds 319 msec
