 vasp.6.4.2 20Jul23 (build Sep 06 2024 14:39:43) complex                        
  
 executed on             LinuxIFC date 2024.10.25  06:43:40
 running   60 mpi-ranks, on    3 nodes
 distrk:  each k-point on   60 cores,    1 groups
 distr:  one band on NCORE=  10 cores,    6 groups


--------------------------------------------------------------------------------------------------------


 INCAR:
   SYSTEM = 010_red
   ISTART = 1
   ICHARG = 2
   INIWAV = 1
   METAGGA = R2SCAN
   LASPH = .TRUE.
   NELM = 100
   ALGO = fast   	
   ISPIN = 2
   EDIFF = 1E-05
   ISMEAR = 0
   SIGMA = 0.05
   PREC = accurate
   ENCUT = 500
   LREAL = auto  	
   LWAVE = .TRUE.
   LCHARG = .FALSE.
   LAECHG = .FALSE.
   LVHAR = .FALSE.
   LVTOT = .FALSE.
   EDIFFG = -0.02
   IBRION = 2
   NSW = 500
   ISIF = 2
   POTIM = 0.5
   IVDW = 12
   VDW_A1 = 0.49484001
   VDW_S8 = 0.78981345
   VDW_A2 = 5.73083694
   LPLANE = .TRUE.
   NCORE = 10
   LSCALU = .FALSE.
   NSIM = 4
   LSOL = .TRUE.
   EB_K = 35.6880
   LAMBDA_D_K = 3.04
   TAU = 0

 POTCAR:    PAW_PBE C 08Apr2002                   
 POTCAR:    PAW_PBE O 08Apr2002                   
 POTCAR:    PAW_PBE H 15Jun2001                   
 -----------------------------------------------------------------------------
|                                                                             |
|           W    W    AA    RRRRR   N    N  II  N    N   GGGG   !!!           |
|           W    W   A  A   R    R  NN   N  II  NN   N  G    G  !!!           |
|           W    W  A    A  R    R  N N  N  II  N N  N  G       !!!           |
|           W WW W  AAAAAA  RRRRR   N  N N  II  N  N N  G  GGG   !            |
|           WW  WW  A    A  R   R   N   NN  II  N   NN  G    G                |
|           W    W  A    A  R    R  N    N  II  N    N   GGGG   !!!           |
|                                                                             |
|     You use a magnetic or noncollinear calculation, but did not specify     |
|     the initial magnetic moment with the MAGMOM tag. Note that a            |
|     default of 1 will be used for all atoms. This ferromagnetic setup       |
|     may break the symmetry of the crystal, in particular it may rule        |
|     out finding an antiferromagnetic solution. Thence, we recommend         |
|     setting the initial magnetic moment manually or verifying carefully     |
|     that this magnetic setup is desired.                                    |
|                                                                             |
 -----------------------------------------------------------------------------

 POTCAR:    PAW_PBE C 08Apr2002                   
   VRHFIN =C: s2p2                                                                                  
   LEXCH  = PE                                                                                      
   EATOM  =   147.1560 eV,   10.8157 Ry                                                             
                                                                                                    
   TITEL  = PAW_PBE C 08Apr2002                                                                     
   LULTRA =        F    use ultrasoft PP ?                                                          
   IUNSCR =        1    unscreen: 0-lin 1-nonlin 2-no                                               
   RPACOR =    1.200    partial core radius                                                         
   POMASS =   12.011; ZVAL   =    4.000    mass and valenz                                          
   RCORE  =    1.500    outmost cutoff radius                                                       
   RWIGS  =    1.630; RWIGS  =    0.863    wigner-seitz radius (au A)                               
   ENMAX  =  400.000; ENMIN  =  300.000 eV                                                          
   ICORE  =        2    local potential                                                             
   LCOR   =        T    correct aug charges                                                         
   LPAW   =        T    paw PP                                                                      
   EAUG   =  644.873                                                                                
   DEXC   =    0.000                                                                                
   RMAX   =    1.529    core radius for proj-oper                                                   
   RAUG   =    1.300    factor for augmentation sphere                                              
   RDEP   =    1.501    radius for radial grids                                                     
   RDEPT  =    1.300    core radius for aug-charge                                                  
                                                                                                    
   Atomic configuration                                                                             
    4 entries                                                                                       
     n  l   j            E        occ.                                                              
     1  0  0.50      -273.3789   2.0000                                                             
     2  0  0.50       -13.7508   2.0000                                                             
     2  1  0.50        -5.2854   2.0000                                                             
     3  2  1.50        -5.4423   0.0000                                                             
   Description                                                                                      
     l       E           TYP  RCUT    TYP  RCUT                                                     
     0    -13.7508458     23  1.200                                                                 
     0     -8.2022199     23  1.200                                                                 
     1     -5.2854383     23  1.500                                                                 
     1     34.0145650     23  1.500                                                                 
     2     -5.4423304      7  1.500                                                                 
  local pseudopotential read in
  partial core-charges read in
  partial kinetic energy density read in
  atomic valenz-charges read in
  non local Contribution for L=           0  read in
    real space projection operators read in
  non local Contribution for L=           0  read in
    real space projection operators read in
  non local Contribution for L=           1  read in
    real space projection operators read in
  non local Contribution for L=           1  read in
    real space projection operators read in
    PAW grid and wavefunctions read in
 
   number of l-projection  operators is LMAX  =           4
   number of lm-projection operators is LMMAX =           8
 
 POTCAR:    PAW_PBE O 08Apr2002                   
   VRHFIN =O: s2p4                                                                                  
   LEXCH  = PE                                                                                      
   EATOM  =   432.3788 eV,   31.7789 Ry                                                             
                                                                                                    
   TITEL  = PAW_PBE O 08Apr2002                                                                     
   LULTRA =        F    use ultrasoft PP ?                                                          
   IUNSCR =        1    unscreen: 0-lin 1-nonlin 2-no                                               
   RPACOR =    1.200    partial core radius                                                         
   POMASS =   16.000; ZVAL   =    6.000    mass and valenz                                          
   RCORE  =    1.520    outmost cutoff radius                                                       
   RWIGS  =    1.550; RWIGS  =    0.820    wigner-seitz radius (au A)                               
   ENMAX  =  400.000; ENMIN  =  300.000 eV                                                          
   ICORE  =        2    local potential                                                             
   LCOR   =        T    correct aug charges                                                         
   LPAW   =        T    paw PP                                                                      
   EAUG   =  605.392                                                                                
   DEXC   =    0.000                                                                                
   RMAX   =    1.553    core radius for proj-oper                                                   
   RAUG   =    1.300    factor for augmentation sphere                                              
   RDEP   =    1.550    radius for radial grids                                                     
   RDEPT  =    1.329    core radius for aug-charge                                                  
                                                                                                    
   Atomic configuration                                                                             
    4 entries                                                                                       
     n  l   j            E        occ.                                                              
     1  0  0.50      -514.6923   2.0000                                                             
     2  0  0.50       -23.9615   2.0000                                                             
     2  1  0.50        -9.0305   4.0000                                                             
     3  2  1.50        -9.5241   0.0000                                                             
   Description                                                                                      
     l       E           TYP  RCUT    TYP  RCUT                                                     
     0    -23.9615318     23  1.200                                                                 
     0     -9.5240782     23  1.200                                                                 
     1     -9.0304911     23  1.520                                                                 
     1      8.1634956     23  1.520                                                                 
     2     -9.5240782      7  1.500                                                                 
  local pseudopotential read in
  partial core-charges read in
  partial kinetic energy density read in
  kinetic energy density of atom read in
  atomic valenz-charges read in
  non local Contribution for L=           0  read in
    real space projection operators read in
  non local Contribution for L=           0  read in
    real space projection operators read in
  non local Contribution for L=           1  read in
    real space projection operators read in
  non local Contribution for L=           1  read in
    real space projection operators read in
    PAW grid and wavefunctions read in
 
   number of l-projection  operators is LMAX  =           4
   number of lm-projection operators is LMMAX =           8
 
 POTCAR:    PAW_PBE H 15Jun2001                   
   VRHFIN =H: ultrasoft test                                                                        
   LEXCH  = PE                                                                                      
   EATOM  =    12.4884 eV,    0.9179 Ry                                                             
                                                                                                    
   TITEL  = PAW_PBE H 15Jun2001                                                                     
   LULTRA =        F    use ultrasoft PP ?                                                          
   IUNSCR =        0    unscreen: 0-lin 1-nonlin 2-no                                               
   RPACOR =    0.000    partial core radius                                                         
   POMASS =    1.000; ZVAL   =    1.000    mass and valenz                                          
   RCORE  =    1.100    outmost cutoff radius                                                       
   RWIGS  =    0.700; RWIGS  =    0.370    wigner-seitz radius (au A)                               
   ENMAX  =  250.000; ENMIN  =  200.000 eV                                                          
   RCLOC  =    0.701    cutoff for local pot                                                        
   LCOR   =        T    correct aug charges                                                         
   LPAW   =        T    paw PP                                                                      
   EAUG   =  400.000                                                                                
   RMAX   =    1.123    core radius for proj-oper                                                   
   RAUG   =    1.200    factor for augmentation sphere                                              
   RDEP   =    1.112    radius for radial grids                                                     
   RDEPT  =    0.926    core radius for aug-charge                                                  
                                                                                                    
   Atomic configuration                                                                             
    2 entries                                                                                       
     n  l   j            E        occ.                                                              
     1  0  0.50        -6.4927   1.0000                                                             
     2  1  0.50        -3.4015   0.0000                                                             
   Description                                                                                      
     l       E           TYP  RCUT    TYP  RCUT                                                     
     0     -6.4927494     23  1.100                                                                 
     0      6.8029130     23  1.100                                                                 
     1     -4.0817478     23  1.100                                                                 
  local pseudopotential read in
  atomic valenz-charges read in
  non local Contribution for L=           0  read in
    real space projection operators read in
  non local Contribution for L=           0  read in
    real space projection operators read in
  non local Contribution for L=           1  read in
    real space projection operators read in
    PAW grid and wavefunctions read in
 
   number of l-projection  operators is LMAX  =           3
   number of lm-projection operators is LMMAX =           5
 
 Optimization of the real space projectors (new method)

 maximal supplied QI-value         = 25.13
 optimisation between [QCUT,QGAM] = [ 11.31, 22.87] = [ 35.82,146.48] Ry 
 Optimized for a Real-space Cutoff    1.03 Angstroem

   l    n(q)    QCUT    max X(q) W(low)/X(q) W(high)/X(q)  e(spline) 
   0      7    11.310   115.676    0.20E-03    0.90E-03    0.20E-06
   0      7    11.310    87.132    0.20E-03    0.89E-03    0.19E-06
   1      6    11.310     4.429    0.16E-03    0.28E-03    0.12E-06
   1      6    11.310     2.733    0.12E-03    0.21E-03    0.99E-07
 Optimization of the real space projectors (new method)

 maximal supplied QI-value         = 24.76
 optimisation between [QCUT,QGAM] = [ 11.39, 22.77] = [ 36.31,145.25] Ry 
 Optimized for a Real-space Cutoff    1.10 Angstroem

   l    n(q)    QCUT    max X(q) W(low)/X(q) W(high)/X(q)  e(spline) 
   0      7    11.387    20.381    0.22E-03    0.48E-03    0.18E-06
   0      7    11.387    15.268    0.22E-03    0.52E-03    0.19E-06
   1      7    11.387     5.964    0.22E-03    0.73E-03    0.24E-06
   1      7    11.387     5.382    0.19E-03    0.60E-03    0.21E-06
 Optimization of the real space projectors (new method)

 maximal supplied QI-value         = 34.20
 optimisation between [QCUT,QGAM] = [ 11.29, 22.57] = [ 35.68,142.71] Ry 
 Optimized for a Real-space Cutoff    1.20 Angstroem

   l    n(q)    QCUT    max X(q) W(low)/X(q) W(high)/X(q)  e(spline) 
   0      8    11.287    19.460    0.22E-03    0.50E-03    0.19E-06
   0      8    11.287    12.209    0.21E-03    0.48E-03    0.18E-06
   1      8    11.287     4.655    0.21E-03    0.11E-04    0.26E-06
  PAW_PBE C 08Apr2002                   :
 energy of atom  1       EATOM= -147.1560
 kinetic energy error for atom=    0.0076 (will be added to EATOM!!)
  PAW_PBE O 08Apr2002                   :
 energy of atom  2       EATOM= -432.3788
 kinetic energy error for atom=    0.0224 (will be added to EATOM!!)
  PAW_PBE H 15Jun2001                   :
 energy of atom  3       EATOM=  -12.4884
 kinetic energy error for atom=    0.0020 (will be added to EATOM!!)
 
 
 POSCAR: C O H
  positions in direct lattice
  velocities in cartesian coordinates

 METAGGA = R2SCAN                                      LMAXTAU =  6    LMIXTAU =  F

 exchange correlation table for  LEXCH =        8
   RHO(1)=    0.500       N(1)  =     2000
   RHO(2)=  100.500       N(2)  =     4000
 


--------------------------------------------------------------------------------------------------------


 ion  position               nearest neighbor table
   1  0.494  0.457  0.501-  22 1.09   2 1.41   6 1.41
   2  0.459  0.454  0.501-  21 1.09   3 1.38   1 1.41
   3  0.441  0.483  0.500-  12 1.38   2 1.38   4 1.40
   4  0.456  0.515  0.500-   5 1.38  11 1.38   3 1.40
   5  0.491  0.518  0.501-  18 1.09   4 1.38   6 1.42
   6  0.510  0.488  0.501-   1 1.41   5 1.42   7 1.47
   7  0.547  0.489  0.502-  17 1.10   8 1.35   6 1.47
   8  0.567  0.516  0.502-  16 1.10   7 1.35   9 1.50
   9  0.604  0.515  0.502-  13 1.10  14 1.10  15 1.10   8 1.50
  10  0.401  0.523  0.494-  20 1.10  19 1.10  11 1.45  12 1.45
  11  0.433  0.540  0.500-   4 1.38  10 1.45
  12  0.406  0.488  0.500-   3 1.38  10 1.45
  13  0.613  0.489  0.503-   9 1.10
  14  0.615  0.527  0.480-   9 1.10
  15  0.614  0.528  0.524-   9 1.10
  16  0.556  0.541  0.501-   8 1.10
  17  0.559  0.464  0.503-   7 1.10
  18  0.502  0.543  0.501-   5 1.09
  19  0.393  0.527  0.468-  10 1.10
  20  0.383  0.532  0.512-  10 1.10
  21  0.447  0.430  0.501-   2 1.09
  22  0.509  0.434  0.502-   1 1.09
 
  LATTYP: Found a simple cubic cell.
 ALAT       =    40.0000000000
  
  Lattice vectors:
  
 A1 = (  40.0000000000,   0.0000000000,   0.0000000000)
 A2 = (   0.0000000000,  40.0000000000,   0.0000000000)
 A3 = (   0.0000000000,   0.0000000000,  40.0000000000)


Analysis of symmetry for initial positions (statically):
=====================================================================
 Subroutine PRICEL returns:
 Original cell was already a primitive cell.
 

 Routine SETGRP: Setting up the symmetry group for a 
 simple cubic supercell.


 Subroutine GETGRP returns: Found  1 space group operations
 (whereof  1 operations were pure point group operations)
 out of a pool of 48 trial point group operations.


The static configuration has the point symmetry C_1 .


Analysis of symmetry for dynamics (positions and initial velocities):
=====================================================================
 Subroutine PRICEL returns:
 Original cell was already a primitive cell.
 

 Routine SETGRP: Setting up the symmetry group for a 
 simple cubic supercell.


 Subroutine GETGRP returns: Found  1 space group operations
 (whereof  1 operations were pure point group operations)
 out of a pool of 48 trial point group operations.


The dynamic configuration has the point symmetry C_1 .


Analysis of constrained symmetry for selective dynamics:
=====================================================================
 Subroutine PRICEL returns:
 Original cell was already a primitive cell.
 

 Routine SETGRP: Setting up the symmetry group for a 
 simple cubic supercell.


 Subroutine GETGRP returns: Found  1 space group operations
 (whereof  1 operations were pure point group operations)
 out of a pool of 48 trial point group operations.


The constrained configuration has the point symmetry C_1 .


Analysis of structural, dynamic, and magnetic symmetry:
=====================================================================
 Subroutine PRICEL returns:
 Original cell was already a primitive cell.
 

 Routine SETGRP: Setting up the symmetry group for a 
 simple cubic supercell.


 Subroutine GETGRP returns: Found  1 space group operations
 (whereof  1 operations were pure point group operations)
 out of a pool of 48 trial point group operations.


The overall configuration has the point symmetry C_1 .


 Subroutine INISYM returns: Found  1 space group operations
 (whereof  1 operations are pure point group operations),
 and found     1 'primitive' translations


----------------------------------------------------------------------------------------

                                     Primitive cell                                     

  volume of cell :   64000.0000

  direct lattice vectors                    reciprocal lattice vectors
    40.000000000  0.000000000  0.000000000     0.025000000  0.000000000  0.000000000
     0.000000000 40.000000000  0.000000000     0.000000000  0.025000000  0.000000000
     0.000000000  0.000000000 40.000000000     0.000000000  0.000000000  0.025000000

  length of vectors
    40.000000000 40.000000000 40.000000000     0.025000000  0.025000000  0.025000000

  position of ions in fractional coordinates (direct lattice)
     0.493787594  0.457105713  0.501403418
     0.458733327  0.454028859  0.500668598
     0.440597436  0.483438906  0.499769386
     0.456445628  0.514628494  0.499803889
     0.490716550  0.518013797  0.500662599
     0.510177911  0.488265283  0.501388820
     0.546837210  0.488885542  0.502068168
     0.566941384  0.515925264  0.501624128
     0.604297364  0.514511402  0.502395885
     0.401112315  0.523065839  0.494394822
     0.432724459  0.539687643  0.500197182
     0.406394412  0.487681100  0.500093294
     0.613487459  0.488629837  0.503325120
     0.615171728  0.526760488  0.480220622
     0.614306196  0.528023621  0.524244880
     0.555953188  0.540990873  0.500621311
     0.558680371  0.464173295  0.502995119
     0.502216607  0.542700759  0.500925665
     0.393448455  0.526977729  0.468208495
     0.382509571  0.532450290  0.512194266
     0.446560787  0.429663369  0.500849303
     0.508901048  0.434390896  0.501944030

  ion indices of the primitive-cell ions
   primitive index   ion index
                 1           1
                 2           2
                 3           3
                 4           4
                 5           5
                 6           6
                 7           7
                 8           8
                 9           9
                10          10
                11          11
                12          12
                13          13
                14          14
                15          15
                16          16
                17          17
                18          18
                19          19
                20          20
                21          21
                22          22

----------------------------------------------------------------------------------------

 
 
 KPOINTS: K-Point Grid                            

Automatic generation of k-mesh.
 Grid dimensions read from file:
 generate k-points for:    1    1    1

 Generating k-lattice:

  Cartesian coordinates                     Fractional coordinates (reciprocal lattice)
     0.025000000  0.000000000  0.000000000     1.000000000  0.000000000  0.000000000
     0.000000000  0.025000000  0.000000000     0.000000000  1.000000000  0.000000000
     0.000000000  0.000000000  0.025000000     0.000000000  0.000000000  1.000000000

  Length of vectors
     0.025000000  0.025000000  0.025000000

  Shift w.r.t. Gamma in fractional coordinates (k-lattice)
     0.000000000  0.000000000  0.000000000

 
 Subroutine IBZKPT returns following result:
 ===========================================
 
 Found      1 irreducible k-points:
 
 Following reciprocal coordinates:
            Coordinates               Weight
  0.000000  0.000000  0.000000      1.000000
 
 Following cartesian coordinates:
            Coordinates               Weight
  0.000000  0.000000  0.000000      1.000000
 


--------------------------------------------------------------------------------------------------------




 Dimension of arrays:
   k-points           NKPTS =      1   k-points in BZ     NKDIM =      1   number of bands    NBANDS=     54
   number of dos      NEDOS =    301   number of ions     NIONS =     22
   non local maximal  LDIM  =      4   non local SUM 2l+1 LMDIM =      8
   total plane-waves  NPLWV = ******
   max r-space proj   IRMAX =   2915   max aug-charges    IRDMAX=   5350
   dimension x,y,z NGX =   294 NGY =  294 NGZ =  294
   dimension x,y,z NGXF=   588 NGYF=  588 NGZF=  588
   support grid    NGXF=   588 NGYF=  588 NGZF=  588
   ions per type =              10   2  10
   NGX,Y,Z   is equivalent  to a cutoff of  12.22, 12.22, 12.22 a.u.
   NGXF,Y,Z  is equivalent  to a cutoff of  24.44, 24.44, 24.44 a.u.

 SYSTEM =  010_red                                 
 POSCAR =  C O H                                   

 Startparameter for this run:
   NWRITE =      2    write-flag & timer
   PREC   = accura    normal or accurate (medium, high low for compatibility)
   ISTART =      1    job   : 0-new  1-cont  2-samecut
   ICHARG =      2    charge: 1-file 2-atom 10-const
   ISPIN  =      2    spin polarized calculation?
   LNONCOLLINEAR =      F non collinear calculations
   LSORBIT =      F    spin-orbit coupling
   INIWAV =      1    electr: 0-lowe 1-rand  2-diag
   LASPH  =      T    aspherical Exc in radial PAW
 Electronic Relaxation 1
   ENCUT  =  500.0 eV  36.75 Ry    6.06 a.u.  72.93 72.93 72.93*2*pi/ulx,y,z
   ENINI  =  500.0     initial cutoff
   ENAUG  =  644.9 eV  augmentation charge cutoff
   NELM   =    100;   NELMIN=  2; NELMDL=  0     # of ELM steps 
   EDIFF  = 0.1E-04   stopping-criterion for ELM
   LREAL  =      T    real-space projection
   NLSPLINE    = F    spline interpolate recip. space projectors
   LCOMPAT=      F    compatible to vasp.4.4
   GGA_COMPAT  = T    GGA compatible to vasp.4.4-vasp.4.6
   LMAXPAW     = -100 max onsite density
   LMAXMIX     =    2 max onsite mixed and CHGCAR
   VOSKOWN=      0    Vosko Wilk Nusair interpolation
   ROPT   =   -0.00025  -0.00025  -0.00025
 Ionic relaxation
   EDIFFG = -.2E-01   stopping-criterion for IOM
   NSW    =    500    number of steps for IOM
   NBLOCK =      1;   KBLOCK =    500    inner block; outer block 
   IBRION =      2    ionic relax: 0-MD 1-quasi-New 2-CG
   NFREE  =      1    steps in history (QN), initial steepest desc. (CG)
   ISIF   =      2    stress and relaxation
   IWAVPR =     11    prediction:  0-non 1-charg 2-wave 3-comb
   ISYM   =      2    0-nonsym 1-usesym 2-fastsym
   LCORR  =      T    Harris-Foulkes like correction to forces

   POTIM  = 0.5000    time-step for ionic-motion
   TEIN   =    0.0    initial temperature
   TEBEG  =    0.0;   TEEND  =   0.0 temperature during run
   SMASS  =  -3.00    Nose mass-parameter (am)
   estimated Nose-frequenzy (Omega)   =  0.10E-29 period in steps = 0.13E+47 mass=  -0.366E-25a.u.
   SCALEE = 1.0000    scale energy and forces
   NPACO  =    256;   APACO  = 10.0  distance and # of slots for P.C.
   PSTRESS=    0.0 pullay stress

  Mass of Ions in am
   POMASS =  12.01 16.00  1.00
  Ionic Valenz
   ZVAL   =   4.00  6.00  1.00
  Atomic Wigner-Seitz radii
   RWIGS  =  -1.00 -1.00 -1.00
  virtual crystal weights 
   VCA    =   1.00  1.00  1.00
   NELECT =      62.0000    total number of electrons
   NUPDOWN=      -1.0000    fix difference up-down

 DOS related values:
   EMIN   =  10.00;   EMAX   =-10.00  energy-range for DOS
   EFERMI =   0.00;   METHOD = LEGACY      
   ISMEAR =     0;   SIGMA  =   0.05  broadening in eV -4-tet -1-fermi 0-gaus

 Electronic relaxation 2 (details)
   IALGO  =     68    algorithm
   LDIAG  =      T    sub-space diagonalisation (order eigenvalues)
   LSUBROT=      F    optimize rotation matrix (better conditioning)
   TURBO    =      0    0=normal 1=particle mesh
   IRESTART =      0    0=no restart 2=restart with 2 vectors
   NREBOOT  =      0    no. of reboots
   NMIN     =      0    reboot dimension
   EREF     =   0.00    reference energy to select bands
   IMIX   =      4    mixing-type and parameters
     AMIX     =   0.40;   BMIX     =  1.00
     AMIX_MAG =   1.60;   BMIX_MAG =  1.00
     AMIN     =   0.10
     WC   =   100.;   INIMIX=   1;  MIXPRE=   1;  MAXMIX= -45

 Intra band minimization:
   WEIMIN = 0.0010     energy-eigenvalue tresh-hold
   EBREAK =  0.46E-07  absolut break condition
   DEPER  =   0.30     relativ break condition  

   TIME   =   0.40     timestep for ELM

  volume/ion in A,a.u.               =    2909.09     19631.51
  Fermi-wavevector in a.u.,A,eV,Ry     =   0.161986  0.306110  0.357012  0.026240
  Thomas-Fermi vector in A             =   0.858209
 
 Write flags
   LWAVE        =      T    write WAVECAR
   LDOWNSAMPLE  =      F    k-point downsampling of WAVECAR
   LCHARG       =      F    write CHGCAR
   LVTOT        =      F    write LOCPOT, total local potential
   LVHAR        =      F    write LOCPOT, Hartree potential only
   LELF         =      F    write electronic localiz. function (ELF)
   LORBIT       =      0    0 simple, 1 ext, 2 COOP (PROOUT), +10 PAW based schemes


 Dipole corrections
   LMONO  =      F    monopole corrections only (constant potential shift)
   LDIPOL =      F    correct potential (dipole corrections)
   IDIPOL =      0    1-x, 2-y, 3-z, 4-all directions 
   EPSILON=  1.0000000 bulk dielectric constant

 Exchange correlation treatment:
   GGA     =    --    GGA type
   LEXCH   =     8    internal setting for exchange type
   LIBXC   =     F    Libxc                    
   VOSKOWN =     0    Vosko Wilk Nusair interpolation
   LHFCALC =     F    Hartree Fock is set to
   LHFONE  =     F    Hartree Fock one center treatment
   AEXX    =    0.0000 exact exchange contribution

 Linear response parameters
   LEPSILON=     F    determine dielectric tensor
   LRPA    =     F    only Hartree local field effects (RPA)
   LNABLA  =     F    use nabla operator in PAW spheres
   LVEL    =     F    velocity operator in full k-point grid
   CSHIFT  =0.1000    complex shift for real part using Kramers Kronig
   OMEGAMAX=  -1.0    maximum frequency
   DEG_THRESHOLD= 0.2000000E-02 threshold for treating states as degnerate
   RTIME   =   -0.100 relaxation time in fs
  (WPLASMAI=    0.000 imaginary part of plasma frequency in eV, 0.658/RTIME)
   DFIELD  = 0.0000000 0.0000000 0.0000000 field for delta impulse in time
 
  Optional k-point grid parameters
   LKPOINTS_OPT  =     F    use optional k-point grid
   KPOINTS_OPT_MODE=     1    mode for optional k-point grid
 
 Orbital magnetization related:
   ORBITALMAG=     F  switch on orbital magnetization
   LCHIMAG   =     F  perturbation theory with respect to B field
   DQ        =  0.001000  dq finite difference perturbation B field
   LLRAUG    =     F  two centre corrections for induced B field
   LBONE     =     F  B-component reconstruction in AE one-centre
   LVGVCALC  =     T  calculate vGv susceptibility
   LVGVAPPL  =     F  apply vGv susceptibility instead of pGv for G=0

 Random number generation:
   RANDOM_GENERATOR = DEFAULT
   PCG_SEED         = not used
 Solvation model:
   LSOL    =     T         switch on solvation model
   EB_K    = 35.688000     relative permittivity of the bulk solvent
   SIGMA_K =  0.600000     width of the dielectric cavity
   NC_K    =  0.002500     cutoff charge density
   TAU     =  0.000000     cavity surface tension
   LAMBDA_D_K    =  3.040000     Debye length in Angstroms
   LRHOB     =     F     write boundcharge  density
   LRHOION     =     F     write ioniccharge density



--------------------------------------------------------------------------------------------------------


 conjugate gradient relaxation of ions
   using selective dynamics as specified on POSCAR
 charge density and potential will be updated during run
 spin polarized calculation
 RMM-DIIS sequential band-by-band and
  variant of blocked Davidson during initial phase
 perform sub-space diagonalisation
    before iterative eigenvector-optimisation
 modified Broyden-mixing scheme, WC =      100.0
 initial mixing is a Kerker type mixing with AMIX =  0.4000 and BMIX =      1.0000
 Hartree-type preconditioning will be used
 using additional bands           23
 real space projection scheme for non local part
 use partial core corrections
 calculate Harris-corrections to forces 
   (improved forces if not selfconsistent)
 use gradient corrections 
 use of overlap-Matrix (Vanderbilt PP)
 Gauss-broadening in eV      SIGMA  =   0.05


--------------------------------------------------------------------------------------------------------


  energy-cutoff  :      500.00
  volume of cell :    64000.00
      direct lattice vectors                 reciprocal lattice vectors
    40.000000000  0.000000000  0.000000000     0.025000000  0.000000000  0.000000000
     0.000000000 40.000000000  0.000000000     0.000000000  0.025000000  0.000000000
     0.000000000  0.000000000 40.000000000     0.000000000  0.000000000  0.025000000

  length of vectors
    40.000000000 40.000000000 40.000000000     0.025000000  0.025000000  0.025000000


 
 old parameters found on file WAVECAR:
  energy-cutoff  :      500.00
  volume of cell :    64000.00
      direct lattice vectors                 reciprocal lattice vectors
    40.000000000  0.000000000  0.000000000     0.025000000  0.000000000  0.000000000
     0.000000000 40.000000000  0.000000000     0.000000000  0.025000000  0.000000000
     0.000000000  0.000000000 40.000000000     0.000000000  0.000000000  0.025000000

  length of vectors

 
 k-points in units of 2pi/SCALE and weight: K-Point Grid                            
   0.00000000  0.00000000  0.00000000       1.000
 
 k-points in reciprocal lattice and weights: K-Point Grid                            
   0.00000000  0.00000000  0.00000000       1.000
 
 position of ions in fractional coordinates (direct lattice) 
   0.49378759  0.45710571  0.50140342
   0.45873333  0.45402886  0.50066860
   0.44059744  0.48343891  0.49976939
   0.45644563  0.51462849  0.49980389
   0.49071655  0.51801380  0.50066260
   0.51017791  0.48826528  0.50138882
   0.54683721  0.48888554  0.50206817
   0.56694138  0.51592526  0.50162413
   0.60429736  0.51451140  0.50239589
   0.40111232  0.52306584  0.49439482
   0.43272446  0.53968764  0.50019718
   0.40639441  0.48768110  0.50009329
   0.61348746  0.48862984  0.50332512
   0.61517173  0.52676049  0.48022062
   0.61430620  0.52802362  0.52424488
   0.55595319  0.54099087  0.50062131
   0.55868037  0.46417329  0.50299512
   0.50221661  0.54270076  0.50092566
   0.39344846  0.52697773  0.46820849
   0.38250957  0.53245029  0.51219427
   0.44656079  0.42966337  0.50084930
   0.50890105  0.43439090  0.50194403
 
 position of ions in cartesian coordinates  (Angst):
  19.75150376 18.28422852 20.05613672
  18.34933306 18.16115438 20.02674393
  17.62389743 19.33755625 19.99077544
  18.25782513 20.58513978 19.99215556
  19.62866198 20.72055189 20.02650395
  20.40711645 19.53061132 20.05555281
  21.87348842 19.55542168 20.08272673
  22.67765538 20.63701058 20.06496511
  24.17189458 20.58045609 20.09583541
  16.04449261 20.92263358 19.77579287
  17.30897834 21.58750571 20.00788727
  16.25577649 19.50724401 20.00373174
  24.53949836 19.54519347 20.13300480
  24.60686912 21.07041951 19.20882490
  24.57224784 21.12094482 20.96979521
  22.23812750 21.63963491 20.02485246
  22.34721485 18.56693179 20.11980474
  20.08866428 21.70803037 20.03702659
  15.73793821 21.07910914 18.72833979
  15.30038284 21.29801160 20.48777063
  17.86243147 17.18653476 20.03397212
  20.35604191 17.37563583 20.07776120
 


--------------------------------------------------------------------------------------------------------


 k-point   1 :   0.0000 0.0000 0.0000  plane waves: 1624525

 maximum and minimum number of plane-waves per node :    162473   162437

 maximum number of plane-waves:   1624525
 maximum index in each direction: 
   IXMAX=   72   IYMAX=   72   IZMAX=   72
   IXMIN=  -72   IYMIN=  -72   IZMIN=  -72


 real space projection operators:
  total allocation   :       2466.38 KBytes
  max/ min on nodes  :        251.82        239.95


 parallel 3D FFT for wavefunctions:
    minimum data exchange during FFTs selected (reduces bandwidth)
 parallel 3D FFT for charge:
    minimum data exchange during FFTs selected (reduces bandwidth)


 total amount of memory used by VASP MPI-rank0  1004787. kBytes
=======================================================================

   base      :      30000. kBytes
   nonlr-proj:       1381. kBytes
   fftplans  :     192295. kBytes
   grid      :     734294. kBytes
   one-center:         18. kBytes
   wavefun   :      46799. kBytes
 
     INWAV:  cpu time      9.4048: real time      9.4273
 Broyden mixing: mesh for mixing (old mesh)
   NGX =145   NGY =145   NGZ =145
  (NGX  =588   NGY  =588   NGZ  =588)
  gives a total of ****** points

 initial charge density was supplied:
 charge density of overlapping atoms calculated
 number of electron      62.0000000 magnetization      22.0000000
 keeping initial charge density in first step


--------------------------------------------------------------------------------------------------------


 Maximum index for non-local projection operator          319
 Maximum index for augmentation-charges          351 (set IRDMAX)


--------------------------------------------------------------------------------------------------------


 First call to EWALD:  gamma=   0.044
 Maximum number of real-space cells 3x 3x 3
 Maximum number of reciprocal cells 3x 3x 3

    FEWALD:  cpu time      0.0017: real time      0.0017


--------------------------------------- Ionic step        1  -------------------------------------------




--------------------------------------- Iteration      1(   1)  ---------------------------------------


    POTLOK:  cpu time    194.0395: real time    194.3804
    SETDIJ:  cpu time      0.3929: real time      0.3937
     EDDAV:  cpu time     82.6018: real time     82.7771
       DOS:  cpu time      0.0102: real time      0.0102
    CHARGE:  cpu time      9.8115: real time      9.8321
    MIXING:  cpu time      0.1804: real time      0.1823
    --------------------------------------------
      LOOP:  cpu time    287.0362: real time    287.5759

 eigenvalue-minimisations  :   276
 total energy-change (2. order) :-0.1476300E+03  (-0.7719560E+01)
 number of electron      61.9999990 magnetization      21.1523891
 augmentation part        2.5158947 magnetization      21.1988167

 Broyden mixing:
  rms(total) = 0.29823E+01    rms(broyden)= 0.29817E+01
  rms(prec ) = 0.30073E+01
  weight for this iteration     100.00

 Free energy of the ion-electron system (eV)
  ---------------------------------------------------
  alpha Z        PSCENC =         0.26742016
  Ewald energy   TEWEN  =      7099.39362886
  -Hartree energ DENC   =     -8828.61283136
  -exchange      EXHF   =         0.00000000
  -V(xc)+E(xc)   XCENC  =       252.86918962
  PAW double counting   =      1756.26401803    -1782.99735573
  entropy T*S    EENTRO =        -0.00000151
  eigenvalues    EBANDS =     -1096.00202006
  atomic energy  EATOM  =      2461.06138469
  Solvation  Ediel_sol  =        -9.87341395
  ---------------------------------------------------
  free energy    TOTEN  =      -147.62998126 eV

  energy without entropy =     -147.62997975  energy(sigma->0) =     -147.62998051


--------------------------------------------------------------------------------------------------------




--------------------------------------- Iteration      1(   2)  ---------------------------------------


    POTLOK:  cpu time    185.3720: real time    185.7091
    SETDIJ:  cpu time      0.3902: real time      0.3910
    EDDIAG:  cpu time     17.3602: real time     17.3992
  RMM-DIIS:  cpu time     94.0304: real time     94.2320
    ORTHCH:  cpu time      0.1929: real time      0.1934
       DOS:  cpu time      0.0007: real time      0.0007
    CHARGE:  cpu time      9.6188: real time      9.6379
    MIXING:  cpu time      0.1898: real time      0.1902
    --------------------------------------------
      LOOP:  cpu time    307.1551: real time    307.7536

 eigenvalue-minimisations  :   216
 total energy-change (2. order) : 0.2261568E+02  (-0.8682110E+01)
 number of electron      61.9999991 magnetization      20.2485389
 augmentation part        2.5137967 magnetization      20.1721458

 Broyden mixing:
  rms(total) = 0.14341E+01    rms(broyden)= 0.14339E+01
  rms(prec ) = 0.14535E+01
  weight for this iteration     100.00

 eigenvalues of (default mixing * dielectric matrix)
  average eigenvalue GAMMA=   0.9503
  0.9503

 Free energy of the ion-electron system (eV)
  ---------------------------------------------------
  alpha Z        PSCENC =         0.26742016
  Ewald energy   TEWEN  =      7099.39362886
  -Hartree energ DENC   =     -8934.93501550
  -exchange      EXHF   =         0.00000000
  -V(xc)+E(xc)   XCENC  =       275.69197274
  PAW double counting   =      2818.49214561    -2846.39605243
  entropy T*S    EENTRO =        -0.00000000
  eigenvalues    EBANDS =      -979.86453980
  atomic energy  EATOM  =      2461.06138469
  Solvation  Ediel_sol  =       -18.72524535
  ---------------------------------------------------
  free energy    TOTEN  =      -125.01430102 eV

  energy without entropy =     -125.01430102  energy(sigma->0) =     -125.01430102


--------------------------------------------------------------------------------------------------------




--------------------------------------- Iteration      1(   3)  ---------------------------------------


    POTLOK:  cpu time    214.5436: real time    214.9375
    SETDIJ:  cpu time      0.3892: real time      0.3899
    EDDIAG:  cpu time     17.1666: real time     17.2053
  RMM-DIIS:  cpu time    101.1256: real time    101.3345
    ORTHCH:  cpu time      0.2005: real time      0.2011
       DOS:  cpu time      0.0006: real time      0.0006
    CHARGE:  cpu time     14.5331: real time     14.5726
    MIXING:  cpu time      0.1633: real time      0.1634
    --------------------------------------------
      LOOP:  cpu time    348.1225: real time    348.8049

 eigenvalue-minimisations  :   231
 total energy-change (2. order) :-0.2349662E+02  (-0.3170017E+01)
 number of electron      61.9999991 magnetization      19.0429579
 augmentation part        2.4783327 magnetization      18.9474530

 Broyden mixing:
  rms(total) = 0.88680E+00    rms(broyden)= 0.88676E+00
  rms(prec ) = 0.89528E+00
  weight for this iteration     100.00

 eigenvalues of (default mixing * dielectric matrix)
  average eigenvalue GAMMA=   1.1398
  0.8001  1.4796

 Free energy of the ion-electron system (eV)
  ---------------------------------------------------
  alpha Z        PSCENC =         0.26742016
  Ewald energy   TEWEN  =      7099.39362886
  -Hartree energ DENC   =     -9015.74709073
  -exchange      EXHF   =         0.00000000
  -V(xc)+E(xc)   XCENC  =       260.68687721
  PAW double counting   =      3767.50376977    -3796.07222056
  entropy T*S    EENTRO =        -0.00000000
  eigenvalues    EBANDS =      -899.97635684
  atomic energy  EATOM  =      2461.06138469
  Solvation  Ediel_sol  =       -25.62833473
  ---------------------------------------------------
  free energy    TOTEN  =      -148.51092217 eV

  energy without entropy =     -148.51092217  energy(sigma->0) =     -148.51092217


--------------------------------------------------------------------------------------------------------




--------------------------------------- Iteration      1(   4)  ---------------------------------------


    POTLOK:  cpu time    239.7579: real time    240.2033
    SETDIJ:  cpu time      0.3966: real time      0.3973
    EDDIAG:  cpu time     17.0983: real time     17.1381
  RMM-DIIS:  cpu time    112.8137: real time    113.0502
    ORTHCH:  cpu time      0.2059: real time      0.2064
       DOS:  cpu time      0.0004: real time      0.0004
    CHARGE:  cpu time     11.1772: real time     11.2012
    MIXING:  cpu time      0.1712: real time      0.1714
    --------------------------------------------
      LOOP:  cpu time    381.6211: real time    382.3683

 eigenvalue-minimisations  :   265
 total energy-change (2. order) :-0.8021355E+01  (-0.1550092E+01)
 number of electron      61.9999991 magnetization      18.0190353
 augmentation part        2.4242418 magnetization      17.9378168

 Broyden mixing:
  rms(total) = 0.56345E+00    rms(broyden)= 0.56339E+00
  rms(prec ) = 0.56707E+00
  weight for this iteration     100.00

 eigenvalues of (default mixing * dielectric matrix)
  average eigenvalue GAMMA=   1.2366
  1.9144  1.0960  0.6995

 Free energy of the ion-electron system (eV)
  ---------------------------------------------------
  alpha Z        PSCENC =         0.26742016
  Ewald energy   TEWEN  =      7099.39362886
  -Hartree energ DENC   =     -9080.26148247
  -exchange      EXHF   =         0.00000000
  -V(xc)+E(xc)   XCENC  =       257.92445720
  PAW double counting   =      4739.57703756    -4768.31820941
  entropy T*S    EENTRO =        -0.00000000
  eigenvalues    EBANDS =      -836.17502699
  atomic energy  EATOM  =      2461.06138469
  Solvation  Ediel_sol  =       -30.00148691
  ---------------------------------------------------
  free energy    TOTEN  =      -156.53227731 eV

  energy without entropy =     -156.53227731  energy(sigma->0) =     -156.53227731


--------------------------------------------------------------------------------------------------------




--------------------------------------- Iteration      1(   5)  ---------------------------------------


    POTLOK:  cpu time    181.5815: real time    181.9011
    SETDIJ:  cpu time      0.3977: real time      0.3985
    EDDIAG:  cpu time     17.2214: real time     17.2570
  RMM-DIIS:  cpu time    133.1032: real time    133.3797
    ORTHCH:  cpu time      0.2286: real time      0.2292
       DOS:  cpu time      0.0004: real time      0.0004
    CHARGE:  cpu time     10.7551: real time     10.7767
    MIXING:  cpu time      0.1770: real time      0.1772
    --------------------------------------------
      LOOP:  cpu time    343.4649: real time    344.1198

 eigenvalue-minimisations  :   328
 total energy-change (2. order) :-0.2419439E+01  (-0.3915661E+00)
 number of electron      61.9999991 magnetization      16.3669026
 augmentation part        2.4062912 magnetization      16.3043217

 Broyden mixing:
  rms(total) = 0.38591E+00    rms(broyden)= 0.38588E+00
  rms(prec ) = 0.38832E+00
  weight for this iteration     100.00

 eigenvalues of (default mixing * dielectric matrix)
  average eigenvalue GAMMA=   1.4055
  2.3443  1.7273  0.8801  0.6703

 Free energy of the ion-electron system (eV)
  ---------------------------------------------------
  alpha Z        PSCENC =         0.26742016
  Ewald energy   TEWEN  =      7099.39362886
  -Hartree energ DENC   =     -9093.07534295
  -exchange      EXHF   =         0.00000000
  -V(xc)+E(xc)   XCENC  =       256.70340658
  PAW double counting   =      5124.02137620    -5152.63237166
  entropy T*S    EENTRO =        -0.00000000
  eigenvalues    EBANDS =      -827.90588851
  atomic energy  EATOM  =      2461.06138469
  Solvation  Ediel_sol  =       -26.78532946
  ---------------------------------------------------
  free energy    TOTEN  =      -158.95171610 eV

  energy without entropy =     -158.95171610  energy(sigma->0) =     -158.95171610


--------------------------------------------------------------------------------------------------------




--------------------------------------- Iteration      1(   6)  ---------------------------------------


    POTLOK:  cpu time    215.5830: real time    215.9554
    SETDIJ:  cpu time      0.3865: real time      0.3872
    EDDIAG:  cpu time     17.2222: real time     17.2605
  RMM-DIIS:  cpu time    131.1195: real time    131.3984
    ORTHCH:  cpu time      0.2199: real time      0.2205
       DOS:  cpu time      0.0007: real time      0.0007
    CHARGE:  cpu time     11.9640: real time     11.9891
    MIXING:  cpu time      0.1873: real time      0.1875
    --------------------------------------------
      LOOP:  cpu time    376.6831: real time    377.3993

 eigenvalue-minimisations  :   323
 total energy-change (2. order) :-0.2059115E+01  (-0.2087020E+00)
 number of electron      61.9999991 magnetization      15.5845208
 augmentation part        2.4081040 magnetization      15.5339720

 Broyden mixing:
  rms(total) = 0.22456E+00    rms(broyden)= 0.22455E+00
  rms(prec ) = 0.22549E+00
  weight for this iteration     100.00

 eigenvalues of (default mixing * dielectric matrix)
  average eigenvalue GAMMA=   1.4124
  2.8314  1.7097  1.1045  0.7632  0.6530

 Free energy of the ion-electron system (eV)
  ---------------------------------------------------
  alpha Z        PSCENC =         0.26742016
  Ewald energy   TEWEN  =      7099.39362886
  -Hartree energ DENC   =     -9098.86767940
  -exchange      EXHF   =         0.00000000
  -V(xc)+E(xc)   XCENC  =       255.20024181
  PAW double counting   =      5462.42565123    -5490.68759328
  entropy T*S    EENTRO =        -0.00000000
  eigenvalues    EBANDS =      -832.46038709
  atomic energy  EATOM  =      2461.06138469
  Solvation  Ediel_sol  =       -17.34349761
  ---------------------------------------------------
  free energy    TOTEN  =      -161.01083064 eV

  energy without entropy =     -161.01083064  energy(sigma->0) =     -161.01083064


--------------------------------------------------------------------------------------------------------




--------------------------------------- Iteration      1(   7)  ---------------------------------------


    POTLOK:  cpu time    211.3175: real time    211.6951
    SETDIJ:  cpu time      0.3962: real time      0.3969
    EDDIAG:  cpu time     17.2511: real time     17.2905
  RMM-DIIS:  cpu time    133.0944: real time    133.3746
    ORTHCH:  cpu time      0.2162: real time      0.2167
       DOS:  cpu time      0.0020: real time      0.0020
    CHARGE:  cpu time     11.8628: real time     11.9001
    MIXING:  cpu time      0.2064: real time      0.2068
    --------------------------------------------
      LOOP:  cpu time    374.3466: real time    375.0827

 eigenvalue-minimisations  :   340
 total energy-change (2. order) : 0.3967120E+00  (-0.6134663E-01)
 number of electron      61.9999991 magnetization      14.5164832
 augmentation part        2.4052148 magnetization      14.4720831

 Broyden mixing:
  rms(total) = 0.18751E+00    rms(broyden)= 0.18750E+00
  rms(prec ) = 0.18830E+00
  weight for this iteration     100.00

 eigenvalues of (default mixing * dielectric matrix)
  average eigenvalue GAMMA=   1.3488
  2.9221  1.7761  1.1110  0.9448  0.6979  0.6409

 Free energy of the ion-electron system (eV)
  ---------------------------------------------------
  alpha Z        PSCENC =         0.26742016
  Ewald energy   TEWEN  =      7099.39362886
  -Hartree energ DENC   =     -9105.63122481
  -exchange      EXHF   =         0.00000000
  -V(xc)+E(xc)   XCENC  =       255.96090506
  PAW double counting   =      5515.69362888    -5543.95771543
  entropy T*S    EENTRO =        -0.00000000
  eigenvalues    EBANDS =      -830.07691600
  atomic energy  EATOM  =      2461.06138469
  Solvation  Ediel_sol  =       -13.32523009
  ---------------------------------------------------
  free energy    TOTEN  =      -160.61411868 eV

  energy without entropy =     -160.61411868  energy(sigma->0) =     -160.61411868


--------------------------------------------------------------------------------------------------------




--------------------------------------- Iteration      1(   8)  ---------------------------------------


    POTLOK:  cpu time    201.9318: real time    202.2981
    SETDIJ:  cpu time      0.4214: real time      0.4222
    EDDIAG:  cpu time     17.0907: real time     17.1264
  RMM-DIIS:  cpu time    134.5321: real time    134.8102
    ORTHCH:  cpu time      0.2115: real time      0.2122
       DOS:  cpu time      0.0016: real time      0.0016
    CHARGE:  cpu time     11.2531: real time     11.2935
    MIXING:  cpu time      0.1980: real time      0.1982
    --------------------------------------------
      LOOP:  cpu time    365.6403: real time    366.3625

 eigenvalue-minimisations  :   339
 total energy-change (2. order) : 0.1580881E+01  (-0.4872880E-01)
 number of electron      61.9999991 magnetization      11.3774341
 augmentation part        2.4014149 magnetization      11.3393952

 Broyden mixing:
  rms(total) = 0.14663E+00    rms(broyden)= 0.14662E+00
  rms(prec ) = 0.14712E+00
  weight for this iteration     100.00

 eigenvalues of (default mixing * dielectric matrix)
  average eigenvalue GAMMA=   1.7629
  4.6636  2.6447  1.6554  1.2152  0.8223  0.7125  0.6264

 Free energy of the ion-electron system (eV)
  ---------------------------------------------------
  alpha Z        PSCENC =         0.26742016
  Ewald energy   TEWEN  =      7099.39362886
  -Hartree energ DENC   =     -9110.50939547
  -exchange      EXHF   =         0.00000000
  -V(xc)+E(xc)   XCENC  =       257.53125815
  PAW double counting   =      5472.66960916    -5500.94994666
  entropy T*S    EENTRO =        -0.00000000
  eigenvalues    EBANDS =      -830.48982910
  atomic energy  EATOM  =      2461.06138469
  Solvation  Ediel_sol  =        -8.00736793
  ---------------------------------------------------
  free energy    TOTEN  =      -159.03323815 eV

  energy without entropy =     -159.03323815  energy(sigma->0) =     -159.03323815


--------------------------------------------------------------------------------------------------------




--------------------------------------- Iteration      1(   9)  ---------------------------------------


    POTLOK:  cpu time    223.3110: real time    223.7205
    SETDIJ:  cpu time      0.4317: real time      0.4325
    EDDIAG:  cpu time     17.4288: real time     17.4673
  RMM-DIIS:  cpu time    135.7443: real time    136.0208
    ORTHCH:  cpu time      0.2376: real time      0.2382
       DOS:  cpu time      0.0034: real time      0.0034
    CHARGE:  cpu time     11.1610: real time     11.1852
    MIXING:  cpu time      0.2106: real time      0.2108
    --------------------------------------------
      LOOP:  cpu time    388.5284: real time    389.2787

 eigenvalue-minimisations  :   339
 total energy-change (2. order) : 0.2546714E+01  (-0.6462049E-01)
 number of electron      61.9999991 magnetization      10.8458875
 augmentation part        2.3978291 magnetization      10.8154588

 Broyden mixing:
  rms(total) = 0.81139E-01    rms(broyden)= 0.81134E-01
  rms(prec ) = 0.81570E-01
  weight for this iteration     100.00

 eigenvalues of (default mixing * dielectric matrix)
  average eigenvalue GAMMA=   1.7650
  5.7364  2.6257  1.7434  1.0574  0.8761  0.7258  0.7258  0.6297

 Free energy of the ion-electron system (eV)
  ---------------------------------------------------
  alpha Z        PSCENC =         0.26742016
  Ewald energy   TEWEN  =      7099.39362886
  -Hartree energ DENC   =     -9121.50607469
  -exchange      EXHF   =         0.00000000
  -V(xc)+E(xc)   XCENC  =       260.04578566
  PAW double counting   =      5398.76057646    -5427.02969085
  entropy T*S    EENTRO =        -0.00000000
  eigenvalues    EBANDS =      -833.33493961
  atomic energy  EATOM  =      2461.06138469
  Solvation  Ediel_sol  =         5.85538546
  ---------------------------------------------------
  free energy    TOTEN  =      -156.48652386 eV

  energy without entropy =     -156.48652386  energy(sigma->0) =     -156.48652386


--------------------------------------------------------------------------------------------------------




--------------------------------------- Iteration      1(  10)  ---------------------------------------


    POTLOK:  cpu time    202.0858: real time    202.4491
    SETDIJ:  cpu time      0.5024: real time      0.5035
    EDDIAG:  cpu time     17.2336: real time     17.2700
  RMM-DIIS:  cpu time    135.6909: real time    135.9724
    ORTHCH:  cpu time      0.2192: real time      0.2198
       DOS:  cpu time      0.0005: real time      0.0005
    CHARGE:  cpu time     10.9213: real time     10.9435
    MIXING:  cpu time      0.2233: real time      0.2235
    --------------------------------------------
      LOOP:  cpu time    366.8769: real time    367.5822

 eigenvalue-minimisations  :   340
 total energy-change (2. order) : 0.3590370E+00  (-0.1660118E-01)
 number of electron      61.9999991 magnetization       9.6714528
 augmentation part        2.3963407 magnetization       9.6451650

 Broyden mixing:
  rms(total) = 0.65859E-01    rms(broyden)= 0.65857E-01
  rms(prec ) = 0.66172E-01
  weight for this iteration     100.00

 eigenvalues of (default mixing * dielectric matrix)
  average eigenvalue GAMMA=   1.7881
  6.5238  2.5035  1.6040  1.6040  1.0024  0.7878  0.6271  0.7203  0.7203

 Free energy of the ion-electron system (eV)
  ---------------------------------------------------
  alpha Z        PSCENC =         0.26742016
  Ewald energy   TEWEN  =      7099.39362886
  -Hartree energ DENC   =     -9122.86373379
  -exchange      EXHF   =         0.00000000
  -V(xc)+E(xc)   XCENC  =       260.45527931
  PAW double counting   =      5416.49438084    -5444.75911993
  entropy T*S    EENTRO =        -0.00000000
  eigenvalues    EBANDS =      -832.86519030
  atomic energy  EATOM  =      2461.06138469
  Solvation  Ediel_sol  =         6.68846331
  ---------------------------------------------------
  free energy    TOTEN  =      -156.12748685 eV

  energy without entropy =     -156.12748685  energy(sigma->0) =     -156.12748685


--------------------------------------------------------------------------------------------------------




--------------------------------------- Iteration      1(  11)  ---------------------------------------


    POTLOK:  cpu time    204.3014: real time    204.6696
    SETDIJ:  cpu time      0.4522: real time      0.4532
    EDDIAG:  cpu time     17.2707: real time     17.3086
  RMM-DIIS:  cpu time    136.0994: real time    136.3798
    ORTHCH:  cpu time      0.2360: real time      0.2366
       DOS:  cpu time      0.0006: real time      0.0006
    CHARGE:  cpu time     10.5390: real time     10.5599
    MIXING:  cpu time      0.2296: real time      0.2299
    --------------------------------------------
      LOOP:  cpu time    369.1291: real time    369.8383

 eigenvalue-minimisations  :   340
 total energy-change (2. order) : 0.1229150E+01  (-0.7266772E-02)
 number of electron      61.9999991 magnetization       8.3298705
 augmentation part        2.3972051 magnetization       8.3069532

 Broyden mixing:
  rms(total) = 0.50208E-01    rms(broyden)= 0.50205E-01
  rms(prec ) = 0.50331E-01
  weight for this iteration     100.00

 eigenvalues of (default mixing * dielectric matrix)
  average eigenvalue GAMMA=   1.9631
  7.8535  2.5829  2.5829  1.7563  1.0255  1.0255  0.7329  0.7329  0.6290  0.7093

 Free energy of the ion-electron system (eV)
  ---------------------------------------------------
  alpha Z        PSCENC =         0.26742016
  Ewald energy   TEWEN  =      7099.39362886
  -Hartree energ DENC   =     -9122.95107048
  -exchange      EXHF   =         0.00000000
  -V(xc)+E(xc)   XCENC  =       261.62522281
  PAW double counting   =      5422.15635357    -5450.40266170
  entropy T*S    EENTRO =        -0.00000000
  eigenvalues    EBANDS =      -834.15985589
  atomic energy  EATOM  =      2461.06138469
  Solvation  Ediel_sol  =         8.11124106
  ---------------------------------------------------
  free energy    TOTEN  =      -154.89833691 eV

  energy without entropy =     -154.89833691  energy(sigma->0) =     -154.89833691


--------------------------------------------------------------------------------------------------------




--------------------------------------- Iteration      1(  12)  ---------------------------------------


    POTLOK:  cpu time    205.8476: real time    206.2130
    SETDIJ:  cpu time      0.4006: real time      0.4015
    EDDIAG:  cpu time     17.2872: real time     17.3237
  RMM-DIIS:  cpu time    133.4924: real time    133.7766
    ORTHCH:  cpu time      0.2843: real time      0.2849
       DOS:  cpu time      0.0020: real time      0.0020
    CHARGE:  cpu time     11.4450: real time     11.4680
    MIXING:  cpu time      0.2432: real time      0.2435
    --------------------------------------------
      LOOP:  cpu time    369.0022: real time    369.7131

 eigenvalue-minimisations  :   340
 total energy-change (2. order) : 0.1211139E+01  (-0.8066577E-02)
 number of electron      61.9999991 magnetization       7.6989729
 augmentation part        2.3972665 magnetization       7.6794040

 Broyden mixing:
  rms(total) = 0.39215E-01    rms(broyden)= 0.39212E-01
  rms(prec ) = 0.39367E-01
  weight for this iteration     100.00

 eigenvalues of (default mixing * dielectric matrix)
  average eigenvalue GAMMA=   1.9217
  8.2885  3.0199  2.3124  1.6660  1.0981  1.0981  0.8969  0.7203  0.7203  0.6864
  0.6314

 Free energy of the ion-electron system (eV)
  ---------------------------------------------------
  alpha Z        PSCENC =         0.26742016
  Ewald energy   TEWEN  =      7099.39362886
  -Hartree energ DENC   =     -9124.04662318
  -exchange      EXHF   =         0.00000000
  -V(xc)+E(xc)   XCENC  =       262.83542487
  PAW double counting   =      5403.57990667    -5431.84667215
  entropy T*S    EENTRO =        -0.00000000
  eigenvalues    EBANDS =      -834.25885688
  atomic energy  EATOM  =      2461.06138469
  Solvation  Ediel_sol  =         9.32718952
  ---------------------------------------------------
  free energy    TOTEN  =      -153.68719743 eV

  energy without entropy =     -153.68719743  energy(sigma->0) =     -153.68719743


--------------------------------------------------------------------------------------------------------




--------------------------------------- Iteration      1(  13)  ---------------------------------------


    POTLOK:  cpu time    186.3200: real time    186.6670
    SETDIJ:  cpu time      0.3928: real time      0.3936
    EDDIAG:  cpu time     17.0481: real time     17.0864
  RMM-DIIS:  cpu time    135.0883: real time    135.3731
    ORTHCH:  cpu time      0.2257: real time      0.2264
       DOS:  cpu time      0.0004: real time      0.0004
    CHARGE:  cpu time     10.3893: real time     10.4252
    MIXING:  cpu time      0.2623: real time      0.2628
    --------------------------------------------
      LOOP:  cpu time    349.7269: real time    350.4348

 eigenvalue-minimisations  :   340
 total energy-change (2. order) : 0.4905687E+00  (-0.1162600E-02)
 number of electron      61.9999991 magnetization       6.1446814
 augmentation part        2.3969878 magnetization       6.1273386

 Broyden mixing:
  rms(total) = 0.33840E-01    rms(broyden)= 0.33838E-01
  rms(prec ) = 0.33901E-01
  weight for this iteration     100.00

 eigenvalues of (default mixing * dielectric matrix)
  average eigenvalue GAMMA=   2.0221
  8.8401  3.4413  2.2836  2.2836  1.7769  1.1772  0.9700  0.7655  0.7201  0.7201
  0.6294  0.6572

 Free energy of the ion-electron system (eV)
  ---------------------------------------------------
  alpha Z        PSCENC =         0.26742016
  Ewald energy   TEWEN  =      7099.39362886
  -Hartree energ DENC   =     -9124.25110314
  -exchange      EXHF   =         0.00000000
  -V(xc)+E(xc)   XCENC  =       263.33875657
  PAW double counting   =      5402.40100213    -5430.67522319
  entropy T*S    EENTRO =        -0.00000000
  eigenvalues    EBANDS =      -834.15209397
  atomic energy  EATOM  =      2461.06138469
  Solvation  Ediel_sol  =         9.41959916
  ---------------------------------------------------
  free energy    TOTEN  =      -153.19662875 eV

  energy without entropy =     -153.19662875  energy(sigma->0) =     -153.19662875


--------------------------------------------------------------------------------------------------------




--------------------------------------- Iteration      1(  14)  ---------------------------------------


    POTLOK:  cpu time    168.7598: real time    169.0658
    SETDIJ:  cpu time      0.3916: real time      0.3923
    EDDIAG:  cpu time     17.4027: real time     17.4400
  RMM-DIIS:  cpu time    136.5230: real time    136.8089
    ORTHCH:  cpu time      0.2241: real time      0.2248
       DOS:  cpu time      0.0014: real time      0.0014
    CHARGE:  cpu time      9.8646: real time      9.8843
    MIXING:  cpu time      0.2682: real time      0.2683
    --------------------------------------------
      LOOP:  cpu time    333.4354: real time    334.0858

 eigenvalue-minimisations  :   340
 total energy-change (2. order) : 0.1171673E+01  ( 0.6572515E-02)
 number of electron      61.9999991 magnetization       5.4408603
 augmentation part        2.3956770 magnetization       5.4251988

 Broyden mixing:
  rms(total) = 0.27545E-01    rms(broyden)= 0.27543E-01
  rms(prec ) = 0.27618E-01
  weight for this iteration     100.00

 eigenvalues of (default mixing * dielectric matrix)
  average eigenvalue GAMMA=   2.0947
  9.6457  4.7174  2.4740  2.1142  1.6048  1.1953  1.1953  0.9040  0.6896  0.6896
  0.7334  0.6336  0.6336

 Free energy of the ion-electron system (eV)
  ---------------------------------------------------
  alpha Z        PSCENC =         0.26742016
  Ewald energy   TEWEN  =      7099.39362886
  -Hartree energ DENC   =     -9123.78243440
  -exchange      EXHF   =         0.00000000
  -V(xc)+E(xc)   XCENC  =       264.49183359
  PAW double counting   =      5410.74173965    -5439.01783401
  entropy T*S    EENTRO =        -0.00000000
  eigenvalues    EBANDS =      -834.44539823
  atomic energy  EATOM  =      2461.06138469
  Solvation  Ediel_sol  =         9.26470365
  ---------------------------------------------------
  free energy    TOTEN  =      -152.02495605 eV

  energy without entropy =     -152.02495605  energy(sigma->0) =     -152.02495605


--------------------------------------------------------------------------------------------------------




--------------------------------------- Iteration      1(  15)  ---------------------------------------


    POTLOK:  cpu time    184.7503: real time    185.0769
    SETDIJ:  cpu time      0.3889: real time      0.3896
    EDDIAG:  cpu time     17.2174: real time     17.2549
  RMM-DIIS:  cpu time    136.1623: real time    136.4438
    ORTHCH:  cpu time      0.2189: real time      0.2195
       DOS:  cpu time      0.0004: real time      0.0004
    CHARGE:  cpu time     12.7852: real time     12.8130
    MIXING:  cpu time      0.2796: real time      0.2799
    --------------------------------------------
      LOOP:  cpu time    351.8030: real time    352.4781

 eigenvalue-minimisations  :   340
 total energy-change (2. order) : 0.3894753E+00  (-0.1304339E-02)
 number of electron      61.9999991 magnetization       4.5224946
 augmentation part        2.3947040 magnetization       4.5083054

 Broyden mixing:
  rms(total) = 0.23819E-01    rms(broyden)= 0.23818E-01
  rms(prec ) = 0.23870E-01
  weight for this iteration     100.00

 eigenvalues of (default mixing * dielectric matrix)
  average eigenvalue GAMMA=   2.0846
 10.0492  5.1321  2.5006  2.2812  1.4246  1.4246  1.2527  0.8838  0.8838  0.7495
  0.6767  0.6465  0.6465  0.6321

 Free energy of the ion-electron system (eV)
  ---------------------------------------------------
  alpha Z        PSCENC =         0.26742016
  Ewald energy   TEWEN  =      7099.39362886
  -Hartree energ DENC   =     -9123.08701859
  -exchange      EXHF   =         0.00000000
  -V(xc)+E(xc)   XCENC  =       264.84518466
  PAW double counting   =      5412.41291090    -5440.68348267
  entropy T*S    EENTRO =        -0.00000000
  eigenvalues    EBANDS =      -835.00211121
  atomic energy  EATOM  =      2461.06138469
  Solvation  Ediel_sol  =         9.15660249
  ---------------------------------------------------
  free energy    TOTEN  =      -151.63548071 eV

  energy without entropy =     -151.63548071  energy(sigma->0) =     -151.63548071


--------------------------------------------------------------------------------------------------------




--------------------------------------- Iteration      1(  16)  ---------------------------------------


    POTLOK:  cpu time    190.6753: real time    191.0212
    SETDIJ:  cpu time      0.3999: real time      0.4006
    EDDIAG:  cpu time     17.2733: real time     17.3114
  RMM-DIIS:  cpu time    136.3897: real time    136.6731
    ORTHCH:  cpu time      0.2284: real time      0.2290
       DOS:  cpu time      0.0007: real time      0.0007
    CHARGE:  cpu time     11.7975: real time     11.8256
    MIXING:  cpu time      0.2965: real time      0.2968
    --------------------------------------------
      LOOP:  cpu time    357.0614: real time    357.7585

 eigenvalue-minimisations  :   340
 total energy-change (2. order) : 0.5580329E+00  (-0.1875886E-02)
 number of electron      61.9999991 magnetization       2.9075593
 augmentation part        2.3949328 magnetization       2.8949022

 Broyden mixing:
  rms(total) = 0.19924E-01    rms(broyden)= 0.19923E-01
  rms(prec ) = 0.19945E-01
  weight for this iteration     100.00

 eigenvalues of (default mixing * dielectric matrix)
  average eigenvalue GAMMA=   2.2258
 10.8662  6.0849  3.0380  2.5266  1.6789  1.6789  1.2302  1.2302  0.9151  0.6875
  0.6875  0.7536  0.7536  0.6276  0.6276

 Free energy of the ion-electron system (eV)
  ---------------------------------------------------
  alpha Z        PSCENC =         0.26742016
  Ewald energy   TEWEN  =      7099.39362886
  -Hartree energ DENC   =     -9121.70114766
  -exchange      EXHF   =         0.00000000
  -V(xc)+E(xc)   XCENC  =       265.34905084
  PAW double counting   =      5412.95132234    -5441.20671916
  entropy T*S    EENTRO =        -0.00000000
  eigenvalues    EBANDS =      -836.21728026
  atomic energy  EATOM  =      2461.06138469
  Solvation  Ediel_sol  =         9.02489241
  ---------------------------------------------------
  free energy    TOTEN  =      -151.07744779 eV

  energy without entropy =     -151.07744779  energy(sigma->0) =     -151.07744779


--------------------------------------------------------------------------------------------------------




--------------------------------------- Iteration      1(  17)  ---------------------------------------


    POTLOK:  cpu time    186.4431: real time    186.7785
    SETDIJ:  cpu time      0.3914: real time      0.3922
    EDDIAG:  cpu time     17.2738: real time     17.3110
  RMM-DIIS:  cpu time    135.2968: real time    135.5766
    ORTHCH:  cpu time      0.2318: real time      0.2324
       DOS:  cpu time      0.0014: real time      0.0014
    CHARGE:  cpu time     12.0495: real time     12.0738
    MIXING:  cpu time      0.3244: real time      0.3249
    --------------------------------------------
      LOOP:  cpu time    352.0123: real time    352.6908

 eigenvalue-minimisations  :   340
 total energy-change (2. order) : 0.9285005E+00  (-0.7257637E-04)
 number of electron      61.9999991 magnetization       2.1412537
 augmentation part        2.3947319 magnetization       2.1298110

 Broyden mixing:
  rms(total) = 0.16755E-01    rms(broyden)= 0.16754E-01
  rms(prec ) = 0.16829E-01
  weight for this iteration     100.00

 eigenvalues of (default mixing * dielectric matrix)
  average eigenvalue GAMMA=   2.2412
 11.4336  6.6636  3.3006  2.5196  1.9391  1.3891  1.3891  1.3072  0.9134  0.9134
  0.6719  0.6719  0.7459  0.7459  0.6277  0.6277

 Free energy of the ion-electron system (eV)
  ---------------------------------------------------
  alpha Z        PSCENC =         0.26742016
  Ewald energy   TEWEN  =      7099.39362886
  -Hartree energ DENC   =     -9120.26246204
  -exchange      EXHF   =         0.00000000
  -V(xc)+E(xc)   XCENC  =       266.23639365
  PAW double counting   =      5416.20387951    -5444.44946890
  entropy T*S    EENTRO =        -0.00000000
  eigenvalues    EBANDS =      -837.25058659
  atomic energy  EATOM  =      2461.06138469
  Solvation  Ediel_sol  =         8.65086337
  ---------------------------------------------------
  free energy    TOTEN  =      -150.14894729 eV

  energy without entropy =     -150.14894729  energy(sigma->0) =     -150.14894729


--------------------------------------------------------------------------------------------------------




--------------------------------------- Iteration      1(  18)  ---------------------------------------


    POTLOK:  cpu time    177.3978: real time    177.7236
    SETDIJ:  cpu time      0.3884: real time      0.3891
    EDDIAG:  cpu time     16.8263: real time     16.8649
  RMM-DIIS:  cpu time    134.1733: real time    134.4527
    ORTHCH:  cpu time      0.2162: real time      0.2168
       DOS:  cpu time      0.0011: real time      0.0011
    CHARGE:  cpu time     10.4281: real time     10.4497
    MIXING:  cpu time      0.3276: real time      0.3281
    --------------------------------------------
      LOOP:  cpu time    339.7588: real time    340.4259

 eigenvalue-minimisations  :   340
 total energy-change (2. order) : 0.3838672E+00  ( 0.5541595E-03)
 number of electron      61.9999991 magnetization       0.8390282
 augmentation part        2.3944212 magnetization       0.8282137

 Broyden mixing:
  rms(total) = 0.11289E-01    rms(broyden)= 0.11288E-01
  rms(prec ) = 0.11321E-01
  weight for this iteration     100.00

 eigenvalues of (default mixing * dielectric matrix)
  average eigenvalue GAMMA=   2.4658
 13.3807  7.9473  4.2203  2.4842  2.4842  1.6191  1.6191  1.1619  1.1619  0.8968
  0.8968  0.6804  0.6804  0.7423  0.6877  0.6279  0.6279

 Free energy of the ion-electron system (eV)
  ---------------------------------------------------
  alpha Z        PSCENC =         0.26742016
  Ewald energy   TEWEN  =      7099.39362886
  -Hartree energ DENC   =     -9120.44163599
  -exchange      EXHF   =         0.00000000
  -V(xc)+E(xc)   XCENC  =       266.64118015
  PAW double counting   =      5413.42972245    -5441.68631178
  entropy T*S    EENTRO =        -0.00000000
  eigenvalues    EBANDS =      -836.86403581
  atomic energy  EATOM  =      2461.06138469
  Solvation  Ediel_sol  =         8.43356719
  ---------------------------------------------------
  free energy    TOTEN  =      -149.76508009 eV

  energy without entropy =     -149.76508009  energy(sigma->0) =     -149.76508009


--------------------------------------------------------------------------------------------------------




--------------------------------------- Iteration      1(  19)  ---------------------------------------


    POTLOK:  cpu time    189.9205: real time    190.2555
    SETDIJ:  cpu time      0.3916: real time      0.3923
    EDDIAG:  cpu time     17.2021: real time     17.2382
  RMM-DIIS:  cpu time    136.3865: real time    136.6662
    ORTHCH:  cpu time      0.2281: real time      0.2287
       DOS:  cpu time      0.0004: real time      0.0004
    CHARGE:  cpu time     13.1983: real time     13.2261
    MIXING:  cpu time      0.3451: real time      0.3455
    --------------------------------------------
      LOOP:  cpu time    357.6726: real time    358.3528

 eigenvalue-minimisations  :   340
 total energy-change (2. order) : 0.5754665E+00  ( 0.1776348E-02)
 number of electron      61.9999991 magnetization       0.3655933
 augmentation part        2.3934316 magnetization       0.3554715

 Broyden mixing:
  rms(total) = 0.77208E-02    rms(broyden)= 0.77196E-02
  rms(prec ) = 0.77948E-02
  weight for this iteration     100.00

 eigenvalues of (default mixing * dielectric matrix)
  average eigenvalue GAMMA=   2.7804
 18.4888  9.0563  4.9913  2.5998  2.4447  1.4503  1.4503  1.4407  1.4407  0.9295
  0.9295  0.7705  0.7705  0.6769  0.6769  0.6822  0.6241  0.6241

 Free energy of the ion-electron system (eV)
  ---------------------------------------------------
  alpha Z        PSCENC =         0.26742016
  Ewald energy   TEWEN  =      7099.39362886
  -Hartree energ DENC   =     -9120.48110061
  -exchange      EXHF   =         0.00000000
  -V(xc)+E(xc)   XCENC  =       267.23829922
  PAW double counting   =      5411.68290996    -5439.94807922
  entropy T*S    EENTRO =        -0.00000000
  eigenvalues    EBANDS =      -836.49768747
  atomic energy  EATOM  =      2461.06138469
  Solvation  Ediel_sol  =         8.09361080
  ---------------------------------------------------
  free energy    TOTEN  =      -149.18961360 eV

  energy without entropy =     -149.18961360  energy(sigma->0) =     -149.18961360


--------------------------------------------------------------------------------------------------------




--------------------------------------- Iteration      1(  20)  ---------------------------------------


    POTLOK:  cpu time    165.1027: real time    165.3933
    SETDIJ:  cpu time      0.3928: real time      0.3934
    EDDIAG:  cpu time     17.2703: real time     17.3085
  RMM-DIIS:  cpu time    136.5540: real time    136.8361
    ORTHCH:  cpu time      0.2227: real time      0.2233
       DOS:  cpu time      0.0023: real time      0.0023
    CHARGE:  cpu time     12.3201: real time     12.3452
    MIXING:  cpu time      0.3653: real time      0.3657
    --------------------------------------------
      LOOP:  cpu time    332.2302: real time    332.8678

 eigenvalue-minimisations  :   340
 total energy-change (2. order) : 0.1608776E+00  (-0.9206727E-03)
 number of electron      61.9999991 magnetization       0.1749454
 augmentation part        2.3933001 magnetization       0.1655982

 Broyden mixing:
  rms(total) = 0.52875E-02    rms(broyden)= 0.52864E-02
  rms(prec ) = 0.53260E-02
  weight for this iteration     100.00

 eigenvalues of (default mixing * dielectric matrix)
  average eigenvalue GAMMA=   2.8660
 20.9363  9.2806  5.1561  2.5155  2.3433  2.3433  1.4754  1.4754  1.1994  1.0861
  1.0382  0.8865  0.6737  0.6737  0.7385  0.6915  0.6915  0.6243  0.6243

 Free energy of the ion-electron system (eV)
  ---------------------------------------------------
  alpha Z        PSCENC =         0.26742016
  Ewald energy   TEWEN  =      7099.39362886
  -Hartree energ DENC   =     -9120.07708188
  -exchange      EXHF   =         0.00000000
  -V(xc)+E(xc)   XCENC  =       267.38351316
  PAW double counting   =      5410.05860570    -5438.31841728
  entropy T*S    EENTRO =        -0.00000000
  eigenvalues    EBANDS =      -836.82544292
  atomic energy  EATOM  =      2461.06138469
  Solvation  Ediel_sol  =         8.02765349
  ---------------------------------------------------
  free energy    TOTEN  =      -149.02873603 eV

  energy without entropy =     -149.02873603  energy(sigma->0) =     -149.02873603


--------------------------------------------------------------------------------------------------------




[...]




--------------------------------------- Iteration     22(   2)  ---------------------------------------


    POTLOK:  cpu time    115.1565: real time    115.3683
    SETDIJ:  cpu time      0.3958: real time      0.3966
    EDDIAG:  cpu time     16.9510: real time     16.9886
  RMM-DIIS:  cpu time     93.8493: real time     94.0454
    ORTHCH:  cpu time      0.2000: real time      0.2005
       DOS:  cpu time      0.0019: real time      0.0019
    --------------------------------------------
      LOOP:  cpu time    226.5544: real time    227.0012

 eigenvalue-minimisations  :   214
 total energy-change (2. order) :-0.5116281E-05  (-0.6653900E-05)
 number of electron      61.9999991 magnetization       0.0000001
 augmentation part        2.4098057 magnetization      -0.0000001

 Free energy of the ion-electron system (eV)
  ---------------------------------------------------
  alpha Z        PSCENC =         0.26742016
  Ewald energy   TEWEN  =      7139.62738720
  -Hartree energ DENC   =     -9158.20069765
  -exchange      EXHF   =         0.00000000
  -V(xc)+E(xc)   XCENC  =       268.24890152
  PAW double counting   =      5509.01714896    -5537.32467334
  entropy T*S    EENTRO =        -0.00000000
  eigenvalues    EBANDS =      -839.25928930
  atomic energy  EATOM  =      2461.06138469
  Solvation  Ediel_sol  =         7.73538890
  ---------------------------------------------------
  free energy    TOTEN  =      -148.82702886 eV

  energy without entropy =     -148.82702886  energy(sigma->0) =     -148.82702886


--------------------------------------------------------------------------------------------------------




 average (electrostatic) potential at core
  the test charge radii are     0.6991  0.7215  0.5201
  (the norm of the test charge is              1.0000)
       1 -60.8524       2 -61.0496       3 -62.4499       4 -62.4759       5 -61.0016
       6 -61.1265       7 -60.7043       8 -60.7382       9 -60.4121      10 -63.3366
      11 -85.3499      12 -85.3675      13 -43.9090      14 -43.9383      15 -43.9401
      16 -44.1766      17 -44.1308      18 -44.5895      19 -44.6180      20 -44.7952
      21 -44.5434      22 -44.2962
 
 
 
 E-fermi :  -4.7105     XC(G=0):  -0.0370     alpha+bet : -0.0223

 Fermi energy:        -4.7105017544

 spin component 1

 k-point     1 :       0.0000    0.0000    0.0000
  band No.  band energies     occupation 
      1     -29.7155      1.00000
      2     -27.3296      1.00000
      3     -22.6876      1.00000
      4     -20.9432      1.00000
      5     -19.7973      1.00000
      6     -19.6669      1.00000
      7     -18.0789      1.00000
      8     -17.1737      1.00000
      9     -16.2161      1.00000
     10     -15.8292      1.00000
     11     -14.2966      1.00000
     12     -13.3746      1.00000
     13     -13.3298      1.00000
     14     -13.1021      1.00000
     15     -12.5437      1.00000
     16     -11.3280      1.00000
     17     -11.2846      1.00000
     18     -10.9194      1.00000
     19     -10.3676      1.00000
     20     -10.1741      1.00000
     21     -10.0392      1.00000
     22      -9.9010      1.00000
     23      -9.7488      1.00000
     24      -9.2031      1.00000
     25      -9.0805      1.00000
     26      -8.6272      1.00000
     27      -8.4977      1.00000
     28      -8.4603      1.00000
     29      -6.8861      1.00000
     30      -6.0346      1.00000
     31      -4.9926      1.00000
     32      -1.5829      0.00000
     33      -0.8506      0.00000
     34      -0.0461      0.00000
     35       0.0207      0.00000
     36       0.0820      0.00000
     37       0.0836      0.00000
     38       0.0848      0.00000
     39       0.0882      0.00000
     40       0.0887      0.00000
     41       0.1329      0.00000
     42       0.1628      0.00000
     43       0.1671      0.00000
     44       0.1702      0.00000
     45       0.1803      0.00000
     46       0.1812      0.00000
     47       0.1814      0.00000
     48       0.1818      0.00000
     49       0.1826      0.00000
     50       0.1826      0.00000
     51       0.1828      0.00000
     52       0.1830      0.00000
     53       0.2519      0.00000
     54       0.2620      0.00000
 Fermi energy:        -4.7105017544

 spin component 2

 k-point     1 :       0.0000    0.0000    0.0000
  band No.  band energies     occupation 
      1     -29.7155      1.00000
      2     -27.3296      1.00000
      3     -22.6876      1.00000
      4     -20.9432      1.00000
      5     -19.7973      1.00000
      6     -19.6669      1.00000
      7     -18.0789      1.00000
      8     -17.1737      1.00000
      9     -16.2161      1.00000
     10     -15.8292      1.00000
     11     -14.2965      1.00000
     12     -13.3746      1.00000
     13     -13.3298      1.00000
     14     -13.1021      1.00000
     15     -12.5437      1.00000
     16     -11.3280      1.00000
     17     -11.2846      1.00000
     18     -10.9194      1.00000
     19     -10.3676      1.00000
     20     -10.1741      1.00000
     21     -10.0392      1.00000
     22      -9.9010      1.00000
     23      -9.7488      1.00000
     24      -9.2031      1.00000
     25      -9.0805      1.00000
     26      -8.6272      1.00000
     27      -8.4977      1.00000
     28      -8.4603      1.00000
     29      -6.8861      1.00000
     30      -6.0346      1.00000
     31      -4.9926      1.00000
     32      -1.5829      0.00000
     33      -0.8506      0.00000
     34      -0.0461      0.00000
     35       0.0207      0.00000
     36       0.0820      0.00000
     37       0.0836      0.00000
     38       0.0849      0.00000
     39       0.0882      0.00000
     40       0.0887      0.00000
     41       0.1329      0.00000
     42       0.1628      0.00000
     43       0.1671      0.00000
     44       0.1702      0.00000
     45       0.1803      0.00000
     46       0.1812      0.00000
     47       0.1814      0.00000
     48       0.1818      0.00000
     49       0.1826      0.00000
     50       0.1826      0.00000
     51       0.1828      0.00000
     52       0.1830      0.00000
     53       0.2519      0.00000
     54       0.2619      0.00000


--------------------------------------------------------------------------------------------------------


 soft charge-density along one line, spin component           1
         0         1         2         3         4         5         6         7         8         9
 total charge-density along one line
 
 soft charge-density along one line, spin component           2
         0         1         2         3         4         5         6         7         8         9
 total charge-density along one line
 
 pseudopotential strength for first ion, spin component:           1
 10.445  13.888  -0.001  -0.000  -0.002  -0.000   0.001   0.005
 13.888  18.466  -0.001  -0.000  -0.002  -0.001   0.001   0.007
 -0.001  -0.001  -4.363   0.001  -0.003   8.464  -0.001   0.004
 -0.000  -0.000   0.001  -4.309  -0.001  -0.001   8.382   0.001
 -0.002  -0.002  -0.003  -0.001  -4.365   0.004   0.001   8.467
 -0.000  -0.001   8.464  -0.001   0.004 -18.688   0.001  -0.006
  0.001   0.001  -0.001   8.382   0.001   0.001 -18.579  -0.002
  0.005   0.007   0.004   0.001   8.467  -0.006  -0.002 -18.692
 pseudopotential strength for first ion, spin component:           2
 10.445  13.888  -0.001  -0.000  -0.002  -0.000   0.001   0.005
 13.888  18.466  -0.001  -0.000  -0.002  -0.001   0.001   0.007
 -0.001  -0.001  -4.363   0.001  -0.003   8.464  -0.001   0.004
 -0.000  -0.000   0.001  -4.309  -0.001  -0.001   8.382   0.001
 -0.002  -0.002  -0.003  -0.001  -4.365   0.004   0.001   8.467
 -0.000  -0.001   8.464  -0.001   0.004 -18.688   0.001  -0.006
  0.001   0.001  -0.001   8.382   0.001   0.001 -18.579  -0.002
  0.005   0.007   0.004   0.001   8.467  -0.006  -0.002 -18.692
 total augmentation occupancy for first ion, spin component:           1
  8.749  -3.940   0.187  -0.006  -0.126   0.038  -0.001  -0.026
 -3.940   1.814  -0.121   0.005   0.094  -0.024   0.001   0.016
  0.187  -0.121   1.797  -0.006   0.045   0.170  -0.001   0.010
 -0.006   0.005  -0.006   1.196   0.011  -0.001   0.077   0.002
 -0.126   0.094   0.045   0.011   1.830   0.010   0.002   0.178
  0.038  -0.024   0.170  -0.001   0.010   0.017  -0.000   0.002
 -0.001   0.001  -0.001   0.077   0.002  -0.000   0.005   0.000
 -0.026   0.016   0.010   0.002   0.178   0.002   0.000   0.018
 total augmentation occupancy for first ion, spin component:           2
  0.000  -0.000  -0.000  -0.000   0.000   0.000   0.000   0.000
 -0.000   0.000   0.000   0.000  -0.000  -0.000  -0.000  -0.000
 -0.000   0.000  -0.000   0.000   0.000   0.000  -0.000   0.000
 -0.000   0.000   0.000   0.000  -0.000   0.000   0.000  -0.000
  0.000  -0.000   0.000  -0.000  -0.000  -0.000  -0.000  -0.000
  0.000  -0.000   0.000   0.000  -0.000   0.000   0.000  -0.000
  0.000  -0.000  -0.000   0.000  -0.000   0.000   0.000  -0.000
  0.000  -0.000   0.000  -0.000  -0.000  -0.000  -0.000  -0.000


------------------------ aborting loop because EDIFF is reached ----------------------------------------


    CHARGE:  cpu time      2.2689: real time      2.2734
    FORLOC:  cpu time      0.4934: real time      0.4943
    FORNL :  cpu time      6.0454: real time      6.0579
    STRESS:  cpu time    164.0880: real time    164.4174
    FORCOR:  cpu time     10.3610: real time     10.3770
    FORHAR:  cpu time      1.2391: real time      1.2406
    MIXING:  cpu time      0.1395: real time      0.1397
    OFIELD:  cpu time      0.0000: real time      0.0000

 ---------------------------------------------------------------------------------------------

         DFTD3 V3.0 Rev 1        
 Edisp (eV)   -0.18809

 E6    (eV) :    -0.1474
 E8    (eV) :    -0.0407
 % E8        : 21.62
    FORVDW:  cpu time      0.0063: real time      0.0063

  FORCE on cell =-STRESS in cart. coord.  units (eV):
  Direction    XX          YY          ZZ          XY          YZ          ZX
  --------------------------------------------------------------------------------------
  Alpha Z     0.26742     0.26742     0.26742
  Ewald    4961.01438  2597.38363  -418.77205  -106.89584   -68.05440   157.38651
  Hartree  5074.59551  3014.69017  1068.92648   -65.73962   -44.29350   113.31103
  E(xc)    -244.17952  -244.42333  -245.33941     0.24027     0.01091    -0.03181
  Local  -10638.66400 -6220.89126 -1379.17970   161.38231   109.64227  -266.37798
  n-local  -101.56213  -106.47958  -106.94036    -1.39636    -0.29794     0.70364
  augment     8.91623     9.99181    13.26858     0.81399     0.13155    -0.25959
  Kinetic   939.82375   950.02400  1065.85722    10.86995     2.74603    -4.60520
  Fock        0.00000     0.00000     0.00000     0.00000     0.00000     0.00000
  vdW        -0.08080    -0.01468    -0.00145    -0.01017     0.00019    -0.00151
  -------------------------------------------------------------------------------------
  Total       0.13085     0.54817    -1.91327    -0.73547    -0.11489     0.12509
  in kB       0.00328     0.01372    -0.04790    -0.01841    -0.00288     0.00313
  external pressure =       -0.01 kB  Pullay stress =        0.00 kB


 VOLUME and BASIS-vectors are now :
 -----------------------------------------------------------------------------
  energy-cutoff  :      500.00
  volume of cell :    64000.00
      direct lattice vectors                 reciprocal lattice vectors
    40.000000000  0.000000000  0.000000000     0.025000000  0.000000000  0.000000000
     0.000000000 40.000000000  0.000000000     0.000000000  0.025000000  0.000000000
     0.000000000  0.000000000 40.000000000     0.000000000  0.000000000  0.025000000

  length of vectors
    40.000000000 40.000000000 40.000000000     0.025000000  0.025000000  0.025000000


 FORCES acting on ions
    electron-ion (+dipol)            ewald-force                    non-local-force                 convergence-correction
 -----------------------------------------------------------------------------------------------
   -.790E+02 0.208E+03 -.475E+01   0.802E+02 -.208E+03 0.491E+01   -.129E+01 0.702E+00 -.123E+00   0.579E-03 -.142E-02 0.690E-03
   0.538E+02 0.243E+03 -.240E+01   -.529E+02 -.245E+03 0.250E+01   -.694E+00 0.275E+01 -.262E-01   -.380E-02 -.344E-02 -.833E-04
   0.335E+02 0.129E+03 0.237E+01   -.262E+02 -.131E+03 -.217E+01   -.685E+01 0.186E+01 0.216E-01   -.226E-02 0.486E-02 -.562E-03
   -.574E+02 -.780E+02 0.233E+01   0.635E+02 0.733E+02 -.210E+01   -.554E+01 0.451E+01 -.394E-02   0.674E-03 -.301E-02 0.494E-03
   -.965E+02 -.164E+03 -.128E+01   0.989E+02 0.165E+03 0.137E+01   -.251E+01 -.110E+01 -.766E-02   -.534E-02 -.364E-02 0.776E-03
   -.962E+02 0.244E+02 -.325E+01   0.966E+02 -.247E+02 0.337E+01   -.538E+00 0.358E+00 -.816E-01   -.190E-02 0.232E-02 0.259E-03
   -.109E+03 0.903E+02 -.513E+01   0.109E+03 -.904E+02 0.516E+01   -.791E+00 0.292E+00 -.317E-01   0.554E-02 0.723E-03 -.207E-04
   -.974E+02 -.109E+03 0.149E+01   0.969E+02 0.108E+03 -.150E+01   -.978E-01 -.248E+00 0.233E-01   0.259E-02 -.416E-02 0.302E-04
   -.174E+03 -.238E+02 -.272E+01   0.174E+03 0.231E+02 0.275E+01   -.515E+00 0.470E+00 -.217E-01   0.282E-02 0.134E-02 -.689E-03
   0.269E+03 -.128E+03 0.509E+02   -.276E+03 0.132E+03 -.529E+02   0.748E+01 -.379E+01 0.231E+01   0.538E-03 -.261E-03 0.232E-02
   0.669E+02 -.416E+03 -.277E+02   -.620E+02 0.462E+03 0.344E+02   -.333E+01 -.460E+02 -.619E+01   0.317E-03 -.268E-02 -.240E-02
   0.373E+03 0.223E+03 -.270E+02   -.408E+03 -.255E+03 0.337E+02   0.351E+02 0.300E+02 -.606E+01   -.428E-03 -.618E-02 -.848E-02
   -.532E+02 0.547E+02 -.263E+01   0.551E+02 -.600E+02 0.282E+01   -.199E+01 0.544E+01 -.196E+00   0.125E-02 0.126E-03 -.106E-03
   -.503E+02 -.315E+02 0.507E+02   0.525E+02 0.339E+02 -.553E+02   -.226E+01 -.253E+01 0.457E+01   0.519E-03 -.107E-03 0.469E-03
   -.483E+02 -.344E+02 -.508E+02   0.503E+02 0.370E+02 0.552E+02   -.208E+01 -.279E+01 -.450E+01   0.606E-03 -.530E-04 -.557E-03
   -.167E+01 -.772E+02 0.253E+01   -.700E+00 0.823E+02 -.274E+01   0.234E+01 -.544E+01 0.222E+00   0.107E-02 0.197E-03 0.328E-04
   -.486E+02 0.722E+02 -.315E+01   0.510E+02 -.772E+02 0.334E+01   -.258E+01 0.531E+01 -.203E+00   0.764E-03 0.289E-03 -.138E-04
   -.327E+02 -.851E+02 -.799E+00   0.350E+02 0.902E+02 0.869E+00   -.252E+01 -.553E+01 -.554E-01   -.690E-03 0.835E-04 0.140E-03
   0.564E+02 -.269E+02 0.797E+02   -.579E+02 0.277E+02 -.853E+02   0.175E+01 -.889E+00 0.588E+01   -.416E-03 0.173E-03 -.760E-03
   0.827E+02 -.403E+02 -.446E+02   -.866E+02 0.423E+02 0.486E+02   0.433E+01 -.218E+01 -.413E+01   -.105E-03 0.428E-04 0.645E-03
   0.342E+02 0.905E+02 -.870E+00   -.368E+02 -.956E+02 0.923E+00   0.272E+01 0.545E+01 -.430E-01   -.860E-03 -.437E-03 -.108E-03
   -.401E+02 0.850E+02 -.182E+01   0.433E+02 -.896E+02 0.194E+01   -.333E+01 0.503E+01 -.120E+00   -.286E-03 -.149E-02 0.137E-03
 -----------------------------------------------------------------------------------------------
   -.168E+02 0.824E+01 0.877E+01   -.142E-13 0.185E-12 0.389E-13   0.168E+02 -.825E+01 -.877E+01   0.119E-02 -.167E-01 -.777E-02
 
 
 POSITION                                       TOTAL-FORCE (eV/Angst)
 -----------------------------------------------------------------------------------
     19.75337     18.29430     20.05565         0.003383      0.004235     -0.000566
     18.35690     18.17061     20.02712        -0.008334     -0.008954     -0.000010
     17.63621     19.34119     19.99134        -0.010798      0.013513      0.001199
     18.26491     20.58346     19.99239         0.004540     -0.005088     -0.001657
     19.62919     20.72239     20.02612        -0.015037     -0.006748     -0.000353
     20.40400     19.53635     20.05473         0.003819      0.000502     -0.000075
     21.86656     19.55783     20.08210         0.006438      0.001770     -0.000389
     22.66804     20.63233     20.06478        -0.010268      0.001531     -0.000483
     24.15828     20.57456     20.09599        -0.006781      0.004665      0.000571
     16.05627     20.91662     19.77573         0.001659      0.002645      0.001878
     17.31666     21.57868     20.00579         0.001065     -0.005949      0.002059
     16.27314     19.50885     20.00339         0.004002     -0.002736      0.005534
     24.52366     19.54683     20.13283        -0.006205     -0.015922      0.001130
     24.58764     21.06328     19.21455         0.004901      0.001232     -0.004224
     24.55318     21.11346     20.96427         0.003600      0.000106      0.003746
     22.23533     21.63009     20.02425        -0.011052      0.003429     -0.000616
     22.33313     18.57394     20.11936         0.005918     -0.007745      0.000427
     20.08214     21.70580     20.03592         0.009155     -0.004412     -0.000849
     15.75545     21.06904     18.73510        -0.004628      0.002492      0.010779
     15.32111     21.28639     20.48660        -0.003346      0.002506     -0.018736
     17.87065     17.20248     20.03489         0.014251      0.013345      0.001087
     20.35423     17.39150     20.07707         0.013719      0.005585     -0.000455
 -----------------------------------------------------------------------------------
    total drift:                               -0.015283     -0.022063     -0.004327


--------------------------------------------------------------------------------------------------------



  FREE ENERGIE OF THE ION-ELECTRON SYSTEM (eV)
  ---------------------------------------------------
  free  energy   TOTEN  =      -149.01511588 eV

  energy  without entropy=     -149.01511588  energy(sigma->0) =     -149.01511588
 
 d Force = 0.4649078E-04[ 0.186E-04, 0.744E-04]  d Energy = 0.5073928E-04-0.425E-05
 d Force =-0.2221330E+00[-0.222E+00,-0.222E+00]  d Ewald  =-0.2221330E+00-0.189E-08


--------------------------------------------------------------------------------------------------------


    POTLOK:  cpu time    116.7374: real time    116.9463


--------------------------------------------------------------------------------------------------------


 Conjugate gradient step on ions:
 trial-energy change:   -0.000051  1 .order   -0.000046   -0.000074   -0.000019
  (g-gl).g = 0.200E-03      g.g   = 0.217E-03  gl.gl    = 0.454E-03
 g(Force)  = 0.217E-03   g(Stress)= 0.000E+00 ortho     =-0.961E-05
 gamma     =   0.44078
 trial     =   0.35062
 opt step  =   0.46706  (harmonic =   0.46706) maximal distance =0.00066132
 next E    =  -149.015115   (d E  =  -0.00005)


--------------------------------------------------------------------------------------------------------


  
 reached required accuracy - stopping structural energy minimisation
 writing wavefunctions
     LOOP+:  cpu time    750.3239: real time    753.3519
    4ORBIT:  cpu time      0.0000: real time      0.0000

 total amount of memory used by VASP MPI-rank0  1004787. kBytes
=======================================================================

   base      :      30000. kBytes
   nonlr-proj:       1381. kBytes
   fftplans  :     192295. kBytes
   grid      :     734294. kBytes
   one-center:         18. kBytes
   wavefun   :      46799. kBytes
 
  
  
 General timing and accounting informations for this job:
 ========================================================
  
                  Total CPU time used (sec):    49684.090
                            User time (sec):    48009.030
                          System time (sec):     1675.058
                         Elapsed time (sec):    49802.250
  
                   Maximum memory used (kb):     2571976.
                   Average memory used (kb):          N/A
  
                          Minor page faults:    230608074
                          Major page faults:           13
                 Voluntary context switches:       919882
