 vasp.6.4.2 20Jul23 (build Sep 06 2024 14:39:43) complex                        
  
 executed on             LinuxIFC date 2025.10.02  16:58:24
 running   90 mpi-ranks, on    6 nodes
 distrk:  each k-point on   90 cores,    1 groups
 distr:  one band on NCORE=  15 cores,    6 groups


--------------------------------------------------------------------------------------------------------


 INCAR:
   SYSTEM = 103_red
   ISTART = 1
   ICHARG = 2
   INIWAV = 1
   NELM = 100
   ALGO = fast   	
   ISPIN = 2
   EDIFF = 1E-05
   ISMEAR = 0
   SIGMA = 0.05
   PREC = accurate
   ENCUT = 500
   LREAL = auto  	
   LWAVE = .TRUE.
   LCHARG = .FALSE.
   LAECHG = .FALSE.
   LVHAR = .FALSE.
   LVTOT = .FALSE.
   EDIFFG = -0.02
   IBRION = 2
   NSW = 500
   ISIF = 2
   POTIM = 0.5
   IVDW = 11
   LPLANE = .TRUE.
   NCORE = 15
   LSCALU = .FALSE.
   NSIM = 4
   LSOL = .TRUE.
   EB_K = 35.6880
   TAU = 0
   NELECT = 51

 POTCAR:    PAW_PBE C 08Apr2002                   
 POTCAR:    PAW_PBE H 15Jun2001                   
 -----------------------------------------------------------------------------
|                                                                             |
|           W    W    AA    RRRRR   N    N  II  N    N   GGGG   !!!           |
|           W    W   A  A   R    R  NN   N  II  NN   N  G    G  !!!           |
|           W    W  A    A  R    R  N N  N  II  N N  N  G       !!!           |
|           W WW W  AAAAAA  RRRRR   N  N N  II  N  N N  G  GGG   !            |
|           WW  WW  A    A  R   R   N   NN  II  N   NN  G    G                |
|           W    W  A    A  R    R  N    N  II  N    N   GGGG   !!!           |
|                                                                             |
|     You use a magnetic or noncollinear calculation, but did not specify     |
|     the initial magnetic moment with the MAGMOM tag. Note that a            |
|     default of 1 will be used for all atoms. This ferromagnetic setup       |
|     may break the symmetry of the crystal, in particular it may rule        |
|     out finding an antiferromagnetic solution. Thence, we recommend         |
|     setting the initial magnetic moment manually or verifying carefully     |
|     that this magnetic setup is desired.                                    |
|                                                                             |
 -----------------------------------------------------------------------------

 POTCAR:    PAW_PBE C 08Apr2002                   
   SHA256 =  253f7b50bb8d59471dbedb8285d89021f4a42ed1a2c5d38a03a736e69125dd95 C/POTCAR              
   COPYR  = (c) Copyright 08Apr2002 Georg Kresse                                                    
   COPYR  = This file is part of the software VASP. Any use, copying, and all other rights are regul
   COPYR  = If you do not have a valid VASP license, you may not use, copy or distribute this file. 
   VRHFIN =C: s2p2                                                                                  
   LEXCH  = PE                                                                                      
   EATOM  =   147.1560 eV,   10.8157 Ry                                                             
                                                                                                    
   TITEL  = PAW_PBE C 08Apr2002                                                                     
   LULTRA =        F    use ultrasoft PP ?                                                          
   IUNSCR =        1    unscreen: 0-lin 1-nonlin 2-no                                               
   RPACOR =    1.200    partial core radius                                                         
   POMASS =   12.011; ZVAL   =    4.000    mass and valenz                                          
   RCORE  =    1.500    outmost cutoff radius                                                       
   RWIGS  =    1.630; RWIGS  =    0.863    wigner-seitz radius (au A)                               
   ENMAX  =  400.000; ENMIN  =  300.000 eV                                                          
   ICORE  =        2    local potential                                                             
   LCOR   =        T    correct aug charges                                                         
   LPAW   =        T    paw PP                                                                      
   EAUG   =  644.873                                                                                
   DEXC   =    0.000                                                                                
   RMAX   =    1.529    core radius for proj-oper                                                   
   RAUG   =    1.300    factor for augmentation sphere                                              
   RDEP   =    1.501    radius for radial grids                                                     
   RDEPT  =    1.300    core radius for aug-charge                                                  
                                                                                                    
   Atomic configuration                                                                             
    4 entries                                                                                       
     n  l   j            E        occ.                                                              
     1  0  0.50      -273.3789   2.0000                                                             
     2  0  0.50       -13.7508   2.0000                                                             
     2  1  0.50        -5.2854   2.0000                                                             
     3  2  1.50        -5.4423   0.0000                                                             
   Description                                                                                      
     l       E           TYP  RCUT    TYP  RCUT                                                     
     0    -13.7508458     23  1.200                                                                 
     0     -8.2022199     23  1.200                                                                 
     1     -5.2854383     23  1.500                                                                 
     1     34.0145650     23  1.500                                                                 
     2     -5.4423304      7  1.500                                                                 
  local pseudopotential read in
  partial core-charges read in
  partial kinetic energy density read in
  atomic valenz-charges read in
  non local Contribution for L=           0  read in
    real space projection operators read in
  non local Contribution for L=           0  read in
    real space projection operators read in
  non local Contribution for L=           1  read in
    real space projection operators read in
  non local Contribution for L=           1  read in
    real space projection operators read in
    PAW grid and wavefunctions read in
 
   number of l-projection  operators is LMAX  =           4
   number of lm-projection operators is LMMAX =           8
 
 POTCAR:    PAW_PBE H 15Jun2001                   
   SHA256 =  030f79b5d3ab3cf0e668861823c8fb652ff669f3e15e46930bd03bfd63a607b6 H/POTCAR              
   COPYR  = (c) Copyright 15Jun2001 Georg Kresse                                                    
   COPYR  = This file is part of the software VASP. Any use, copying, and all other rights are regul
   COPYR  = If you do not have a valid VASP license, you may not use, copy or distribute this file. 
   VRHFIN =H: ultrasoft test                                                                        
   LEXCH  = PE                                                                                      
   EATOM  =    12.4884 eV,    0.9179 Ry                                                             
                                                                                                    
   TITEL  = PAW_PBE H 15Jun2001                                                                     
   LULTRA =        F    use ultrasoft PP ?                                                          
   IUNSCR =        0    unscreen: 0-lin 1-nonlin 2-no                                               
   RPACOR =    0.000    partial core radius                                                         
   POMASS =    1.000; ZVAL   =    1.000    mass and valenz                                          
   RCORE  =    1.100    outmost cutoff radius                                                       
   RWIGS  =    0.700; RWIGS  =    0.370    wigner-seitz radius (au A)                               
   ENMAX  =  250.000; ENMIN  =  200.000 eV                                                          
   RCLOC  =    0.701    cutoff for local pot                                                        
   LCOR   =        T    correct aug charges                                                         
   LPAW   =        T    paw PP                                                                      
   EAUG   =  400.000                                                                                
   RMAX   =    1.123    core radius for proj-oper                                                   
   RAUG   =    1.200    factor for augmentation sphere                                              
   RDEP   =    1.112    radius for radial grids                                                     
   RDEPT  =    0.926    core radius for aug-charge                                                  
                                                                                                    
   Atomic configuration                                                                             
    2 entries                                                                                       
     n  l   j            E        occ.                                                              
     1  0  0.50        -6.4927   1.0000                                                             
     2  1  0.50        -3.4015   0.0000                                                             
   Description                                                                                      
     l       E           TYP  RCUT    TYP  RCUT                                                     
     0     -6.4927494     23  1.100                                                                 
     0      6.8029130     23  1.100                                                                 
     1     -4.0817478     23  1.100                                                                 
  local pseudopotential read in
  atomic valenz-charges read in
  non local Contribution for L=           0  read in
    real space projection operators read in
  non local Contribution for L=           0  read in
    real space projection operators read in
  non local Contribution for L=           1  read in
    real space projection operators read in
    PAW grid and wavefunctions read in
 
   number of l-projection  operators is LMAX  =           3
   number of lm-projection operators is LMMAX =           5
 
 Optimization of the real space projectors (new method)

 maximal supplied QI-value         = 25.13
 optimisation between [QCUT,QGAM] = [ 11.31, 22.87] = [ 35.82,146.48] Ry 
 Optimized for a Real-space Cutoff    1.03 Angstroem

   l    n(q)    QCUT    max X(q) W(low)/X(q) W(high)/X(q)  e(spline) 
   0      7    11.310   115.676    0.20E-03    0.90E-03    0.20E-06
   0      7    11.310    87.132    0.20E-03    0.89E-03    0.19E-06
   1      6    11.310     4.429    0.16E-03    0.28E-03    0.12E-06
   1      6    11.310     2.733    0.12E-03    0.21E-03    0.99E-07
 Optimization of the real space projectors (new method)

 maximal supplied QI-value         = 34.20
 optimisation between [QCUT,QGAM] = [ 11.29, 22.57] = [ 35.68,142.71] Ry 
 Optimized for a Real-space Cutoff    1.20 Angstroem

   l    n(q)    QCUT    max X(q) W(low)/X(q) W(high)/X(q)  e(spline) 
   0      8    11.287    19.460    0.22E-03    0.50E-03    0.19E-06
   0      8    11.287    12.209    0.21E-03    0.48E-03    0.18E-06
   1      8    11.287     4.655    0.21E-03    0.11E-04    0.26E-06
  PAW_PBE C 08Apr2002                   :
 energy of atom  1       EATOM= -147.1560
 kinetic energy error for atom=    0.0076 (will be added to EATOM!!)
  PAW_PBE H 15Jun2001                   :
 energy of atom  2       EATOM=  -12.4884
 kinetic energy error for atom=    0.0020 (will be added to EATOM!!)
 
 
 POSCAR: C H
  positions in direct lattice
  velocities in cartesian coordinates
 exchange correlation table for  LEXCH =        8
   RHO(1)=    0.500       N(1)  =     2000
   RHO(2)=  100.500       N(2)  =     4000
 


--------------------------------------------------------------------------------------------------------


 ion  position               nearest neighbor table
   1  0.527  0.468  0.500-  22 1.09   6 1.37   2 1.44
   2  0.536  0.503  0.500-   3 1.42   9 1.43   1 1.44
   3  0.510  0.527  0.500-  18 1.09   4 1.38   2 1.42
   4  0.477  0.518  0.500-   3 1.38   5 1.44   8 1.49
   5  0.468  0.483  0.500-   6 1.42   4 1.44   7 1.48
   6  0.494  0.459  0.500-  11 1.09   1 1.37   5 1.42
   7  0.433  0.473  0.500-  12 1.09  13 1.10  14 1.10   5 1.48
   8  0.450  0.544  0.500-  17 1.09  15 1.10  16 1.10   4 1.49
   9  0.570  0.514  0.500-  21 1.09  10 1.37   2 1.43
  10  0.598  0.494  0.500-  20 1.09  19 1.09   9 1.37
  11  0.487  0.433  0.500-   6 1.09
  12  0.430  0.446  0.500-   7 1.09
  13  0.419  0.483  0.478-   7 1.10
  14  0.419  0.483  0.522-   7 1.10
  15  0.434  0.542  0.522-   8 1.10
  16  0.434  0.542  0.478-   8 1.10
  17  0.461  0.570  0.500-   8 1.09
  18  0.517  0.554  0.500-   3 1.09
  19  0.596  0.467  0.500-  10 1.09
  20  0.622  0.505  0.500-  10 1.09
  21  0.573  0.541  0.500-   9 1.09
  22  0.546  0.449  0.500-   1 1.09
 
  LATTYP: Found a simple cubic cell.
 ALAT       =    40.0000000000
  
  Lattice vectors:
  
 A1 = (  40.0000000000,   0.0000000000,   0.0000000000)
 A2 = (   0.0000000000,  40.0000000000,   0.0000000000)
 A3 = (   0.0000000000,   0.0000000000,  40.0000000000)


Analysis of symmetry for initial positions (statically):
=====================================================================
 Subroutine PRICEL returns:
 Original cell was already a primitive cell.
 

 Routine SETGRP: Setting up the symmetry group for a 
 simple cubic supercell.


 Subroutine GETGRP returns: Found  1 space group operations
 (whereof  1 operations were pure point group operations)
 out of a pool of 48 trial point group operations.


The static configuration has the point symmetry C_1 .


Analysis of symmetry for dynamics (positions and initial velocities):
=====================================================================
 Subroutine PRICEL returns:
 Original cell was already a primitive cell.
 

 Routine SETGRP: Setting up the symmetry group for a 
 simple cubic supercell.


 Subroutine GETGRP returns: Found  1 space group operations
 (whereof  1 operations were pure point group operations)
 out of a pool of 48 trial point group operations.


The dynamic configuration has the point symmetry C_1 .


Analysis of constrained symmetry for selective dynamics:
=====================================================================
 Subroutine PRICEL returns:
 Original cell was already a primitive cell.
 

 Routine SETGRP: Setting up the symmetry group for a 
 simple cubic supercell.


 Subroutine GETGRP returns: Found  1 space group operations
 (whereof  1 operations were pure point group operations)
 out of a pool of 48 trial point group operations.


The constrained configuration has the point symmetry C_1 .


Analysis of structural, dynamic, and magnetic symmetry:
=====================================================================
 Subroutine PRICEL returns:
 Original cell was already a primitive cell.
 

 Routine SETGRP: Setting up the symmetry group for a 
 simple cubic supercell.


 Subroutine GETGRP returns: Found  1 space group operations
 (whereof  1 operations were pure point group operations)
 out of a pool of 48 trial point group operations.


The overall configuration has the point symmetry C_1 .


 Subroutine INISYM returns: Found  1 space group operations
 (whereof  1 operations are pure point group operations),
 and found     1 'primitive' translations


----------------------------------------------------------------------------------------

                                     Primitive cell                                     

  volume of cell :   64000.0000

  direct lattice vectors                    reciprocal lattice vectors
    40.000000000  0.000000000  0.000000000     0.025000000  0.000000000  0.000000000
     0.000000000 40.000000000  0.000000000     0.000000000  0.025000000  0.000000000
     0.000000000  0.000000000 40.000000000     0.000000000  0.000000000  0.025000000

  length of vectors
    40.000000000 40.000000000 40.000000000     0.025000000  0.025000000  0.025000000

  position of ions in fractional coordinates (direct lattice)
     0.527036645  0.468200406  0.500005598
     0.535931596  0.502978273  0.500003515
     0.509970484  0.527243958  0.500002516
     0.476591915  0.518414308  0.499999665
     0.468091183  0.483392760  0.500001088
     0.493943944  0.459075757  0.500005451
     0.432602339  0.472779831  0.499999583
     0.449797977  0.544446270  0.499998024
     0.569785108  0.514383017  0.500001806
     0.597595593  0.494355432  0.499991751
     0.487063228  0.432725301  0.500007498
     0.429904813  0.445572675  0.500001875
     0.419431427  0.483176881  0.478133608
     0.419428700  0.483180418  0.521862350
     0.433531751  0.541847276  0.522019503
     0.433530074  0.541842768  0.477977273
     0.460510171  0.569624194  0.499995036
     0.516916980  0.553599618  0.500001269
     0.596182660  0.467176400  0.499984494
     0.622423138  0.505491730  0.499992180
     0.573376713  0.541438870  0.500008382
     0.546352560  0.449054858  0.500007534

  ion indices of the primitive-cell ions
   primitive index   ion index
                 1           1
                 2           2
                 3           3
                 4           4
                 5           5
                 6           6
                 7           7
                 8           8
                 9           9
                10          10
                11          11
                12          12
                13          13
                14          14
                15          15
                16          16
                17          17
                18          18
                19          19
                20          20
                21          21
                22          22

----------------------------------------------------------------------------------------

 
 
 KPOINTS: K-Point Grid                            

Automatic generation of k-mesh.
 Grid dimensions read from file:
 generate k-points for:    1    1    1

 Generating k-lattice:

  Cartesian coordinates                     Fractional coordinates (reciprocal lattice)
     0.025000000  0.000000000  0.000000000     1.000000000  0.000000000  0.000000000
     0.000000000  0.025000000  0.000000000     0.000000000  1.000000000  0.000000000
     0.000000000  0.000000000  0.025000000     0.000000000  0.000000000  1.000000000

  Length of vectors
     0.025000000  0.025000000  0.025000000

  Shift w.r.t. Gamma in fractional coordinates (k-lattice)
     0.000000000  0.000000000  0.000000000

 
 Subroutine IBZKPT returns following result:
 ===========================================
 
 Found      1 irreducible k-points:
 
 Following reciprocal coordinates:
            Coordinates               Weight
  0.000000  0.000000  0.000000      1.000000
 
 Following cartesian coordinates:
            Coordinates               Weight
  0.000000  0.000000  0.000000      1.000000
 


--------------------------------------------------------------------------------------------------------




 Dimension of arrays:
   k-points           NKPTS =      1   k-points in BZ     NKDIM =      1   number of bands    NBANDS=     48
   number of dos      NEDOS =    301   number of ions     NIONS =     22
   non local maximal  LDIM  =      4   non local SUM 2l+1 LMDIM =      8
   total plane-waves  NPLWV = ******
   max r-space proj   IRMAX =   2915   max aug-charges    IRDMAX=   4885
   dimension x,y,z NGX =   294 NGY =  294 NGZ =  294
   dimension x,y,z NGXF=   588 NGYF=  588 NGZF=  588
   support grid    NGXF=   588 NGYF=  588 NGZF=  588
   ions per type =              10  12
   NGX,Y,Z   is equivalent  to a cutoff of  12.22, 12.22, 12.22 a.u.
   NGXF,Y,Z  is equivalent  to a cutoff of  24.44, 24.44, 24.44 a.u.

 SYSTEM =  103_red                                 
 POSCAR =  C H                                     

 Startparameter for this run:
   NWRITE =      2    write-flag & timer
   PREC   = accura    normal or accurate (medium, high low for compatibility)
   ISTART =      1    job   : 0-new  1-cont  2-samecut
   ICHARG =      2    charge: 1-file 2-atom 10-const
   ISPIN  =      2    spin polarized calculation?
   LNONCOLLINEAR =      F non collinear calculations
   LSORBIT =      F    spin-orbit coupling
   INIWAV =      1    electr: 0-lowe 1-rand  2-diag
   LASPH  =      F    aspherical Exc in radial PAW
 Electronic Relaxation 1
   ENCUT  =  500.0 eV  36.75 Ry    6.06 a.u.  72.93 72.93 72.93*2*pi/ulx,y,z
   ENINI  =  500.0     initial cutoff
   ENAUG  =  644.9 eV  augmentation charge cutoff
   NELM   =    100;   NELMIN=  2; NELMDL=  0     # of ELM steps 
   EDIFF  = 0.1E-04   stopping-criterion for ELM
   LREAL  =      T    real-space projection
   NLSPLINE    = F    spline interpolate recip. space projectors
   LCOMPAT=      F    compatible to vasp.4.4
   GGA_COMPAT  = T    GGA compatible to vasp.4.4-vasp.4.6
   LMAXPAW     = -100 max onsite density
   LMAXMIX     =    2 max onsite mixed and CHGCAR
   VOSKOWN=      0    Vosko Wilk Nusair interpolation
   ROPT   =   -0.00025  -0.00025
 Ionic relaxation
   EDIFFG = -.2E-01   stopping-criterion for IOM
   NSW    =    500    number of steps for IOM
   NBLOCK =      1;   KBLOCK =    500    inner block; outer block 
   IBRION =      2    ionic relax: 0-MD 1-quasi-New 2-CG
   NFREE  =      1    steps in history (QN), initial steepest desc. (CG)
   ISIF   =      2    stress and relaxation
   IWAVPR =     11    prediction:  0-non 1-charg 2-wave 3-comb
   ISYM   =      2    0-nonsym 1-usesym 2-fastsym
   LCORR  =      T    Harris-Foulkes like correction to forces

   POTIM  = 0.5000    time-step for ionic-motion
   TEIN   =    0.0    initial temperature
   TEBEG  =    0.0;   TEEND  =   0.0 temperature during run
   SMASS  =  -3.00    Nose mass-parameter (am)
   estimated Nose-frequenzy (Omega)   =  0.10E-29 period in steps = 0.13E+47 mass=  -0.366E-25a.u.
   SCALEE = 1.0000    scale energy and forces
   NPACO  =    256;   APACO  = 10.0  distance and # of slots for P.C.
   PSTRESS=    0.0 pullay stress

  Mass of Ions in am
   POMASS =  12.01  1.00
  Ionic Valenz
   ZVAL   =   4.00  1.00
  Atomic Wigner-Seitz radii
   RWIGS  =  -1.00 -1.00
  virtual crystal weights 
   VCA    =   1.00  1.00
   NELECT =      51.0000    total number of electrons
   NUPDOWN=      -1.0000    fix difference up-down

 DOS related values:
   EMIN   =  10.00;   EMAX   =-10.00  energy-range for DOS
   EFERMI =   0.00;   METHOD = LEGACY      
   ISMEAR =     0;   SIGMA  =   0.05  broadening in eV -4-tet -1-fermi 0-gaus

 Electronic relaxation 2 (details)
   IALGO  =     68    algorithm
   LDIAG  =      T    sub-space diagonalisation (order eigenvalues)
   LSUBROT=      F    optimize rotation matrix (better conditioning)
   TURBO    =      0    0=normal 1=particle mesh
   IRESTART =      0    0=no restart 2=restart with 2 vectors
   NREBOOT  =      0    no. of reboots
   NMIN     =      0    reboot dimension
   EREF     =   0.00    reference energy to select bands
   IMIX   =      4    mixing-type and parameters
     AMIX     =   0.40;   BMIX     =  1.00
     AMIX_MAG =   1.60;   BMIX_MAG =  1.00
     AMIN     =   0.10
     WC   =   100.;   INIMIX=   1;  MIXPRE=   1;  MAXMIX= -45

 Intra band minimization:
   WEIMIN = 0.0010     energy-eigenvalue tresh-hold
   EBREAK =  0.52E-07  absolut break condition
   DEPER  =   0.30     relativ break condition  

   TIME   =   0.40     timestep for ELM

  volume/ion in A,a.u.               =    2909.09     19631.51
  Fermi-wavevector in a.u.,A,eV,Ry     =   0.151777  0.286816  0.313426  0.023036
  Thomas-Fermi vector in A             =   0.830723
 
 Write flags
   LWAVE        =      T    write WAVECAR
   LDOWNSAMPLE  =      F    k-point downsampling of WAVECAR
   LCHARG       =      F    write CHGCAR
   LVTOT        =      F    write LOCPOT, total local potential
   LVHAR        =      F    write LOCPOT, Hartree potential only
   LELF         =      F    write electronic localiz. function (ELF)
   LORBIT       =      0    0 simple, 1 ext, 2 COOP (PROOUT), +10 PAW based schemes


 Dipole corrections
   LMONO  =      F    monopole corrections only (constant potential shift)
   LDIPOL =      F    correct potential (dipole corrections)
   IDIPOL =      0    1-x, 2-y, 3-z, 4-all directions 
   EPSILON=  1.0000000 bulk dielectric constant

 Exchange correlation treatment:
   GGA     =    --    GGA type
   LEXCH   =     8    internal setting for exchange type
   LIBXC   =     F    Libxc                    
   VOSKOWN =     0    Vosko Wilk Nusair interpolation
   LHFCALC =     F    Hartree Fock is set to
   LHFONE  =     F    Hartree Fock one center treatment
   AEXX    =    0.0000 exact exchange contribution

 Linear response parameters
   LEPSILON=     F    determine dielectric tensor
   LRPA    =     F    only Hartree local field effects (RPA)
   LNABLA  =     F    use nabla operator in PAW spheres
   LVEL    =     F    velocity operator in full k-point grid
   CSHIFT  =0.1000    complex shift for real part using Kramers Kronig
   OMEGAMAX=  -1.0    maximum frequency
   DEG_THRESHOLD= 0.2000000E-02 threshold for treating states as degnerate
   RTIME   =   -0.100 relaxation time in fs
  (WPLASMAI=    0.000 imaginary part of plasma frequency in eV, 0.658/RTIME)
   DFIELD  = 0.0000000 0.0000000 0.0000000 field for delta impulse in time
 
  Optional k-point grid parameters
   LKPOINTS_OPT  =     F    use optional k-point grid
   KPOINTS_OPT_MODE=     1    mode for optional k-point grid
 
 Orbital magnetization related:
   ORBITALMAG=     F  switch on orbital magnetization
   LCHIMAG   =     F  perturbation theory with respect to B field
   DQ        =  0.001000  dq finite difference perturbation B field
   LLRAUG    =     F  two centre corrections for induced B field
   LBONE     =     F  B-component reconstruction in AE one-centre
   LVGVCALC  =     T  calculate vGv susceptibility
   LVGVAPPL  =     F  apply vGv susceptibility instead of pGv for G=0

 Random number generation:
   RANDOM_GENERATOR = DEFAULT
   PCG_SEED         = not used
 Solvation model:
   LSOL    =     T         switch on solvation model
   EB_K    = 35.688000     relative permittivity of the bulk solvent
   SIGMA_K =  0.600000     width of the dielectric cavity
   NC_K    =  0.002500     cutoff charge density
   TAU     =  0.000000     cavity surface tension
   LAMBDA_D_K    =**********     Debye length in Angstroms
   LRHOB     =     F     write boundcharge  density
   LRHOION     =     F     write ioniccharge density



--------------------------------------------------------------------------------------------------------


 conjugate gradient relaxation of ions
   using selective dynamics as specified on POSCAR
 charge density and potential will be updated during run
 spin polarized calculation
 RMM-DIIS sequential band-by-band and
  variant of blocked Davidson during initial phase
 perform sub-space diagonalisation
    before iterative eigenvector-optimisation
 modified Broyden-mixing scheme, WC =      100.0
 initial mixing is a Kerker type mixing with AMIX =  0.4000 and BMIX =      1.0000
 Hartree-type preconditioning will be used
 using additional bands           22
 real space projection scheme for non local part
 use partial core corrections
 calculate Harris-corrections to forces 
   (improved forces if not selfconsistent)
 use gradient corrections 
 use of overlap-Matrix (Vanderbilt PP)
 Gauss-broadening in eV      SIGMA  =   0.05


--------------------------------------------------------------------------------------------------------


  energy-cutoff  :      500.00
  volume of cell :    64000.00
      direct lattice vectors                 reciprocal lattice vectors
    40.000000000  0.000000000  0.000000000     0.025000000  0.000000000  0.000000000
     0.000000000 40.000000000  0.000000000     0.000000000  0.025000000  0.000000000
     0.000000000  0.000000000 40.000000000     0.000000000  0.000000000  0.025000000

  length of vectors
    40.000000000 40.000000000 40.000000000     0.025000000  0.025000000  0.025000000


 
 old parameters found on file WAVECAR:
  energy-cutoff  :      500.00
  volume of cell :    64000.00
      direct lattice vectors                 reciprocal lattice vectors
    40.000000000  0.000000000  0.000000000     0.025000000  0.000000000  0.000000000
     0.000000000 40.000000000  0.000000000     0.000000000  0.025000000  0.000000000
     0.000000000  0.000000000 40.000000000     0.000000000  0.000000000  0.025000000

  length of vectors

 
 k-points in units of 2pi/SCALE and weight: K-Point Grid                            
   0.00000000  0.00000000  0.00000000       1.000
 
 k-points in reciprocal lattice and weights: K-Point Grid                            
   0.00000000  0.00000000  0.00000000       1.000
 
 position of ions in fractional coordinates (direct lattice) 
   0.52703665  0.46820041  0.50000560
   0.53593160  0.50297827  0.50000352
   0.50997048  0.52724396  0.50000252
   0.47659192  0.51841431  0.49999967
   0.46809118  0.48339276  0.50000109
   0.49394394  0.45907576  0.50000545
   0.43260234  0.47277983  0.49999958
   0.44979798  0.54444627  0.49999802
   0.56978511  0.51438302  0.50000181
   0.59759559  0.49435543  0.49999175
   0.48706323  0.43272530  0.50000750
   0.42990481  0.44557268  0.50000188
   0.41943143  0.48317688  0.47813361
   0.41942870  0.48318042  0.52186235
   0.43353175  0.54184728  0.52201950
   0.43353007  0.54184277  0.47797727
   0.46051017  0.56962419  0.49999504
   0.51691698  0.55359962  0.50000127
   0.59618266  0.46717640  0.49998449
   0.62242314  0.50549173  0.49999218
   0.57337671  0.54143887  0.50000838
   0.54635256  0.44905486  0.50000753
 
 position of ions in cartesian coordinates  (Angst):
  21.08146581 18.72801625 20.00022393
  21.43726383 20.11913090 20.00014061
  20.39881936 21.08975832 20.00010063
  19.06367661 20.73657231 19.99998661
  18.72364732 19.33571039 20.00004352
  19.75775778 18.36303029 20.00021802
  17.30409354 18.91119322 19.99998332
  17.99191909 21.77785079 19.99992096
  22.79140433 20.57532067 20.00007224
  23.90382373 19.77421728 19.99967002
  19.48252914 17.30901204 20.00029993
  17.19619252 17.82290701 20.00007501
  16.77725707 19.32707524 19.12534434
  16.77714802 19.32721673 20.87449399
  17.34127006 21.67389106 20.88078010
  17.34120294 21.67371072 19.11909094
  18.42040682 22.78496774 19.99980144
  20.67667922 22.14398473 20.00005077
  23.84730641 18.68705601 19.99937977
  24.89692550 20.21966918 19.99968721
  22.93506850 21.65755480 20.00033528
  21.85410240 17.96219431 20.00030134
 


--------------------------------------------------------------------------------------------------------


 k-point   1 :   0.0000 0.0000 0.0000  plane waves: 1624525

 maximum and minimum number of plane-waves per node :    108307   108296

 maximum number of plane-waves:   1624525
 maximum index in each direction: 
   IXMAX=   72   IYMAX=   72   IZMAX=   72
   IXMIN=  -72   IYMIN=  -72   IZMIN=  -72


 real space projection operators:
  total allocation   :       2423.42 KBytes
  max/ min on nodes  :        180.14        145.72


 parallel 3D FFT for wavefunctions:
    minimum data exchange during FFTs selected (reduces bandwidth)
 parallel 3D FFT for charge:
    minimum data exchange during FFTs selected (reduces bandwidth)


 total amount of memory used by VASP MPI-rank0   523066. kBytes
=======================================================================

   base      :      30000. kBytes
   nonlr-proj:       1265. kBytes
   fftplans  :     131430. kBytes
   grid      :     332629. kBytes
   one-center:         12. kBytes
   wavefun   :      27730. kBytes
 
     INWAV:  cpu time     12.8335: real time     12.8338
 Broyden mixing: mesh for mixing (old mesh)
   NGX =145   NGY =145   NGZ =145
  (NGX  =588   NGY  =588   NGZ  =588)
  gives a total of ****** points

 initial charge density was supplied:
 charge density of overlapping atoms calculated
 number of electron      52.0000000 magnetization      22.0000000
 keeping initial charge density in first step


--------------------------------------------------------------------------------------------------------


 Maximum index for non-local projection operator          236
 Maximum index for augmentation-charges          247 (set IRDMAX)


--------------------------------------------------------------------------------------------------------


 First call to EWALD:  gamma=   0.044
 Maximum number of real-space cells 3x 3x 3
 Maximum number of reciprocal cells 3x 3x 3

    FEWALD:  cpu time      0.1755: real time      0.1757


--------------------------------------- Ionic step        1  -------------------------------------------




--------------------------------------- Iteration      1(   1)  ---------------------------------------


    POTLOK:  cpu time    480.3693: real time    480.4079
    SETDIJ:  cpu time      0.0339: real time      0.0339
     EDDAV:  cpu time     45.5374: real time     45.5375
       DOS:  cpu time      0.1124: real time      0.1123
    CHARGE:  cpu time      3.1829: real time      3.1829
    MIXING:  cpu time      0.0883: real time      0.0883
    --------------------------------------------
      LOOP:  cpu time    529.3241: real time    529.3629

 eigenvalue-minimisations  :   276
 total energy-change (2. order) :-0.1142997E+03  (-0.1030539E+02)
 number of electron      51.0000001 magnetization      21.1909166
 augmentation part        1.2973636 magnetization      20.2820678

 Broyden mixing:
  rms(total) = 0.29554E+01    rms(broyden)= 0.29551E+01
  rms(prec ) = 0.29841E+01
  weight for this iteration     100.00

 Free energy of the ion-electron system (eV)
  ---------------------------------------------------
  alpha Z        PSCENC =         0.19061315
  Ewald energy   TEWEN  =      5369.68871859
  -Hartree energ DENC   =     -6396.27424667
  -exchange      EXHF   =         0.00000000
  -V(xc)+E(xc)   XCENC  =       163.58086714
  PAW double counting   =      1105.46993731    -1111.17591603
  entropy T*S    EENTRO =        -0.00000000
  eigenvalues    EBANDS =      -857.02570803
  atomic energy  EATOM  =      1621.32137526
  Solvation  Ediel_sol  =       -10.07534906
  ---------------------------------------------------
  free energy    TOTEN  =      -114.29970835 eV

  energy without entropy =     -114.29970835  energy(sigma->0) =     -114.29970835


--------------------------------------------------------------------------------------------------------




--------------------------------------- Iteration      1(   2)  ---------------------------------------


    POTLOK:  cpu time    514.3862: real time    514.3890
    SETDIJ:  cpu time      0.0289: real time      0.0289
    EDDIAG:  cpu time      5.3887: real time      5.3886
  RMM-DIIS:  cpu time      8.3450: real time      8.3451
    ORTHCH:  cpu time      0.9415: real time      0.9415
       DOS:  cpu time      0.4485: real time      0.4485
    CHARGE:  cpu time      3.1798: real time      3.1798
    MIXING:  cpu time      0.1038: real time      0.1038
    --------------------------------------------
      LOOP:  cpu time    532.8223: real time    532.8252

 eigenvalue-minimisations  :   192
 total energy-change (2. order) : 0.5683634E+02  (-0.1082916E+02)
 number of electron      51.0000000 magnetization      20.3082855
 augmentation part        1.2889054 magnetization      19.3194021

 Broyden mixing:
  rms(total) = 0.14454E+01    rms(broyden)= 0.14453E+01
  rms(prec ) = 0.14684E+01
  weight for this iteration     100.00

 eigenvalues of (default mixing * dielectric matrix)
  average eigenvalue GAMMA=   0.9549
  0.9549

 Free energy of the ion-electron system (eV)
  ---------------------------------------------------
  alpha Z        PSCENC =         0.19061315
  Ewald energy   TEWEN  =      5369.68871859
  -Hartree energ DENC   =     -6477.49715430
  -exchange      EXHF   =         0.00000000
  -V(xc)+E(xc)   XCENC  =       218.31546519
  PAW double counting   =      2087.30880066    -2094.04753234
  entropy T*S    EENTRO =        -0.00000000
  eigenvalues    EBANDS =      -750.44848687
  atomic energy  EATOM  =      1621.32137526
  Solvation  Ediel_sol  =       -32.29516275
  ---------------------------------------------------
  free energy    TOTEN  =       -57.46336342 eV

  energy without entropy =      -57.46336342  energy(sigma->0) =      -57.46336342


--------------------------------------------------------------------------------------------------------




--------------------------------------- Iteration      1(   3)  ---------------------------------------


    POTLOK:  cpu time    525.9429: real time    525.9491
    SETDIJ:  cpu time      0.0319: real time      0.0319
    EDDIAG:  cpu time      5.1456: real time      5.1456
  RMM-DIIS:  cpu time      8.3484: real time      8.3483
    ORTHCH:  cpu time      1.1341: real time      1.1341
       DOS:  cpu time      0.0190: real time      0.0190
    CHARGE:  cpu time      3.3654: real time      3.3654
    MIXING:  cpu time      0.1037: real time      0.1037
    --------------------------------------------
      LOOP:  cpu time    544.0911: real time    544.0971

 eigenvalue-minimisations  :   192
 total energy-change (2. order) :-0.3737550E+02  (-0.4513990E+01)
 number of electron      50.9999999 magnetization      19.3031065
 augmentation part        1.2517964 magnetization      18.2828356

 Broyden mixing:
  rms(total) = 0.85974E+00    rms(broyden)= 0.85967E+00
  rms(prec ) = 0.86751E+00
  weight for this iteration     100.00

 eigenvalues of (default mixing * dielectric matrix)
  average eigenvalue GAMMA=   1.1151
  0.7845  1.4457

 Free energy of the ion-electron system (eV)
  ---------------------------------------------------
  alpha Z        PSCENC =         0.19061315
  Ewald energy   TEWEN  =      5369.68871859
  -Hartree energ DENC   =     -6539.62986151
  -exchange      EXHF   =         0.00000000
  -V(xc)+E(xc)   XCENC  =       191.63197268
  PAW double counting   =      2973.92141042    -2981.25076539
  entropy T*S    EENTRO =        -0.00000000
  eigenvalues    EBANDS =      -675.33909358
  atomic energy  EATOM  =      1621.32137526
  Solvation  Ediel_sol  =       -55.37323456
  ---------------------------------------------------
  free energy    TOTEN  =       -94.83886495 eV

  energy without entropy =      -94.83886495  energy(sigma->0) =      -94.83886495


--------------------------------------------------------------------------------------------------------




--------------------------------------- Iteration      1(   4)  ---------------------------------------


    POTLOK:  cpu time    528.7081: real time    528.7133
    SETDIJ:  cpu time      0.0320: real time      0.0320
    EDDIAG:  cpu time      5.5962: real time      5.5962
  RMM-DIIS:  cpu time      8.1101: real time      8.1100
    ORTHCH:  cpu time      1.3598: real time      1.3598
       DOS:  cpu time      0.1824: real time      0.1824
    CHARGE:  cpu time      3.7825: real time      3.7824
    MIXING:  cpu time      0.1099: real time      0.1099
    --------------------------------------------
      LOOP:  cpu time    547.8811: real time    547.8861

 eigenvalue-minimisations  :   192
 total energy-change (2. order) :-0.9507086E+01  (-0.1731904E+01)
 number of electron      50.9999999 magnetization      18.4185845
 augmentation part        1.2184202 magnetization      17.4033197

 Broyden mixing:
  rms(total) = 0.62510E+00    rms(broyden)= 0.62503E+00
  rms(prec ) = 0.63035E+00
  weight for this iteration     100.00

 eigenvalues of (default mixing * dielectric matrix)
  average eigenvalue GAMMA=   1.0830
  1.4861  1.0832  0.6798

 Free energy of the ion-electron system (eV)
  ---------------------------------------------------
  alpha Z        PSCENC =         0.19061315
  Ewald energy   TEWEN  =      5369.68871859
  -Hartree energ DENC   =     -6567.12162626
  -exchange      EXHF   =         0.00000000
  -V(xc)+E(xc)   XCENC  =       187.00929488
  PAW double counting   =      3693.18490155    -3700.68092380
  entropy T*S    EENTRO =        -0.00000000
  eigenvalues    EBANDS =      -630.46290271
  atomic energy  EATOM  =      1621.32137526
  Solvation  Ediel_sol  =       -77.47540167
  ---------------------------------------------------
  free energy    TOTEN  =      -104.34595101 eV

  energy without entropy =     -104.34595101  energy(sigma->0) =     -104.34595101


--------------------------------------------------------------------------------------------------------




--------------------------------------- Iteration      1(   5)  ---------------------------------------


    POTLOK:  cpu time    527.5600: real time    527.5671
    SETDIJ:  cpu time      0.0328: real time      0.0328
    EDDIAG:  cpu time      5.5530: real time      5.5531
  RMM-DIIS:  cpu time      8.3643: real time      8.3644
    ORTHCH:  cpu time      1.3026: real time      1.3026
       DOS:  cpu time      0.0032: real time      0.0032
    CHARGE:  cpu time      3.1706: real time      3.1706
    MIXING:  cpu time      0.1148: real time      0.1148
    --------------------------------------------
      LOOP:  cpu time    546.1014: real time    546.1087

 eigenvalue-minimisations  :   192
 total energy-change (2. order) :-0.6618169E+01  (-0.4221264E+00)
 number of electron      50.9999998 magnetization      16.9051340
 augmentation part        1.2059446 magnetization      15.8985374

 Broyden mixing:
  rms(total) = 0.40430E+00    rms(broyden)= 0.40428E+00
  rms(prec ) = 0.40772E+00
  weight for this iteration     100.00

 eigenvalues of (default mixing * dielectric matrix)
  average eigenvalue GAMMA=   1.3460
  2.1496  1.7574  0.8404  0.6365

 Free energy of the ion-electron system (eV)
  ---------------------------------------------------
  alpha Z        PSCENC =         0.19061315
  Ewald energy   TEWEN  =      5369.68871859
  -Hartree energ DENC   =     -6556.36816224
  -exchange      EXHF   =         0.00000000
  -V(xc)+E(xc)   XCENC  =       182.09869282
  PAW double counting   =      3957.44848305    -3964.79228947
  entropy T*S    EENTRO =        -0.00000000
  eigenvalues    EBANDS =      -631.13605462
  atomic energy  EATOM  =      1621.32137526
  Solvation  Ediel_sol  =       -89.41549635
  ---------------------------------------------------
  free energy    TOTEN  =      -110.96411980 eV

  energy without entropy =     -110.96411980  energy(sigma->0) =     -110.96411980


--------------------------------------------------------------------------------------------------------




--------------------------------------- Iteration      1(   6)  ---------------------------------------


    POTLOK:  cpu time    539.6042: real time    539.6105
    SETDIJ:  cpu time      0.0326: real time      0.0326
    EDDIAG:  cpu time      5.4516: real time      5.4515
  RMM-DIIS:  cpu time      9.0356: real time      9.0355
    ORTHCH:  cpu time      1.2136: real time      1.2136
       DOS:  cpu time      0.3457: real time      0.3457
    CHARGE:  cpu time      3.3734: real time      3.3734
    MIXING:  cpu time      0.1236: real time      0.1236
    --------------------------------------------
      LOOP:  cpu time    559.1803: real time    559.1865

 eigenvalue-minimisations  :   197
 total energy-change (2. order) :-0.1030105E+02  (-0.5615060E+00)
 number of electron      50.9999998 magnetization      16.3532560
 augmentation part        1.1944502 magnetization      15.3683425

 Broyden mixing:
  rms(total) = 0.24166E+00    rms(broyden)= 0.24163E+00
  rms(prec ) = 0.24420E+00
  weight for this iteration     100.00

 eigenvalues of (default mixing * dielectric matrix)
  average eigenvalue GAMMA=   1.3076
  2.4374  1.7078  0.9089  0.8515  0.6325

 Free energy of the ion-electron system (eV)
  ---------------------------------------------------
  alpha Z        PSCENC =         0.19061315
  Ewald energy   TEWEN  =      5369.68871859
  -Hartree energ DENC   =     -6539.89698658
  -exchange      EXHF   =         0.00000000
  -V(xc)+E(xc)   XCENC  =       174.31285943
  PAW double counting   =      4294.66568889    -4301.80375466
  entropy T*S    EENTRO =        -0.00000000
  eigenvalues    EBANDS =      -634.32986750
  atomic energy  EATOM  =      1621.32137526
  Solvation  Ediel_sol  =      -105.41381442
  ---------------------------------------------------
  free energy    TOTEN  =      -121.26516786 eV

  energy without entropy =     -121.26516786  energy(sigma->0) =     -121.26516786


--------------------------------------------------------------------------------------------------------




--------------------------------------- Iteration      1(   7)  ---------------------------------------


    POTLOK:  cpu time    508.2582: real time    508.2656
    SETDIJ:  cpu time      0.0297: real time      0.0297
    EDDIAG:  cpu time      5.5405: real time      5.5405
  RMM-DIIS:  cpu time      8.2242: real time      8.2243
    ORTHCH:  cpu time      1.2649: real time      1.2649
       DOS:  cpu time      0.2453: real time      0.2453
    CHARGE:  cpu time      3.3943: real time      3.3943
    MIXING:  cpu time      0.1277: real time      0.1278
    --------------------------------------------
      LOOP:  cpu time    527.0848: real time    527.0923

 eigenvalue-minimisations  :   192
 total energy-change (2. order) :-0.9965727E+00  (-0.7799888E-01)
 number of electron      50.9999998 magnetization      14.8492907
 augmentation part        1.1883313 magnetization      13.8722556

 Broyden mixing:
  rms(total) = 0.21002E+00    rms(broyden)= 0.21002E+00
  rms(prec ) = 0.21231E+00
  weight for this iteration     100.00

 eigenvalues of (default mixing * dielectric matrix)
  average eigenvalue GAMMA=   1.2358
  2.3210  1.9465  0.8649  0.8649  0.7086  0.7086

 Free energy of the ion-electron system (eV)
  ---------------------------------------------------
  alpha Z        PSCENC =         0.19061315
  Ewald energy   TEWEN  =      5369.68871859
  -Hartree energ DENC   =     -6536.50496955
  -exchange      EXHF   =         0.00000000
  -V(xc)+E(xc)   XCENC  =       173.59768235
  PAW double counting   =      4292.69346114    -4299.85392328
  entropy T*S    EENTRO =        -0.00000000
  eigenvalues    EBANDS =      -634.81341559
  atomic energy  EATOM  =      1621.32137526
  Solvation  Ediel_sol  =      -108.58128260
  ---------------------------------------------------
  free energy    TOTEN  =      -122.26174055 eV

  energy without entropy =     -122.26174055  energy(sigma->0) =     -122.26174055


--------------------------------------------------------------------------------------------------------




--------------------------------------- Iteration      1(   8)  ---------------------------------------


    POTLOK:  cpu time    518.1156: real time    518.1211
    SETDIJ:  cpu time      0.0297: real time      0.0297
    EDDIAG:  cpu time      5.6991: real time      5.6990
  RMM-DIIS:  cpu time      8.1362: real time      8.1361
    ORTHCH:  cpu time      1.4006: real time      1.4006
       DOS:  cpu time      0.3354: real time      0.3354
    CHARGE:  cpu time      2.7927: real time      2.7927
    MIXING:  cpu time      0.1281: real time      0.1281
    --------------------------------------------
      LOOP:  cpu time    536.6374: real time    536.6428

 eigenvalue-minimisations  :   192
 total energy-change (2. order) :-0.2689398E+01  (-0.9192912E-01)
 number of electron      50.9999998 magnetization      12.7887844
 augmentation part        1.1889866 magnetization      11.8190161

 Broyden mixing:
  rms(total) = 0.15364E+00    rms(broyden)= 0.15363E+00
  rms(prec ) = 0.15513E+00
  weight for this iteration     100.00

 eigenvalues of (default mixing * dielectric matrix)
  average eigenvalue GAMMA=   1.5714
  3.7626  2.5609  1.6040  0.9593  0.8523  0.6302  0.6302

 Free energy of the ion-electron system (eV)
  ---------------------------------------------------
  alpha Z        PSCENC =         0.19061315
  Ewald energy   TEWEN  =      5369.68871859
  -Hartree energ DENC   =     -6517.28909844
  -exchange      EXHF   =         0.00000000
  -V(xc)+E(xc)   XCENC  =       170.95782747
  PAW double counting   =      4190.51541328    -4197.63392333
  entropy T*S    EENTRO =        -0.00000000
  eigenvalues    EBANDS =      -647.27146970
  atomic energy  EATOM  =      1621.32137526
  Solvation  Ediel_sol  =      -115.43059499
  ---------------------------------------------------
  free energy    TOTEN  =      -124.95113872 eV

  energy without entropy =     -124.95113872  energy(sigma->0) =     -124.95113872


--------------------------------------------------------------------------------------------------------




--------------------------------------- Iteration      1(   9)  ---------------------------------------


    POTLOK:  cpu time    526.6564: real time    526.6660
    SETDIJ:  cpu time      0.0320: real time      0.0320
    EDDIAG:  cpu time      5.3495: real time      5.3495
  RMM-DIIS:  cpu time      8.8172: real time      8.8171
    ORTHCH:  cpu time      1.0107: real time      1.0106
       DOS:  cpu time      0.2029: real time      0.2029
    CHARGE:  cpu time      2.7899: real time      2.7899
    MIXING:  cpu time      0.1300: real time      0.1300
    --------------------------------------------
      LOOP:  cpu time    544.9886: real time    544.9981

 eigenvalue-minimisations  :   202
 total energy-change (2. order) :-0.1815719E+01  (-0.1293806E+00)
 number of electron      50.9999998 magnetization      12.2163234
 augmentation part        1.1828132 magnetization      11.2582189

 Broyden mixing:
  rms(total) = 0.10967E+00    rms(broyden)= 0.10966E+00
  rms(prec ) = 0.11114E+00
  weight for this iteration     100.00

 eigenvalues of (default mixing * dielectric matrix)
  average eigenvalue GAMMA=   1.5470
  4.5262  2.2789  1.6244  0.9750  0.7885  0.7885  0.6174  0.7774

 Free energy of the ion-electron system (eV)
  ---------------------------------------------------
  alpha Z        PSCENC =         0.19061315
  Ewald energy   TEWEN  =      5369.68871859
  -Hartree energ DENC   =     -6496.97023598
  -exchange      EXHF   =         0.00000000
  -V(xc)+E(xc)   XCENC  =       169.26626333
  PAW double counting   =      4140.82713442    -4147.92705730
  entropy T*S    EENTRO =        -0.00000000
  eigenvalues    EBANDS =      -657.05072988
  atomic energy  EATOM  =      1621.32137526
  Solvation  Ediel_sol  =      -126.11293958
  ---------------------------------------------------
  free energy    TOTEN  =      -126.76685800 eV

  energy without entropy =     -126.76685800  energy(sigma->0) =     -126.76685800


--------------------------------------------------------------------------------------------------------




--------------------------------------- Iteration      1(  10)  ---------------------------------------


    POTLOK:  cpu time    497.5410: real time    497.5511
    SETDIJ:  cpu time      0.0299: real time      0.0299
    EDDIAG:  cpu time      5.6973: real time      5.6973
  RMM-DIIS:  cpu time      8.5166: real time      8.5166
    ORTHCH:  cpu time      1.4731: real time      1.4731
       DOS:  cpu time      0.1842: real time      0.1842
    CHARGE:  cpu time      3.1633: real time      3.1633
    MIXING:  cpu time      0.1391: real time      0.1391
    --------------------------------------------
      LOOP:  cpu time    516.7444: real time    516.7544

 eigenvalue-minimisations  :   192
 total energy-change (2. order) :-0.6050749E+00  (-0.1289556E-01)
 number of electron      50.9999998 magnetization      10.7661123
 augmentation part        1.1833256 magnetization       9.8116124

 Broyden mixing:
  rms(total) = 0.80310E-01    rms(broyden)= 0.80306E-01
  rms(prec ) = 0.81305E-01
  weight for this iteration     100.00

 eigenvalues of (default mixing * dielectric matrix)
  average eigenvalue GAMMA=   1.6336
  5.4831  1.8854  1.8854  1.5873  0.8385  0.8385  0.8590  0.6126  0.7126

 Free energy of the ion-electron system (eV)
  ---------------------------------------------------
  alpha Z        PSCENC =         0.19061315
  Ewald energy   TEWEN  =      5369.68871859
  -Hartree energ DENC   =     -6493.71983526
  -exchange      EXHF   =         0.00000000
  -V(xc)+E(xc)   XCENC  =       168.71940778
  PAW double counting   =      4166.75552774    -4173.85727507
  entropy T*S    EENTRO =        -0.00000000
  eigenvalues    EBANDS =      -657.32743624
  atomic energy  EATOM  =      1621.32137526
  Solvation  Ediel_sol  =      -129.14302886
  ---------------------------------------------------
  free energy    TOTEN  =      -127.37193292 eV

  energy without entropy =     -127.37193292  energy(sigma->0) =     -127.37193292


--------------------------------------------------------------------------------------------------------




--------------------------------------- Iteration      1(  11)  ---------------------------------------


    POTLOK:  cpu time    528.8432: real time    528.8524
    SETDIJ:  cpu time      0.0290: real time      0.0289
    EDDIAG:  cpu time      5.9667: real time      5.9668
  RMM-DIIS:  cpu time      8.5051: real time      8.5051
    ORTHCH:  cpu time      1.2879: real time      1.2879
       DOS:  cpu time      0.1857: real time      0.1857
    CHARGE:  cpu time      2.9920: real time      2.9920
    MIXING:  cpu time      0.1599: real time      0.1599
    --------------------------------------------
      LOOP:  cpu time    547.9694: real time    547.9787

 eigenvalue-minimisations  :   193
 total energy-change (2. order) :-0.5958593E+00  (-0.1471636E-01)
 number of electron      50.9999998 magnetization       9.9012632
 augmentation part        1.1836833 magnetization       8.9492050

 Broyden mixing:
  rms(total) = 0.58936E-01    rms(broyden)= 0.58933E-01
  rms(prec ) = 0.59538E-01
  weight for this iteration     100.00

 eigenvalues of (default mixing * dielectric matrix)
  average eigenvalue GAMMA=   1.7776
  6.9798  2.3108  2.3108  1.2626  1.0246  1.0246  0.7805  0.7805  0.6159  0.6859

 Free energy of the ion-electron system (eV)
  ---------------------------------------------------
  alpha Z        PSCENC =         0.19061315
  Ewald energy   TEWEN  =      5369.68871859
  -Hartree energ DENC   =     -6485.13424158
  -exchange      EXHF   =         0.00000000
  -V(xc)+E(xc)   XCENC  =       168.08877623
  PAW double counting   =      4162.29083116    -4169.41331240
  entropy T*S    EENTRO =        -0.00000000
  eigenvalues    EBANDS =      -659.38969138
  atomic energy  EATOM  =      1621.32137526
  Solvation  Ediel_sol  =      -135.61086126
  ---------------------------------------------------
  free energy    TOTEN  =      -127.96779224 eV

  energy without entropy =     -127.96779224  energy(sigma->0) =     -127.96779224


--------------------------------------------------------------------------------------------------------




--------------------------------------- Iteration      1(  12)  ---------------------------------------


    POTLOK:  cpu time    518.1463: real time    518.1547
    SETDIJ:  cpu time      0.0340: real time      0.0340
    EDDIAG:  cpu time      5.6112: real time      5.6112
  RMM-DIIS:  cpu time      8.7859: real time      8.7860
    ORTHCH:  cpu time      1.1869: real time      1.1869
       DOS:  cpu time      0.0213: real time      0.0213
    CHARGE:  cpu time      2.8055: real time      2.8055
    MIXING:  cpu time      0.1523: real time      0.1523
    --------------------------------------------
      LOOP:  cpu time    536.7434: real time    536.7520

 eigenvalue-minimisations  :   195
 total energy-change (2. order) :-0.2127446E+00  (-0.5519359E-02)
 number of electron      50.9999998 magnetization       9.0599007
 augmentation part        1.1829001 magnetization       8.1093416

 Broyden mixing:
  rms(total) = 0.46809E-01    rms(broyden)= 0.46808E-01
  rms(prec ) = 0.47152E-01
  weight for this iteration     100.00

 eigenvalues of (default mixing * dielectric matrix)
  average eigenvalue GAMMA=   1.7707
  7.4326  2.1489  2.0791  1.5416  1.5416  1.0614  0.8131  0.8131  0.7853  0.6502
  0.6110

 Free energy of the ion-electron system (eV)
  ---------------------------------------------------
  alpha Z        PSCENC =         0.19061315
  Ewald energy   TEWEN  =      5369.68871859
  -Hartree energ DENC   =     -6480.90063476
  -exchange      EXHF   =         0.00000000
  -V(xc)+E(xc)   XCENC  =       167.83434830
  PAW double counting   =      4147.10193380    -4154.24121843
  entropy T*S    EENTRO =        -0.00000000
  eigenvalues    EBANDS =      -660.20212845
  atomic energy  EATOM  =      1621.32137526
  Solvation  Ediel_sol  =      -138.97354430
  ---------------------------------------------------
  free energy    TOTEN  =      -128.18053685 eV

  energy without entropy =     -128.18053685  energy(sigma->0) =     -128.18053685


--------------------------------------------------------------------------------------------------------




--------------------------------------- Iteration      1(  13)  ---------------------------------------


    POTLOK:  cpu time    484.6377: real time    484.6468
    SETDIJ:  cpu time      0.0294: real time      0.0294
    EDDIAG:  cpu time      5.4586: real time      5.4586
  RMM-DIIS:  cpu time      8.5235: real time      8.5234
    ORTHCH:  cpu time      1.1868: real time      1.1868
       DOS:  cpu time      0.3990: real time      0.3990
    CHARGE:  cpu time      3.5818: real time      3.5818
    MIXING:  cpu time      0.1630: real time      0.1630
    --------------------------------------------
      LOOP:  cpu time    503.9798: real time    503.9888

 eigenvalue-minimisations  :   195
 total energy-change (2. order) :-0.1680042E+00  (-0.2803958E-02)
 number of electron      50.9999998 magnetization       7.5612592
 augmentation part        1.1824685 magnetization       6.6120490

 Broyden mixing:
  rms(total) = 0.38753E-01    rms(broyden)= 0.38752E-01
  rms(prec ) = 0.38907E-01
  weight for this iteration     100.00

 eigenvalues of (default mixing * dielectric matrix)
  average eigenvalue GAMMA=   1.8991
  8.3506  2.9527  2.2209  2.2209  1.2098  1.2098  1.0645  0.8048  0.7577  0.7577
  0.6290  0.6115

 Free energy of the ion-electron system (eV)
  ---------------------------------------------------
  alpha Z        PSCENC =         0.19061315
  Ewald energy   TEWEN  =      5369.68871859
  -Hartree energ DENC   =     -6477.58998145
  -exchange      EXHF   =         0.00000000
  -V(xc)+E(xc)   XCENC  =       167.63593169
  PAW double counting   =      4149.21826599    -4156.34950882
  entropy T*S    EENTRO =        -0.00000000
  eigenvalues    EBANDS =      -660.86776682
  atomic energy  EATOM  =      1621.32137526
  Solvation  Ediel_sol  =      -141.59618867
  ---------------------------------------------------
  free energy    TOTEN  =      -128.34854109 eV

  energy without entropy =     -128.34854109  energy(sigma->0) =     -128.34854109


--------------------------------------------------------------------------------------------------------




--------------------------------------- Iteration      1(  14)  ---------------------------------------


    POTLOK:  cpu time    501.6903: real time    501.7021
    SETDIJ:  cpu time      0.0410: real time      0.0410
    EDDIAG:  cpu time      5.7759: real time      5.7759
  RMM-DIIS:  cpu time      8.6130: real time      8.6131
    ORTHCH:  cpu time      1.3771: real time      1.3771
       DOS:  cpu time      0.1913: real time      0.1912
    CHARGE:  cpu time      3.1590: real time      3.1592
    MIXING:  cpu time      0.1845: real time      0.1845
    --------------------------------------------
      LOOP:  cpu time    521.0321: real time    521.0441

 eigenvalue-minimisations  :   193
 total energy-change (2. order) :-0.7153598E-01  (-0.6634432E-03)
 number of electron      50.9999998 magnetization       7.0380783
 augmentation part        1.1822957 magnetization       6.0891520

 Broyden mixing:
  rms(total) = 0.28979E-01    rms(broyden)= 0.28979E-01
  rms(prec ) = 0.29057E-01
  weight for this iteration     100.00

 eigenvalues of (default mixing * dielectric matrix)
  average eigenvalue GAMMA=   1.9564
  9.1498  4.0864  2.1121  2.1121  1.2887  1.2887  1.0603  0.8119  0.8119  0.7683
  0.6975  0.6227  0.6227

 Free energy of the ion-electron system (eV)
  ---------------------------------------------------
  alpha Z        PSCENC =         0.19061315
  Ewald energy   TEWEN  =      5369.68871859
  -Hartree energ DENC   =     -6473.40797644
  -exchange      EXHF   =         0.00000000
  -V(xc)+E(xc)   XCENC  =       167.56341743
  PAW double counting   =      4165.38897856    -4172.52089351
  entropy T*S    EENTRO =        -0.00000000
  eigenvalues    EBANDS =      -660.62280969
  atomic energy  EATOM  =      1621.32137526
  Solvation  Ediel_sol  =      -146.02150042
  ---------------------------------------------------
  free energy    TOTEN  =      -128.42007707 eV

  energy without entropy =     -128.42007707  energy(sigma->0) =     -128.42007707


--------------------------------------------------------------------------------------------------------




--------------------------------------- Iteration      1(  15)  ---------------------------------------


    POTLOK:  cpu time    458.2602: real time    458.2653
    SETDIJ:  cpu time      0.0286: real time      0.0286
    EDDIAG:  cpu time      5.6242: real time      5.6242
  RMM-DIIS:  cpu time      8.3281: real time      8.3280
    ORTHCH:  cpu time      1.4147: real time      1.4147
       DOS:  cpu time      0.0326: real time      0.0326
    CHARGE:  cpu time      2.9767: real time      2.9767
    MIXING:  cpu time      0.1782: real time      0.1782
    --------------------------------------------
      LOOP:  cpu time    476.8433: real time    476.8483

 eigenvalue-minimisations  :   193
 total energy-change (2. order) :-0.4299346E-01  (-0.1901413E-03)
 number of electron      50.9999998 magnetization       5.7713344
 augmentation part        1.1823260 magnetization       4.8226900

 Broyden mixing:
  rms(total) = 0.25821E-01    rms(broyden)= 0.25821E-01
  rms(prec ) = 0.25857E-01
  weight for this iteration     100.00

 eigenvalues of (default mixing * dielectric matrix)
  average eigenvalue GAMMA=   1.9764
  9.5792  4.4515  2.1568  2.1568  1.4430  1.4430  1.0138  1.0138  0.8857  0.7957
  0.7432  0.7432  0.6219  0.6219

 Free energy of the ion-electron system (eV)
  ---------------------------------------------------
  alpha Z        PSCENC =         0.19061315
  Ewald energy   TEWEN  =      5369.68871859
  -Hartree energ DENC   =     -6472.29176901
  -exchange      EXHF   =         0.00000000
  -V(xc)+E(xc)   XCENC  =       167.50146159
  PAW double counting   =      4162.33623625    -4169.46850362
  entropy T*S    EENTRO =        -0.00000000
  eigenvalues    EBANDS =      -660.84383501
  atomic energy  EATOM  =      1621.32137526
  Solvation  Ediel_sol  =      -146.89736772
  ---------------------------------------------------
  free energy    TOTEN  =      -128.46307053 eV

  energy without entropy =     -128.46307053  energy(sigma->0) =     -128.46307053


--------------------------------------------------------------------------------------------------------




--------------------------------------- Iteration      1(  16)  ---------------------------------------


    POTLOK:  cpu time    499.0100: real time    499.0212
    SETDIJ:  cpu time      0.0330: real time      0.0330
    EDDIAG:  cpu time      5.7705: real time      5.7705
  RMM-DIIS:  cpu time      8.2563: real time      8.2563
    ORTHCH:  cpu time      0.9653: real time      0.9653
       DOS:  cpu time      0.1824: real time      0.1824
    CHARGE:  cpu time      3.1830: real time      3.1830
    MIXING:  cpu time      0.1886: real time      0.1886
    --------------------------------------------
      LOOP:  cpu time    517.5890: real time    517.6004

 eigenvalue-minimisations  :   192
 total energy-change (2. order) :-0.3430710E-01  (-0.4686334E-03)
 number of electron      50.9999998 magnetization       4.7768752
 augmentation part        1.1829004 magnetization       3.8286203

 Broyden mixing:
  rms(total) = 0.22064E-01    rms(broyden)= 0.22064E-01
  rms(prec ) = 0.22193E-01
  weight for this iteration     100.00

 eigenvalues of (default mixing * dielectric matrix)
  average eigenvalue GAMMA=   2.0960
 10.3749  5.5013  2.5956  2.1332  2.1332  1.2583  1.2583  1.0818  0.8407  0.8407
  0.7597  0.7597  0.6663  0.6149  0.6213

 Free energy of the ion-electron system (eV)
  ---------------------------------------------------
  alpha Z        PSCENC =         0.19061315
  Ewald energy   TEWEN  =      5369.68871859
  -Hartree energ DENC   =     -6470.66763482
  -exchange      EXHF   =         0.00000000
  -V(xc)+E(xc)   XCENC  =       167.43085663
  PAW double counting   =      4157.87037693    -4164.99502523
  entropy T*S    EENTRO =        -0.00000000
  eigenvalues    EBANDS =      -661.43274044
  atomic energy  EATOM  =      1621.32137526
  Solvation  Ediel_sol  =      -147.90391769
  ---------------------------------------------------
  free energy    TOTEN  =      -128.49737763 eV

  energy without entropy =     -128.49737763  energy(sigma->0) =     -128.49737763


--------------------------------------------------------------------------------------------------------




--------------------------------------- Iteration      1(  17)  ---------------------------------------


    POTLOK:  cpu time    477.9249: real time    477.9345
    SETDIJ:  cpu time      0.0297: real time      0.0297
    EDDIAG:  cpu time      5.7347: real time      5.7346
  RMM-DIIS:  cpu time      8.3468: real time      8.3468
    ORTHCH:  cpu time      1.2760: real time      1.2760
       DOS:  cpu time      0.1638: real time      0.1638
    CHARGE:  cpu time      2.7625: real time      2.7625
    MIXING:  cpu time      0.1994: real time      0.1993
    --------------------------------------------
      LOOP:  cpu time    496.4377: real time    496.4471

 eigenvalue-minimisations  :   192
 total energy-change (2. order) :-0.8197659E-02  (-0.7144320E-04)
 number of electron      50.9999998 magnetization       3.7887064
 augmentation part        1.1829446 magnetization       2.8404930

 Broyden mixing:
  rms(total) = 0.18590E-01    rms(broyden)= 0.18590E-01
  rms(prec ) = 0.18707E-01
  weight for this iteration     100.00

 eigenvalues of (default mixing * dielectric matrix)
  average eigenvalue GAMMA=   2.1107
 10.7964  6.0109  2.8775  2.1799  2.1799  1.3010  1.3010  1.0985  0.9368  0.9368
  0.8020  0.7350  0.7350  0.6175  0.6175  0.6449

 Free energy of the ion-electron system (eV)
  ---------------------------------------------------
  alpha Z        PSCENC =         0.19061315
  Ewald energy   TEWEN  =      5369.68871859
  -Hartree energ DENC   =     -6470.26823713
  -exchange      EXHF   =         0.00000000
  -V(xc)+E(xc)   XCENC  =       167.43299210
  PAW double counting   =      4162.44747688    -4169.57142340
  entropy T*S    EENTRO =        -0.00000000
  eigenvalues    EBANDS =      -661.10665769
  atomic energy  EATOM  =      1621.32137526
  Solvation  Ediel_sol  =      -148.64043304
  ---------------------------------------------------
  free energy    TOTEN  =      -128.50557529 eV

  energy without entropy =     -128.50557529  energy(sigma->0) =     -128.50557529


--------------------------------------------------------------------------------------------------------




--------------------------------------- Iteration      1(  18)  ---------------------------------------


    POTLOK:  cpu time    463.6667: real time    463.6765
    SETDIJ:  cpu time      0.0313: real time      0.0313
    EDDIAG:  cpu time      5.6008: real time      5.6008
  RMM-DIIS:  cpu time      8.3255: real time      8.3256
    ORTHCH:  cpu time      1.5484: real time      1.5484
       DOS:  cpu time      0.0400: real time      0.0400
    CHARGE:  cpu time      3.9498: real time      3.9498
    MIXING:  cpu time      0.2049: real time      0.2049
    --------------------------------------------
      LOOP:  cpu time    483.3673: real time    483.3772

 eigenvalue-minimisations  :   193
 total energy-change (2. order) :-0.1097526E-01  (-0.4983728E-03)
 number of electron      50.9999998 magnetization       2.5145912
 augmentation part        1.1824598 magnetization       1.5664514

 Broyden mixing:
  rms(total) = 0.15879E-01    rms(broyden)= 0.15879E-01
  rms(prec ) = 0.16021E-01
  weight for this iteration     100.00

 eigenvalues of (default mixing * dielectric matrix)
  average eigenvalue GAMMA=   2.2731
 12.1172  7.1761  3.8135  2.1772  2.1772  1.6146  1.2828  1.2828  0.9661  0.9661
  0.9373  0.7588  0.7588  0.7430  0.6206  0.6206  0.6300

 Free energy of the ion-electron system (eV)
  ---------------------------------------------------
  alpha Z        PSCENC =         0.19061315
  Ewald energy   TEWEN  =      5369.68871859
  -Hartree energ DENC   =     -6470.91332719
  -exchange      EXHF   =         0.00000000
  -V(xc)+E(xc)   XCENC  =       167.44203010
  PAW double counting   =      4159.55553001    -4166.68837607
  entropy T*S    EENTRO =        -0.00000000
  eigenvalues    EBANDS =      -660.56148440
  atomic energy  EATOM  =      1621.32137526
  Solvation  Ediel_sol  =      -148.55163000
  ---------------------------------------------------
  free energy    TOTEN  =      -128.51655055 eV

  energy without entropy =     -128.51655055  energy(sigma->0) =     -128.51655055


--------------------------------------------------------------------------------------------------------




--------------------------------------- Iteration      1(  19)  ---------------------------------------


    POTLOK:  cpu time    469.8074: real time    469.8165
    SETDIJ:  cpu time      0.0300: real time      0.0300
    EDDIAG:  cpu time      5.3046: real time      5.3046
  RMM-DIIS:  cpu time      8.8097: real time      8.8097
    ORTHCH:  cpu time      1.5439: real time      1.5439
       DOS:  cpu time      0.0388: real time      0.0388
    CHARGE:  cpu time      3.7696: real time      3.7696
    MIXING:  cpu time      0.2151: real time      0.2151
    --------------------------------------------
      LOOP:  cpu time    489.5191: real time    489.5282

 eigenvalue-minimisations  :   195
 total energy-change (2. order) :-0.1181781E-01  (-0.1814385E-03)
 number of electron      50.9999998 magnetization       1.7716761
 augmentation part        1.1823699 magnetization       0.8236301

 Broyden mixing:
  rms(total) = 0.14366E-01    rms(broyden)= 0.14366E-01
  rms(prec ) = 0.14561E-01
  weight for this iteration     100.00

 eigenvalues of (default mixing * dielectric matrix)
  average eigenvalue GAMMA=   2.3989
 13.8722  8.0816  4.3032  2.2737  2.2737  2.0020  1.2603  1.2603  1.1288  0.9069
  0.9069  0.7518  0.7518  0.7899  0.7448  0.6400  0.6115  0.6215

 Free energy of the ion-electron system (eV)
  ---------------------------------------------------
  alpha Z        PSCENC =         0.19061315
  Ewald energy   TEWEN  =      5369.68871859
  -Hartree energ DENC   =     -6471.31332439
  -exchange      EXHF   =         0.00000000
  -V(xc)+E(xc)   XCENC  =       167.43122023
  PAW double counting   =      4154.64259074    -4161.77784230
  entropy T*S    EENTRO =        -0.00000000
  eigenvalues    EBANDS =      -660.59571849
  atomic energy  EATOM  =      1621.32137526
  Solvation  Ediel_sol  =      -148.11600114
  ---------------------------------------------------
  free energy    TOTEN  =      -128.52836835 eV

  energy without entropy =     -128.52836835  energy(sigma->0) =     -128.52836835


--------------------------------------------------------------------------------------------------------




--------------------------------------- Iteration      1(  20)  ---------------------------------------


    POTLOK:  cpu time    465.2813: real time    465.2901
    SETDIJ:  cpu time      0.0311: real time      0.0311
    EDDIAG:  cpu time      5.9577: real time      5.9576
  RMM-DIIS:  cpu time      8.7190: real time      8.7189
    ORTHCH:  cpu time      1.2958: real time      1.2958
       DOS:  cpu time      0.2079: real time      0.2079
    CHARGE:  cpu time      3.1801: real time      3.1801
    MIXING:  cpu time      0.2238: real time      0.2238
    --------------------------------------------
      LOOP:  cpu time    484.8967: real time    484.9054

 eigenvalue-minimisations  :   194
 total energy-change (2. order) :-0.8730929E-02  (-0.1691810E-03)
 number of electron      50.9999998 magnetization       1.3081508
 augmentation part        1.1823703 magnetization       0.3601500

 Broyden mixing:
  rms(total) = 0.62365E-02    rms(broyden)= 0.62364E-02
  rms(prec ) = 0.63140E-02
  weight for this iteration     100.00

 eigenvalues of (default mixing * dielectric matrix)
  average eigenvalue GAMMA=   2.7050
 18.6389  9.0234  4.9661  2.5681  2.2732  2.2732  1.3141  1.3141  1.2176  0.9883
  0.9883  0.9488  0.8077  0.7484  0.7484  0.7124  0.6290  0.6248  0.6096

 Free energy of the ion-electron system (eV)
  ---------------------------------------------------
  alpha Z        PSCENC =         0.19061315
  Ewald energy   TEWEN  =      5369.68871859
  -Hartree energ DENC   =     -6471.72677256
  -exchange      EXHF   =         0.00000000
  -V(xc)+E(xc)   XCENC  =       167.42872461
  PAW double counting   =      4158.09107878    -4165.22454601
  entropy T*S    EENTRO =        -0.00000000
  eigenvalues    EBANDS =      -660.59374241
  atomic energy  EATOM  =      1621.32137526
  Solvation  Ediel_sol  =      -147.71254868
  ---------------------------------------------------
  free energy    TOTEN  =      -128.53709928 eV

  energy without entropy =     -128.53709928  energy(sigma->0) =     -128.53709928


--------------------------------------------------------------------------------------------------------




--------------------------------------- Iteration      1(  21)  ---------------------------------------


    POTLOK:  cpu time    440.7476: real time    440.7571
    SETDIJ:  cpu time      0.0298: real time      0.0298
    EDDIAG:  cpu time      5.4783: real time      5.4783
  RMM-DIIS:  cpu time      8.3830: real time      8.3831
    ORTHCH:  cpu time      1.4470: real time      1.4470
       DOS:  cpu time      0.1607: real time      0.1607
    CHARGE:  cpu time      3.3588: real time      3.3588
    MIXING:  cpu time      0.2549: real time      0.2549
    --------------------------------------------
      LOOP:  cpu time    459.8601: real time    459.8696

 eigenvalue-minimisations  :   196
 total energy-change (2. order) :-0.1567863E-01  (-0.1581369E-03)
 number of electron      50.9999998 magnetization       1.1587988
 augmentation part        1.1825592 magnetization       0.2107818

 Broyden mixing:
  rms(total) = 0.65680E-02    rms(broyden)= 0.65675E-02
  rms(prec ) = 0.66813E-02
  weight for this iteration     100.00

 eigenvalues of (default mixing * dielectric matrix)
  average eigenvalue GAMMA=   2.7915
 21.3431  9.3079  5.1894  2.8008  2.2532  2.2532  1.4656  1.2664  1.2664  0.9444
  0.9444  0.9419  0.9419  0.8425  0.7536  0.7536  0.7028  0.6212  0.6212  0.6172

 Free energy of the ion-electron system (eV)
  ---------------------------------------------------
  alpha Z        PSCENC =         0.19061315
  Ewald energy   TEWEN  =      5369.68871859
  -Hartree energ DENC   =     -6471.90678913
  -exchange      EXHF   =         0.00000000
  -V(xc)+E(xc)   XCENC  =       167.40965609
  PAW double counting   =      4160.54776391    -4167.67689054
  entropy T*S    EENTRO =        -0.00000000
  eigenvalues    EBANDS =      -660.79250728
  atomic energy  EATOM  =      1621.32137526
  Solvation  Ediel_sol  =      -147.33471794
  ---------------------------------------------------
  free energy    TOTEN  =      -128.55277791 eV

  energy without entropy =     -128.55277791  energy(sigma->0) =     -128.55277791


--------------------------------------------------------------------------------------------------------




--------------------------------------- Iteration      1(  22)  ---------------------------------------


    POTLOK:  cpu time    423.2108: real time    423.2203
    SETDIJ:  cpu time      0.0326: real time      0.0326
    EDDIAG:  cpu time      5.7351: real time      5.7351
  RMM-DIIS:  cpu time      8.3199: real time      8.3199
    ORTHCH:  cpu time      1.5787: real time      1.5787
       DOS:  cpu time      0.1952: real time      0.1952
    CHARGE:  cpu time      3.1828: real time      3.1849
    MIXING:  cpu time      0.2416: real time      0.2416
    --------------------------------------------
      LOOP:  cpu time    442.4966: real time    442.5083

 eigenvalue-minimisations  :   192
 total energy-change (2. order) :-0.8938788E-02  (-0.2468008E-04)
 number of electron      50.9999998 magnetization       1.0729874
 augmentation part        1.1826059 magnetization       0.1249828

 Broyden mixing:
  rms(total) = 0.41422E-02    rms(broyden)= 0.41421E-02
  rms(prec ) = 0.42113E-02
  weight for this iteration     100.00

 eigenvalues of (default mixing * dielectric matrix)
  average eigenvalue GAMMA=   2.8612
 23.4933  9.4817  5.3846  3.0954  2.2344  2.2344  1.8593  1.2838  1.2838  1.1594
  0.9828  0.9828  0.9405  0.7657  0.7657  0.7880  0.7880  0.6995  0.6226  0.6226
  0.6166

 Free energy of the ion-electron system (eV)
  ---------------------------------------------------
  alpha Z        PSCENC =         0.19061315
  Ewald energy   TEWEN  =      5369.68871859
  -Hartree energ DENC   =     -6472.02310665
  -exchange      EXHF   =         0.00000000
  -V(xc)+E(xc)   XCENC  =       167.39886231
  PAW double counting   =      4160.73973630    -4167.86772332
  entropy T*S    EENTRO =        -0.00000000
  eigenvalues    EBANDS =      -660.85381668
  atomic energy  EATOM  =      1621.32137526
  Solvation  Ediel_sol  =      -147.15637566
  ---------------------------------------------------
  free energy    TOTEN  =      -128.56171670 eV

  energy without entropy =     -128.56171670  energy(sigma->0) =     -128.56171670


--------------------------------------------------------------------------------------------------------




--------------------------------------- Iteration      1(  23)  ---------------------------------------


    POTLOK:  cpu time    440.9785: real time    440.9840
    SETDIJ:  cpu time      0.0348: real time      0.0348
    EDDIAG:  cpu time      5.9487: real time      5.9487
  RMM-DIIS:  cpu time      8.3124: real time      8.3123
    ORTHCH:  cpu time      1.3431: real time      1.3431
[...]
  entropy T*S    EENTRO =        -0.00000000
  eigenvalues    EBANDS =      -660.58641827
  atomic energy  EATOM  =      1621.32137526
  Solvation  Ediel_sol  =      -146.66051431
  ---------------------------------------------------
  free energy    TOTEN  =      -128.58137912 eV

  energy without entropy =     -128.58137912  energy(sigma->0) =     -128.58137912


--------------------------------------------------------------------------------------------------------




--------------------------------------- Iteration      6(   2)  ---------------------------------------


    POTLOK:  cpu time    421.4021: real time    421.4276
    SETDIJ:  cpu time      0.0297: real time      0.0297
    EDDIAG:  cpu time      5.1227: real time      5.1231
  RMM-DIIS:  cpu time      8.2338: real time      8.2338
    ORTHCH:  cpu time      1.4412: real time      1.4412
       DOS:  cpu time      0.2069: real time      0.2069
    --------------------------------------------
      LOOP:  cpu time    436.4364: real time    436.4623

 eigenvalue-minimisations  :   189
 total energy-change (2. order) : 0.1935065E-05  (-0.5511391E-05)
 number of electron      50.9999998 magnetization       1.0000003
 augmentation part        1.1809561 magnetization       0.0520104

 Free energy of the ion-electron system (eV)
  ---------------------------------------------------
  alpha Z        PSCENC =         0.19061315
  Ewald energy   TEWEN  =      5366.21225291
  -Hartree energ DENC   =     -6469.24089360
  -exchange      EXHF   =         0.00000000
  -V(xc)+E(xc)   XCENC  =       167.32175149
  PAW double counting   =      4149.68350291    -4156.80849243
  entropy T*S    EENTRO =        -0.00000000
  eigenvalues    EBANDS =      -660.60011274
  atomic energy  EATOM  =      1621.32137526
  Solvation  Ediel_sol  =      -146.66137412
  ---------------------------------------------------
  free energy    TOTEN  =      -128.58137718 eV

  energy without entropy =     -128.58137718  energy(sigma->0) =     -128.58137718


--------------------------------------------------------------------------------------------------------




 average (electrostatic) potential at core
  the test charge radii are     0.6991  0.5201
  (the norm of the test charge is              1.0000)
       1 -59.9112       2 -60.4064       3 -59.6772       4 -60.0167       5 -60.4328
       6 -59.6429       7 -58.9695       8 -58.7940       9 -60.0580      10 -59.9545
      11 -42.6298      12 -42.1964      13 -42.4271      14 -42.4271      15 -42.1787
      16 -42.1785      17 -42.0703      18 -42.6972      19 -42.8895      20 -42.7830
      21 -42.7758      22 -42.8581
 
 
 
 E-fermi :  -6.4220     XC(G=0):  -0.0435     alpha+bet : -0.0208

 Fermi energy:        -6.4219847608

 spin component 1

 k-point     1 :       0.0000    0.0000    0.0000
  band No.  band energies     occupation 
      1     -22.5845      1.00000
      2     -21.0577      1.00000
      3     -19.8912      1.00000
      4     -19.5021      1.00000
      5     -18.0447      1.00000
      6     -17.2790      1.00000
      7     -15.8345      1.00000
      8     -15.5580      1.00000
      9     -14.1606      1.00000
     10     -13.1257      1.00000
     11     -12.6805      1.00000
     12     -11.8194      1.00000
     13     -11.3338      1.00000
     14     -11.2164      1.00000
     15     -10.9248      1.00000
     16     -10.7476      1.00000
     17     -10.1265      1.00000
     18      -9.9764      1.00000
     19      -9.8964      1.00000
     20      -9.8076      1.00000
     21      -9.5012      1.00000
     22      -8.9646      1.00000
     23      -8.7250      1.00000
     24      -8.3503      1.00000
     25      -7.1642      1.00000
     26      -6.6821      1.00000
     27      -3.3960      0.00000
     28      -1.9956      0.00000
     29      -1.0139      0.00000
     30      -0.5172      0.00000
     31      -0.2225      0.00000
     32      -0.1234      0.00000
     33       0.0203      0.00000
     34       0.0662      0.00000
     35       0.1015      0.00000
     36       0.1046      0.00000
     37       0.1157      0.00000
     38       0.1186      0.00000
     39       0.1332      0.00000
     40       0.1429      0.00000
     41       0.1787      0.00000
     42       0.1872      0.00000
     43       0.1941      0.00000
     44       0.1946      0.00000
     45       0.1964      0.00000
     46       0.2025      0.00000
     47       0.2026      0.00000
     48       0.2044      0.00000
 Fermi energy:        -6.4219847608

 spin component 2

 k-point     1 :       0.0000    0.0000    0.0000
  band No.  band energies     occupation 
      1     -22.4435      1.00000
      2     -20.8830      1.00000
      3     -19.8478      1.00000
      4     -19.3036      1.00000
      5     -17.9547      1.00000
      6     -17.1674      1.00000
      7     -15.7291      1.00000
      8     -15.4696      1.00000
      9     -14.0601      1.00000
     10     -13.0828      1.00000
     11     -12.6191      1.00000
     12     -11.7521      1.00000
     13     -11.1585      1.00000
     14     -11.1280      1.00000
     15     -10.8691      1.00000
     16     -10.7236      1.00000
     17     -10.0228      1.00000
     18      -9.8513      1.00000
     19      -9.7971      1.00000
     20      -9.7076      1.00000
     21      -9.4608      1.00000
     22      -8.9414      1.00000
     23      -8.6773      1.00000
     24      -7.9593      1.00000
     25      -7.0357      1.00000
     26      -5.9688      0.00000
     27      -2.8109      0.00000
     28      -1.8227      0.00000
     29      -0.5832      0.00000
     30      -0.4923      0.00000
     31      -0.1705      0.00000
     32      -0.1155      0.00000
     33       0.0203      0.00000
     34       0.0791      0.00000
     35       0.1011      0.00000
     36       0.1043      0.00000
     37       0.1161      0.00000
     38       0.1182      0.00000
     39       0.1340      0.00000
     40       0.1503      0.00000
     41       0.1835      0.00000
     42       0.1915      0.00000
     43       0.1928      0.00000
     44       0.1951      0.00000
     45       0.1962      0.00000
     46       0.2004      0.00000
     47       0.2011      0.00000
     48       0.2026      0.00000


--------------------------------------------------------------------------------------------------------


 soft charge-density along one line, spin component           1
         0         1         2         3         4         5         6         7         8         9
 total charge-density along one line
 
 soft charge-density along one line, spin component           2
         0         1         2         3         4         5         6         7         8         9
 total charge-density along one line
 
 pseudopotential strength for first ion, spin component:           1
 10.335  13.746   0.002  -0.000  -0.001  -0.006   0.000   0.003
 13.746  18.283   0.003  -0.000  -0.001  -0.008   0.000   0.004
  0.002   0.003  -4.438  -0.000  -0.001   8.679   0.000   0.002
 -0.000  -0.000  -0.000  -4.446  -0.000   0.000   8.698   0.000
 -0.001  -0.001  -0.001  -0.000  -4.439   0.002   0.000   8.680
 -0.006  -0.008   8.679   0.000   0.002 -19.115  -0.000  -0.004
  0.000   0.000   0.000   8.698   0.000  -0.000 -19.158  -0.000
  0.003   0.004   0.002   0.000   8.680  -0.004  -0.000 -19.115
 pseudopotential strength for first ion, spin component:           2
 10.314  13.718   0.002  -0.000  -0.001  -0.007   0.000   0.003
 13.718  18.244   0.003  -0.000  -0.001  -0.009   0.000   0.004
  0.002   0.003  -4.439  -0.000  -0.002   8.684   0.000   0.003
 -0.000  -0.000  -0.000  -4.425  -0.000   0.000   8.665   0.000
 -0.001  -0.001  -0.002  -0.000  -4.439   0.003   0.000   8.684
 -0.007  -0.009   8.684   0.000   0.003 -19.133  -0.000  -0.005
  0.000   0.000   0.000   8.665   0.000  -0.000 -19.109  -0.000
  0.003   0.004   0.003   0.000   8.684  -0.005  -0.000 -19.130
 total augmentation occupancy for first ion, spin component:           1
  7.731  -3.331   0.078  -0.000  -0.248   0.022  -0.000  -0.046
 -3.331   1.481  -0.076   0.000   0.155  -0.015   0.000   0.027
  0.078  -0.076   1.765  -0.000   0.027   0.155  -0.000   0.009
 -0.000   0.000  -0.000   1.060   0.000  -0.000   0.059   0.000
 -0.248   0.155   0.027   0.000   1.865   0.009   0.000   0.164
  0.022  -0.015   0.155  -0.000   0.009   0.015  -0.000   0.002
 -0.000   0.000  -0.000   0.059   0.000  -0.000   0.004   0.000
 -0.046   0.027   0.009   0.000   0.164   0.002   0.000   0.015
 total augmentation occupancy for first ion, spin component:           2
  0.011  -0.003   0.006  -0.000   0.004   0.001  -0.000   0.001
 -0.003   0.001  -0.006   0.000  -0.003  -0.001   0.000  -0.001
  0.006  -0.006  -0.002   0.000  -0.001   0.000   0.000   0.000
 -0.000   0.000   0.000   0.134   0.000   0.000   0.004   0.000
  0.004  -0.003  -0.001   0.000   0.003   0.000  -0.000   0.000
  0.001  -0.001   0.000   0.000   0.000   0.000   0.000   0.000
 -0.000   0.000   0.000   0.004  -0.000   0.000   0.000  -0.000
  0.001  -0.001   0.000   0.000   0.000   0.000  -0.000  -0.000


------------------------ aborting loop because EDIFF is reached ----------------------------------------


    CHARGE:  cpu time      2.9870: real time      2.9870
    FORLOC:  cpu time      0.2771: real time      0.2771
    FORNL :  cpu time      3.8452: real time      3.8477
    STRESS:  cpu time     11.6131: real time     11.6130
    FORCOR:  cpu time     17.6737: real time     17.6735
    FORHAR:  cpu time      1.9504: real time      1.9504
    MIXING:  cpu time      0.0907: real time      0.0907
    OFIELD:  cpu time      0.0001: real time      0.0000

 ---------------------------------------------------------------------------------------------

         DFTD3 V3.0 Rev 1        
 Edisp (eV)   -0.24766

 E6    (eV) :    -0.1044
 E8    (eV) :    -0.1433
 % E8        : 57.85
    FORVDW:  cpu time      0.0113: real time      0.0115

  FORCE on cell =-STRESS in cart. coord.  units (eV):
  Direction    XX          YY          ZZ          XY          YZ          ZX
  --------------------------------------------------------------------------------------
  Alpha Z     0.19061     0.19061     0.19061
  Ewald    3460.40508  2160.86940  -255.06307   -40.29894    -0.03510    -0.01041
  Hartree  3391.60831  2314.19748   763.36923   -27.61045    -0.03810    -0.00422
  E(xc)    -182.04607  -182.32562  -186.91788    -0.01204     0.00010    -0.00004
  Local   -7315.35770 -4935.16514 -1029.61432    69.16059     0.07476     0.01406
  n-local   -69.22113   -71.11170   -61.68168    -0.50343    -0.00090     0.00012
  augment    -2.08736    -2.14112    -2.00540    -0.01425    -0.00000     0.00000
  Kinetic   716.94218   716.17355   770.63931    -0.61995    -0.00105     0.00003
  Fock        0.00000     0.00000     0.00000     0.00000     0.00000     0.00000
  vdW        -0.04113    -0.01220     0.00302    -0.00325    -0.00000    -0.00000
  -------------------------------------------------------------------------------------
  Total       0.39280     0.67526    -1.08017     0.09829    -0.00030    -0.00047
  in kB       0.00983     0.01690    -0.02704     0.00246    -0.00001    -0.00001
  external pressure =       -0.00 kB  Pullay stress =        0.00 kB


 VOLUME and BASIS-vectors are now :
 -----------------------------------------------------------------------------
  energy-cutoff  :      500.00
  volume of cell :    64000.00
      direct lattice vectors                 reciprocal lattice vectors
    40.000000000  0.000000000  0.000000000     0.025000000  0.000000000  0.000000000
     0.000000000 40.000000000  0.000000000     0.000000000  0.025000000  0.000000000
     0.000000000  0.000000000 40.000000000     0.000000000  0.000000000  0.025000000

  length of vectors
    40.000000000 40.000000000 40.000000000     0.025000000  0.025000000  0.025000000


 FORCES acting on ions
    electron-ion (+dipol)            ewald-force                    non-local-force                 convergence-correction
 -----------------------------------------------------------------------------------------------
   -.110E+03 0.157E+03 -.244E-01   0.111E+03 -.159E+03 0.247E-01   -.107E+01 0.214E+01 0.578E-04   -.664E-02 0.876E-02 -.110E-04
   -.850E+02 -.192E+02 -.157E-01   0.848E+02 0.192E+02 0.158E-01   0.218E-01 -.381E-02 0.394E-03   -.102E-01 -.869E-03 -.124E-03
   -.499E+02 -.172E+03 -.826E-02   0.495E+02 0.174E+03 0.878E-02   -.244E-01 -.233E+01 -.218E-02   -.429E-02 -.101E-01 -.699E-04
   0.659E+02 -.850E+02 0.982E-02   -.669E+02 0.867E+02 -.987E-02   0.892E+00 -.152E+01 0.355E-03   0.504E-02 -.169E-02 -.967E-04
   0.886E+02 0.629E+02 -.157E-02   -.897E+02 -.633E+02 0.135E-02   0.100E+01 0.375E+00 -.190E-04   0.389E-02 0.506E-03 0.996E-04
   0.242E+02 0.203E+03 -.116E-01   -.248E+02 -.205E+03 0.112E-01   0.452E+00 0.244E+01 -.178E-02   -.235E-02 0.611E-02 0.392E-03
   0.183E+03 0.882E+02 0.914E-02   -.185E+03 -.898E+02 -.926E-02   0.170E+01 0.139E+01 0.209E-03   0.138E-01 0.226E-02 0.337E-04
   0.127E+03 -.156E+03 0.137E-01   -.128E+03 0.159E+03 -.138E-01   0.996E+00 -.171E+01 0.918E-05   0.110E-01 -.615E-02 -.305E-03
   -.123E+03 -.105E+03 -.230E-01   0.123E+03 0.107E+03 0.239E-01   -.395E+00 -.198E+01 -.287E-03   -.165E-01 0.198E-02 -.221E-03
   -.194E+03 0.510E+02 0.358E-01   0.196E+03 -.520E+02 -.357E-01   -.193E+01 0.120E+01 0.481E-03   0.225E-02 -.798E-02 -.367E-03
   0.144E+02 0.890E+02 -.949E-02   -.158E+02 -.946E+02 0.993E-02   0.147E+01 0.577E+01 -.693E-03   -.370E-04 0.178E-02 0.666E-04
   0.365E+02 0.750E+02 -.371E-02   -.374E+02 -.807E+02 0.410E-02   0.651E+00 0.570E+01 -.456E-03   0.147E-02 -.482E-03 0.108E-04
   0.606E+02 -.582E+01 0.550E+02   -.635E+02 0.770E+01 -.593E+02   0.269E+01 -.202E+01 0.436E+01   0.105E-02 0.995E-03 -.965E-03
   0.607E+02 -.583E+01 -.550E+02   -.635E+02 0.771E+01 0.592E+02   0.269E+01 -.202E+01 -.436E+01   0.106E-02 0.988E-03 0.966E-03
   0.569E+02 -.226E+02 -.553E+02   -.602E+02 0.224E+02 0.597E+02   0.330E+01 0.448E+00 -.444E+01   0.102E-02 -.964E-03 0.662E-03
   0.569E+02 -.226E+02 0.553E+02   -.602E+02 0.224E+02 -.597E+02   0.330E+01 0.449E+00 0.443E+01   0.107E-02 -.953E-03 -.639E-03
   -.158E+01 -.828E+02 0.939E-02   0.347E+01 0.882E+02 -.995E-02   -.215E+01 -.526E+01 0.628E-03   0.155E-02 -.875E-03 -.271E-04
   -.217E+02 -.867E+02 0.169E-02   0.230E+02 0.923E+02 -.189E-02   -.148E+01 -.575E+01 0.241E-03   -.745E-03 -.161E-02 -.991E-05
   -.336E+02 0.651E+02 0.274E-01   0.336E+02 -.708E+02 -.292E-01   0.208E+00 0.600E+01 0.203E-02   -.300E-03 -.844E-03 -.525E-04
   -.761E+02 -.193E+02 0.673E-02   0.816E+02 0.217E+02 -.697E-02   -.552E+01 -.245E+01 0.337E-03   0.125E-02 0.942E-04 -.480E-04
   -.335E+02 -.767E+02 -.163E-01   0.344E+02 0.824E+02 0.175E-01   -.843E+00 -.591E+01 -.124E-02   -.204E-02 0.914E-03 -.145E-04
   -.510E+02 0.709E+02 -.948E-02   0.549E+02 -.750E+02 0.101E-01   -.420E+01 0.430E+01 -.422E-03   -.870E-03 0.455E-03 -.173E-04
 -----------------------------------------------------------------------------------------------
   -.178E+01 0.784E+00 0.208E-03   -.426E-13 0.128E-12 -.218E-13   0.177E+01 -.758E+00 -.197E-02   0.564E-03 -.767E-02 -.738E-03
 
 
 POSITION                                       TOTAL-FORCE (eV/Angst)
 -----------------------------------------------------------------------------------
     21.08184     18.72744     20.00022        -0.003413      0.005478      0.000307
     21.43760     20.11972     20.00015         0.001516      0.000880      0.000363
     20.39905     21.09111     20.00010        -0.000982     -0.007557     -0.001638
     19.06308     20.73729     20.00001         0.003149      0.011706      0.000319
     18.72336     19.33531     20.00007        -0.004835     -0.003291     -0.000027
     19.75767     18.36207     20.00018        -0.000215      0.002071     -0.001685
     17.30275     18.91053     19.99998         0.010823     -0.000185      0.000254
     17.99044     21.77916     19.99991         0.000584     -0.002980     -0.000208
     22.79267     20.57553     20.00009        -0.005910      0.004884      0.000455
     23.90468     19.77345     19.99972         0.008371     -0.010228      0.000271
     19.48228     17.30730     20.00029         0.001628     -0.001054     -0.000062
     17.19652     17.82123     20.00006        -0.001817      0.000917      0.000088
     16.77670     19.32726     19.12414        -0.003103     -0.005844      0.001143
     16.77659     19.32741     20.87568        -0.003222     -0.005879     -0.000945
     17.34034     21.67365     20.88199        -0.004848      0.004023     -0.000817
     17.34029     21.67348     19.11789        -0.004722      0.003987      0.001179
     18.42048     22.78677     19.99980        -0.011463      0.001614      0.000166
     20.67702     22.14608     20.00005        -0.000126      0.007247      0.000152
     23.84738     18.68515     19.99937         0.003769      0.009851      0.000251
     24.89826     20.21982     19.99967         0.002279     -0.008096      0.000190
     22.93585     21.65889     20.00032         0.009802     -0.007036      0.000049
     21.85511     17.96139     20.00030         0.002734     -0.000506      0.000196
 -----------------------------------------------------------------------------------
    total drift:                               -0.008973      0.018298     -0.002502


--------------------------------------------------------------------------------------------------------



  FREE ENERGIE OF THE ION-ELECTRON SYSTEM (eV)
  ---------------------------------------------------
  free  energy   TOTEN  =      -128.82903907 eV

  energy  without entropy=     -128.82903907  energy(sigma->0) =     -128.82903907
 
 d Force = 0.2589849E-04[-0.168E-05, 0.535E-04]  d Energy = 0.2678042E-04-0.882E-06
 d Force = 0.5490347E+00[ 0.549E+00, 0.549E+00]  d Ewald  = 0.5490347E+00 0.820E-08


--------------------------------------------------------------------------------------------------------


    POTLOK:  cpu time    419.0378: real time    419.0349


--------------------------------------------------------------------------------------------------------


 Conjugate gradient step on ions:
 trial-energy change:   -0.000027  1 .order   -0.000026   -0.000053    0.000002
  (g-gl).g = 0.114E-03      g.g   = 0.107E-03  gl.gl    = 0.537E-03
 g(Force)  = 0.107E-03   g(Stress)= 0.000E+00 ortho     =-0.183E-04
 gamma     =   0.21250
 trial     =   0.51728
 opt step  =   0.50157  (harmonic =   0.50157) maximal distance =0.00053145
 next E    =  -128.829038   (d E  =  -0.00003)


--------------------------------------------------------------------------------------------------------


  
 reached required accuracy - stopping structural energy minimisation
 writing wavefunctions
     LOOP+:  cpu time   1435.5558: real time   1437.2251
    4ORBIT:  cpu time      0.0000: real time      0.0000

 total amount of memory used by VASP MPI-rank0   523066. kBytes
=======================================================================

   base      :      30000. kBytes
   nonlr-proj:       1265. kBytes
   fftplans  :     131430. kBytes
   grid      :     332629. kBytes
   one-center:         12. kBytes
   wavefun   :      27730. kBytes
 
  
  
 General timing and accounting informations for this job:
 ========================================================
  
                  Total CPU time used (sec):    28459.494
                            User time (sec):    11743.356
                          System time (sec):    16716.139
                         Elapsed time (sec):    28463.594
  
                   Maximum memory used (kb):     1598788.
                   Average memory used (kb):          N/A
  
                          Minor page faults:     60674152
                          Major page faults:            0
                 Voluntary context switches:         8306
