
                                 *****************
                                 * O   R   C   A *
                                 *****************

                                            #,                                       
                                            ###                                      
                                            ####                                     
                                            #####                                    
                                            ######                                   
                                           ########,                                 
                                     ,,################,,,,,                         
                               ,,#################################,,                 
                          ,,##########################################,,             
                       ,#########################################, ''#####,          
                    ,#############################################,,   '####,        
                  ,##################################################,,,,####,       
                ,###########''''           ''''###############################       
              ,#####''   ,,,,##########,,,,          '''####'''          '####       
            ,##' ,,,,###########################,,,                        '##       
           ' ,,###''''                  '''############,,,                           
         ,,##''                                '''############,,,,        ,,,,,,###''
      ,#''                                            '''#######################'''  
     '                                                          ''''####''''         
             ,#######,   #######,   ,#######,      ##                                
            ,#'     '#,  ##    ##  ,#'     '#,    #''#        ,####,   ,####,        
            ##       ##  ##   ,#'  ##            #'  '#       #'       #'  '#        
            ##       ##  #######   ##           ,######,      #####,   #    #        
            '#,     ,#'  ##    ##  '#,     ,#' ,#      #,     #,   #   #,  ,#        
             '#######'   ##     ##  '#######'  #'      '#     '####' # '####'        



                #########################################################
                #                        -***-                          #
                #          Department of theory and spectroscopy        #
                #                                                       #
                #                      Frank Neese                      #
                #                                                       #
                #     Directorship, Architecture, Infrastructure        #
                #                    SHARK, DRIVERS                     #
                #        Core code/Algorithms in most modules           #
                #                                                       #
                #        Max Planck Institute fuer Kohlenforschung      #
                #                Kaiser Wilhelm Platz 1                 #
                #                 D-45470 Muelheim/Ruhr                 #
                #                      Germany                          #
                #                                                       #
                #                  All rights reserved                  #
                #                        -***-                          #
                #########################################################


                         Program Version 6.0.0  -   RELEASE  -


 With contributions from (in alphabetic order):
   Daniel Aravena         : Magnetic Suceptibility
   Michael Atanasov       : Ab Initio Ligand Field Theory (pilot matlab implementation)
   Alexander A. Auer      : GIAO ZORA, VPT2 properties, NMR spectrum
   Ute Becker             : All parallelization in ORCA, NUMFREQ, NUMCALC
   Giovanni Bistoni       : ED, misc. LED, open-shell LED, HFLD
   Martin Brehm           : Molecular dynamics
   Dmytro Bykov           : pre 5.0 version of the SCF Hessian
   Marcos Casanova-Páez   : Triplet and SCS-CIS(D). UHF-(DLPNO)-IP/EA/STEOM-CCSD. UHF-CVS-IP/STEOM-CCSD
   Vijay G. Chilkuri      : MRCI spin determinant printing, contributions to CSF-ICE
   Pauline Colinet        : FMM embedding
   Dipayan Datta          : RHF DLPNO-CCSD density
   Achintya Kumar Dutta   : EOM-CC, STEOM-CC
   Nicolas Foglia         : Exact transition moments, OPA infrastructure, MCD improvements
   Dmitry Ganyushin       : Spin-Orbit,Spin-Spin,Magnetic field MRCI
   Miquel Garcia          : C-PCM and meta-GGA Hessian, CCSD/C-PCM, Gaussian charge scheme
   Tiago L. C. Gouveia    : GS-ROHF, GS-ROCIS
   Yang Guo               : DLPNO-NEVPT2, F12-NEVPT2, CIM, IAO-localization
   Andreas Hansen         : Spin unrestricted coupled pair/coupled cluster methods
   Ingolf Harden          : AUTO-CI MPn and infrastructure 
   Benjamin Helmich-Paris : MC-RPA, TRAH-(SCF,CASSCF), AVAS, COSX integrals, SCF dyn. polar.
   Lee Huntington         : MR-EOM, pCC
   Robert Izsak           : Overlap fitted RIJCOSX, COSX-SCS-MP3, EOM
   Riya Kayal             : Wick's Theorem for AUTO-CI, AUTO-CI UHF-CCSDT
   Emily Kempfer          : AUTO-CI, RHF CISDT and CCSDT
   Christian Kollmar      : KDIIS, OOCD, Brueckner-CCSD(T), CCSD density, CASPT2, CASPT2-K, improved NEVPT2
   Axel Koslowski         : Symmetry handling
   Simone Kossmann        : Meta GGA functionals, TD-DFT gradient, OOMP2, (MP2 Hessian; deprecated post 5.0)
   Lucas Lang             : DCDCAS
   Marvin Lechner         : AUTO-CI (C++ implementation), FIC-MRCC
   Spencer Leger          : CASSCF response
   Dagmar Lenk            : GEPOL surface, SMD, ORCA-2-JSON
   Dimitrios Liakos       : Extrapolation schemes; Compound Job, initial MDCI parallelization
   Dimitrios Manganas     : Further ROCIS development; embedding schemes. LFT, Crystal Embedding
   Dimitrios Pantazis     : SARC Basis sets
   Anastasios Papadopoulos: AUTO-CI, single reference methods and gradients
   Taras Petrenko         : pre 6.0 DFT Hessian and TD-DFT gradient, (ASA, deprecated), ECA, 1-Electron XAS/XES, NRVS
   Peter Pinski           : DLPNO-MP2, DLPNO-MP2 Gradient
   Christoph Reimann      : Effective Core Potentials
   Marius Retegan         : Local ZFS, SOC
   Christoph Riplinger    : Optimizer, TS searches, QM/MM, DLPNO-CCSD(T), (RO)-DLPNO pert. Triples
   Michael Roemelt        : Original ROCIS implementation
   Masaaki Saitow         : Open-shell DLPNO-CCSD energy and density
   Barbara Sandhoefer     : DKH picture change effects
   Kantharuban Sivalingam : CASSCF convergence/infrastructure, NEVPT2 and variants, FIC-MRCI
   Bernardo de Souza      : ESD, SOC TD-DFT
   Georgi Stoychev        : AutoAux, RI-MP2 NMR, DLPNO-MP2 response, X2C
   Van Anh Tran           : RI-MP2 g-tensors
   Willem Van den Heuvel  : Paramagnetic NMR
   Zikuan Wang            : NOTCH, Electric field optimization 
   Frank Wennmohs         : Technical directorship and infrastructure
   Hang Xu                : AUTO-CI-Response properties 


 We gratefully acknowledge several colleagues who have allowed us to
 interface, adapt or use parts of their codes:
   Stefan Grimme, W. Hujo, H. Kruse, P. Pracht,  : VdW corrections, initial TS optimization,
                  C. Bannwarth, S. Ehlert,         DFT functionals, gCP, sTDA/sTD-DF
                  L. Wittmann, M. Mueller
   Ed Valeev, F. Pavosevic, A. Kumar             : LibInt (2-el integral package), F12 methods
   Garnet Chan, S. Sharma, J. Yang, R. Olivares  : DMRG
   Ulf Ekstrom                                   : XCFun DFT Library
   Mihaly Kallay                                 : mrcc  (arbitrary order and MRCC methods)
   Frank Weinhold                                : gennbo (NPA and NBO analysis)
   Simon Mueller                                 : openCOSMO-RS
   Christopher J. Cramer and Donald G. Truhlar   : smd solvation model
   Lars Goerigk                                  : TD-DFT with DH, B97 family of functionals
   V. Asgeirsson, H. Jonsson                     : NEB implementation
   FAccTs GmbH                                   : IRC, NEB, NEB-TS, DLPNO-Multilevel, CI-OPT
                                                   MM, QMMM, 2- and 3-layer-ONIOM, Crystal-QMMM,
                                                   LR-CPCM, SF, NACMEs, symmetry and pop. for TD-DFT,
                                                   nearIR, NL-DFT gradient (VV10), updates on ESD,
                                                   ML-optimized integration grids, MBIS, APM,
                                                   GOAT, DOCKER, SOLVATOR, interface openCOSMO-RS
   S Lehtola, MJT Oliveira, MAL Marques          : LibXC Library
   Liviu Ungur et al                             : ANISO software


 Your calculation uses the libint2 library for the computation of 2-el integrals
 For citations please refer to: http://libint.valeyev.net

 Your ORCA version has been built with support for libXC version: 6.2.2
 For citations please refer to: https://libxc.gitlab.io

 This ORCA versions uses:
   CBLAS   interface :  Fast vector & matrix operations
   LAPACKE interface :  Fast linear algebra routines
   SCALAPACK package :  Parallel linear algebra routines
   Shared memory     :  Shared parallel matrices
   BLAS/LAPACK       :  OpenBLAS 0.3.27  USE64BITINT DYNAMIC_ARCH NO_AFFINITY Sandybridge SINGLE_THREADED
        Core in use  :  Sandybridge
   Copyright (c) 2011-2014, The OpenBLAS Project


NOTE: MaxCore=3500 MB was set to SCF,MP2,MDCI,CIPSI,MRCI and CIS
      => If you want to overwrite this, your respective input block should be placed after the MaxCore statement
Your calculation utilizes the atom-pairwise dispersion correction
with the Becke-Johnson damping scheme (D3BJ)


Your calculation utilizes the SMD solvation module
Please cite in your paper:
A.V. Marenich, C.J. Cramer, D.G. Truhlar J. Phys. Chem. B, 113, (2009), 6378 

Warning: RI is on but no J-basis has been assigned. Assigning Def2/J (nothing to worry about!)
================================================================================

----- Orbital basis set information -----
Your calculation utilizes the basis: aug-cc-pVTZ 
    H, B-Ne : Obtained from the ccRepo (grant-hill.group.shef.ac.uk/ccrepo) Feb. 2017
              R. A. Kendall, T. H. Dunning, Jr., R. J. Harrison, J. Chem. Phys. 96, 6796 (1992)
         He : Obtained from the ccRepo (grant-hill.group.shef.ac.uk/ccrepo) Feb. 2017
              D. E. Woon, T. H. Dunning, Jr., J. Chem. Phys. 100, 2975 (1994)
  Li-Be, Na : Obtained from the ccRepo (grant-hill.group.shef.ac.uk/ccrepo) Feb. 2017
              B. P. Prascher, D. E. Woon, K. A. Peterson, T. H. Dunning, Jr., A. K. Wilson, Theor. Chem. Acc. 128, 69 (2011)
         Mg : Obtained from the Peterson Research Group Website (tyr0.chem.wsu.edu/~kipeters) Feb. 2017
              B. P. Prascher, D. E. Woon, K. A. Peterson, T. H. Dunning, Jr., A. K. Wilson, Theor. Chem. Acc. 128, 69 (2011)
      Al-Ar : Obtained from the ccRepo (grant-hill.group.shef.ac.uk/ccrepo) Feb. 2017
              D. E. Woon, T. H. Dunning, Jr., J. Chem. Phys. 98, 1358 (1993)
      Sc-Zn : Obtained from the ccRepo (grant-hill.group.shef.ac.uk/ccrepo) Feb. 2017
              N. B. Balabanov, K. A. Peterson, J. Chem. Phys. 123, 064107 (2005)
              N. B. Balabanov, K. A. Peterson, J. Chem. Phys. 125, 074110 (2006)
      Ga-Kr : Obtained from the ccRepo (grant-hill.group.shef.ac.uk/ccrepo) Feb. 2017
              A. K. Wilson, D. E. Woon, K. A. Peterson, T. H. Dunning, Jr., J. Chem. Phys. 110, 7667 (1999)
     Ag, Au : Obtained from the Peterson Research Group Website (tyr0.chem.wsu.edu/~kipeters) Feb. 2017
              K. A. Peterson, C. Puzzarini, Theor. Chem. Acc. 114, 283 (2005)

----- AuxJ basis set information -----
Your calculation utilizes the auxiliary basis: def2/J
   F. Weigend, Phys. Chem. Chem. Phys. 8, 1057 (2006).

================================================================================
                                        WARNINGS
                       Please study these warnings very carefully!
================================================================================


WARNING: your system is open-shell and RHF/RKS was chosen
  ===> : WILL SWITCH to UHF/UKS


================================================================================
                                       INPUT FILE
================================================================================
NAME = cs_rporg_w07_red_solv_01.inp
|  1> !TPSSh aug-cc-pVTZ d3 TightSCF SlowConv RIJCOSX defgrid2
|  2> 
|  3> %pal
|  4> nprocs 15
|  5> end
|  6> 
|  7> %scf
|  8> MaxIter 1500
|  9> end
| 10> 
| 11> %maxcore 3500
| 12> 
| 13> !CPCM
| 14> %cpcm smd true
| 15> SMDsolvent "WATER"
| 16> surfacetype gepol_ses
| 17> rsolv 1.40
| 18> end
| 19> 
| 20> * xyz -1 2
| 21> C           0.00000004903308      0.00000285676658     -0.07927677165041
| 22> C          -1.16509262301003     -0.35747694639887      0.71050337241250
| 23> C           1.16509408020432      0.35747595685912      0.71050209383188
| 24> H          -2.06362612463752     -0.63312787458135      0.14412716721423
| 25> H           2.06363121454948      0.63312802636862      0.14412668715351
| 26> C          -1.16509507944368     -0.35747268029138      2.08215495800193
| 27> C           1.16509160172280      0.35747686687021      2.08215370735606
| 28> H          -2.06363192155032     -0.63312031850306      2.64853168475760
| 29> H           2.06362610689310      0.63313254757272      2.64853030477196
| 30> C           0.00000131049034     -0.00000637822162      2.87193489848665
| 31> O           0.00000216772010     -0.00000733437022      4.12586654778909
| 32> O          -0.00000078197165     -0.00000472207076     -1.33320665012500
| 33> *
| 34> 
| 35>                          ****END OF INPUT****
================================================================================

                       ****************************
                       * Single Point Calculation *
                       ****************************

---------------------------------
CARTESIAN COORDINATES (ANGSTROEM)
---------------------------------
  C      0.000000    0.000003   -0.079277
  C     -1.165093   -0.357477    0.710503
  C      1.165094    0.357476    0.710502
  H     -2.063626   -0.633128    0.144127
  H      2.063631    0.633128    0.144127
  C     -1.165095   -0.357473    2.082155
  C      1.165092    0.357477    2.082154
  H     -2.063632   -0.633120    2.648532
  H      2.063626    0.633133    2.648530
  C      0.000001   -0.000006    2.871935
  O      0.000002   -0.000007    4.125867
  O     -0.000001   -0.000005   -1.333207

----------------------------
CARTESIAN COORDINATES (A.U.)
----------------------------
  NO LB      ZA    FRAG     MASS         X           Y           Z
   0 C     6.0000    0    12.011    0.000000    0.000005   -0.149811
   1 C     6.0000    0    12.011   -2.201706   -0.675534    1.342657
   2 C     6.0000    0    12.011    2.201709    0.675532    1.342654
   3 H     1.0000    0     1.008   -3.899688   -1.196438    0.272361
   4 H     1.0000    0     1.008    3.899698    1.196439    0.272360
   5 C     6.0000    0    12.011   -2.201711   -0.675525    3.934703
   6 C     6.0000    0    12.011    2.201704    0.675533    3.934700
   7 H     1.0000    0     1.008   -3.899699   -1.196424    5.005000
   8 H     1.0000    0     1.008    3.899688    1.196447    5.004997
   9 C     6.0000    0    12.011    0.000002   -0.000012    5.427170
  10 O     8.0000    0    15.999    0.000004   -0.000014    7.796758
  11 O     8.0000    0    15.999   -0.000001   -0.000009   -2.519395

--------------------------------
INTERNAL COORDINATES (ANGSTROEM)
--------------------------------
 C      0   0   0     0.000000000000     0.00000000     0.00000000
 C      1   0   0     1.452234629829     0.00000000     0.00000000
 C      1   2   0     1.452233374883   114.10946522     0.00000000
 H      2   1   3     1.097327614512   115.98094061   179.99797302
 H      3   1   2     1.097330463676   115.98110698   179.99769098
 C      2   1   3     1.371651585598   122.94532723     0.00000000
 C      3   1   2     1.371651613527   122.94516555     0.00000000
 H      6   2   1     1.097329792581   121.07378704   179.99730322
 H      7   3   1     1.097329832542   121.07364423   179.99814588
 C      7   3   1     1.452234136463   122.94543107     0.00000000
 O     10   7   3     1.253931649303   122.94531861   179.99985705
 O      1   2   3     1.253929878498   122.94514352   179.99932454

---------------------------
INTERNAL COORDINATES (A.U.)
---------------------------
 C      0   0   0     0.000000000000     0.00000000     0.00000000
 C      1   0   0     2.744325732574     0.00000000     0.00000000
 C      1   2   0     2.744323361068   114.10946522     0.00000000
 H      2   1   3     2.073648670616   115.98094061   179.99797302
 H      3   1   2     2.073654054757   115.98110698   179.99769098
 C      2   1   3     2.592045847940   122.94532723     0.00000000
 C      3   1   2     2.592045900717   122.94516555     0.00000000
 H      6   2   1     2.073652786570   121.07378704   179.99730322
 H      7   3   1     2.073652862085   121.07364423   179.99814588
 C      7   3   1     2.744324800247   122.94543107     0.00000000
 O     10   7   3     2.369587407839   122.94531861   179.99985705
 O      1   2   3     2.369584061502   122.94514352   179.99932454

---------------------
BASIS SET INFORMATION
---------------------
There are 3 groups of distinct atoms

 Group   1 Type C   : 19s6p3d2f contracted to 5s4p3d2f pattern {88111/3111/111/11}
 Group   2 Type H   : 6s3p2d contracted to 4s3p2d pattern {3111/111/11}
 Group   3 Type O   : 19s6p3d2f contracted to 5s4p3d2f pattern {88111/3111/111/11}

Atom   0C    basis set group =>   1
Atom   1C    basis set group =>   1
Atom   2C    basis set group =>   1
Atom   3H    basis set group =>   2
Atom   4H    basis set group =>   2
Atom   5C    basis set group =>   1
Atom   6C    basis set group =>   1
Atom   7H    basis set group =>   2
Atom   8H    basis set group =>   2
Atom   9C    basis set group =>   1
Atom  10O    basis set group =>   3
Atom  11O    basis set group =>   3
---------------------------------
AUXILIARY/J BASIS SET INFORMATION
---------------------------------
There are 3 groups of distinct atoms

 Group   1 Type C   : 12s5p4d2f1g contracted to 6s4p3d1f1g pattern {711111/2111/211/2/1}
 Group   2 Type H   : 5s2p1d contracted to 3s1p1d pattern {311/2/1}
 Group   3 Type O   : 12s5p4d2f1g contracted to 6s4p3d1f1g pattern {711111/2111/211/2/1}

Atom   0C    basis set group =>   1
Atom   1C    basis set group =>   1
Atom   2C    basis set group =>   1
Atom   3H    basis set group =>   2
Atom   4H    basis set group =>   2
Atom   5C    basis set group =>   1
Atom   6C    basis set group =>   1
Atom   7H    basis set group =>   2
Atom   8H    basis set group =>   2
Atom   9C    basis set group =>   1
Atom  10O    basis set group =>   3
Atom  11O    basis set group =>   3


           ************************************************************
           *        Program running with 15 parallel MPI-processes    *
           *              working on a common directory               *
           ************************************************************
------------------------------------------------------------------------------
                             ORCA STARTUP CALCULATIONS
                           -- RI-GTO INTEGRALS CHOSEN --
------------------------------------------------------------------------------
------------------------------------------------------------------------------
                   ___                                                        
                  /   \      - P O W E R E D   B Y -                         
                 /     \                                                     
                 |  |  |   _    _      __       _____    __    __             
                 |  |  |  | |  | |    /  \     |  _  \  |  |  /  |          
                  \  \/   | |  | |   /    \    | | | |  |  | /  /          
                 / \  \   | |__| |  /  /\  \   | |_| |  |  |/  /          
                |  |  |   |  __  | /  /__\  \  |    /   |      \           
                |  |  |   | |  | | |   __   |  |    \   |  |\   \          
                \     /   | |  | | |  |  |  |  | |\  \  |  | \   \       
                 \___/    |_|  |_| |__|  |__|  |_| \__\ |__|  \__/        
                                                                              
                      - O R C A' S   B I G   F R I E N D -                    
                                      &                                       
                       - I N T E G R A L  F E E D E R -                       
                                                                              
 v1 FN, 2020, v2 2021, v3 2022-2024                                           
------------------------------------------------------------------------------


----------------------
SHARK INTEGRAL PACKAGE
----------------------

Number of atoms                             ...     12
Number of basis functions                   ...    508
Number of shells                            ...    196
Maximum angular momentum                    ...      3
Integral batch strategy                     ... SHARK/LIBINT Hybrid
RI-J (if used) integral strategy            ... SPLIT-RIJ (Revised 2003 algorithm where possible)
Printlevel                                  ...      1
Contraction scheme used                     ... PARTIAL GENERAL contraction
Prescreening option                         ... SCHWARTZ
   Thresh                                   ... 2.500e-11
   Tcut                                     ... 2.500e-12
   Tpresel                                  ... 2.500e-12 
Coulomb Range Separation                    ... NOT USED
Exchange Range Separation                   ... NOT USED
Multipole approximations                    ... NOT USED
Finite Nucleus Model                        ... NOT USED
CABS basis                                  ... NOT available
Auxiliary Coulomb fitting basis             ... AVAILABLE
   # of basis functions in Aux-J            ...    436
   # of shells in Aux-J                     ...    140
   Maximum angular momentum in Aux-J        ...      4
Auxiliary J/K fitting basis                 ... NOT available
Auxiliary Correlation fitting basis         ... NOT available
Auxiliary 'external' fitting basis          ... NOT available

Checking pre-screening integrals            ... done (  0.1 sec) Dimension = 196
Save PGC pre-screening integrals            ... done (  0.1 sec) Dimension = 196
Calculate PGC overlap integrals             ... done (  0.1 sec) Dimension = 148
Calculating pre-screening integrals (ORCA)  ... done (  0.2 sec) Dimension = 148
Check shell pair data                       ... done (  0.1 sec)
Shell pair information
Shell pair cut-off parameter TPreSel        ...   2.5e-12
Total number of shell pairs                 ...     19306
Shell pairs after pre-screening             ...     16587
Total number of primitive shell pairs       ...     24346
Primitive shell pairs kept                  ...     19789
          la=0 lb=0:   3788 shell pairs
          la=1 lb=0:   4134 shell pairs
          la=1 lb=1:    964 shell pairs
          la=2 lb=0:   2976 shell pairs
          la=2 lb=1:   1364 shell pairs
          la=2 lb=2:    510 shell pairs
          la=3 lb=0:   1530 shell pairs
          la=3 lb=1:    690 shell pairs
          la=3 lb=2:    498 shell pairs
          la=3 lb=3:    133 shell pairs

Calculating one electron integrals          ... done (  0.0 sec)
Calculating RI/J V-Matrix + Cholesky decomp.... done (  0.1 sec)
Calculating Nuclear repulsion               ... done (  0.0 sec) ENN=    321.220245513539 Eh

Diagonalization of the overlap matrix:
Smallest eigenvalue                        ... 1.302e-06
Time for diagonalization                   ...    0.068 sec
Threshold for overlap eigenvalues          ... 1.000e-07
Number of eigenvalues below threshold      ... 0
Time for construction of square roots      ...    0.042 sec
Total time needed                          ...    0.168 sec

-------------------
DFT GRID GENERATION
-------------------

General Integration Accuracy     IntAcc      ... 4.388
Radial Grid Type                 RadialGrid  ... OptM3 with GC (2021)
Angular Grid (max. ang.)         AngularGrid ... 4 (Lebedev-302)
Angular grid pruning method      GridPruning ... 4 (adaptive)
Weight generation scheme         WeightScheme... mBecke (2022)
Basis function cutoff            BFCut       ... 1.0000e-11
Integration weight cutoff        WCut        ... 1.0000e-14
Partially contracted basis set               ... off
Rotationally invariant grid construction     ... off
Angular grids for H and He will be reduced by one unit
Diffuse basis detected: some atoms will have their outermost
                        angular grid increased by 1.

Total number of grid points                  ...    64236
Total number of batches                      ...     1012
Average number of points per batch           ...       63
Average number of grid points per atom       ...     5353

---------------------
SHARK GRID GENERATION
---------------------

General Integration Accuracy     IntAcc      ... 4.388
Radial Grid Type                 RadialGrid  ... OptM3 with GC (2021)
Angular Grid (max. ang.)         AngularGrid ... 4 (Lebedev-302)
Angular grid pruning method      GridPruning ... 4 (adaptive)
Weight generation scheme         WeightScheme... mBecke (2022)
Basis function cutoff            BFCut       ... 1.0000e-11
Integration weight cutoff        WCut        ... 1.0000e-14
Partially contracted basis set               ... off
Rotationally invariant grid construction     ... off
Angular grids for H and He will be reduced by one unit
Diffuse basis detected: some atoms will have their outermost
                        angular grid increased by 1.
Steep s-basis detected: some atoms will have their radial
                        grid points doubled.

Total number of grid points                  ...   115304
Total number of batches                      ...     1808
Average number of points per batch           ...       63
Average number of grid points per atom       ...     9609

--------------------
COSX GRID GENERATION
--------------------

GRIDX 1
-------
General Integration Accuracy     IntAcc      ... 3.816
Radial Grid Type                 RadialGrid  ... OptM3 with GC (2021)
Angular Grid (max. ang.)         AngularGrid ... 1 (Lebedev-50)
Angular grid pruning method      GridPruning ... 4 (adaptive)
Weight generation scheme         WeightScheme... mBecke (2022)
Basis function cutoff            BFCut       ... 1.0000e-11
Integration weight cutoff        WCut        ... 1.0000e-14
Partially contracted basis set               ... on
Rotationally invariant grid construction     ... off
Angular grids for H and He will be reduced by one unit
Diffuse basis detected: some atoms will have their outermost
                        angular grid increased by 1.

Total number of grid points                  ...     8094
Total number of batches                      ...       72
Average number of points per batch           ...      112
Average number of grid points per atom       ...      674
UseSFitting                                  ... on

GRIDX 2
-------
General Integration Accuracy     IntAcc      ... 4.020
Radial Grid Type                 RadialGrid  ... OptM3 with GC (2021)
Angular Grid (max. ang.)         AngularGrid ... 2 (Lebedev-110)
Angular grid pruning method      GridPruning ... 4 (adaptive)
Weight generation scheme         WeightScheme... mBecke (2022)
Basis function cutoff            BFCut       ... 1.0000e-11
Integration weight cutoff        WCut        ... 1.0000e-14
Partially contracted basis set               ... on
Rotationally invariant grid construction     ... off
Angular grids for H and He will be reduced by one unit
Diffuse basis detected: some atoms will have their outermost
                        angular grid increased by 1.

Total number of grid points                  ...    20642
Total number of batches                      ...      170
Average number of points per batch           ...      121
Average number of grid points per atom       ...     1720
UseSFitting                                  ... on

GRIDX 3
-------
General Integration Accuracy     IntAcc      ... 4.338
Radial Grid Type                 RadialGrid  ... OptM3 with GC (2021)
Angular Grid (max. ang.)         AngularGrid ... 3 (Lebedev-194)
Angular grid pruning method      GridPruning ... 4 (adaptive)
Weight generation scheme         WeightScheme... mBecke (2022)
Basis function cutoff            BFCut       ... 1.0000e-11
Integration weight cutoff        WCut        ... 1.0000e-14
Partially contracted basis set               ... on
Rotationally invariant grid construction     ... off
Angular grids for H and He will be reduced by one unit
Diffuse basis detected: some atoms will have their outermost
                        angular grid increased by 1.

Total number of grid points                  ...    45400
Total number of batches                      ...      360
Average number of points per batch           ...      126
Average number of grid points per atom       ...     3783
UseSFitting                                  ... on
Initializing property integral containers    ... done (  0.1 sec)

SHARK setup successfully completed in   5.0 seconds

Maximum memory used throughout the entire STARTUP-calculation: 43.4 MB


           ************************************************************
           *        Program running with 15 parallel MPI-processes    *
           *              working on a common directory               *
           ************************************************************
-------------------------------------------------------------------------------
                                 ORCA GUESS
                   Start orbitals & Density for SCF / CASSCF
-------------------------------------------------------------------------------

------------
SCF SETTINGS
------------
Hamiltonian:
 Density Functional     Method          .... DFT(GTOs)
 Exchange Functional    Exchange        .... TPSS
 Correlation Functional Correlation     .... TPSS
 LDA part of GGA corr.  LDAOpt          .... PW91-LDA
 Gradients option       PostSCFGGA      .... off
 Hybrid DFT is turned on
   Fraction HF Exchange ScalHFX         ....  0.100000
   Scaling of DF-GGA-X  ScalDFX         ....  0.900000
   Scaling of DF-GGA-C  ScalDFC         ....  1.000000
   Scaling of DF-LDA-C  ScalLDAC        ....  1.000000
   Perturbative correction              ....  0.000000
   NL short-range parameter             ....  5.200000
 RI-approximation to the Coulomb term is turned on
   Number of AuxJ basis functions       .... 436
   RIJ-COSX (HFX calculated with COS-X)).... on


General Settings:
 Integral files         IntName         .... cs_rporg_w07_red_solv_01
 Hartree-Fock type      HFTyp           .... UHF
 Total Charge           Charge          ....   -1
 Multiplicity           Mult            ....    2
 Number of Electrons    NEL             ....   57
 Basis Dimension        Dim             ....  460
 Nuclear Repulsion      ENuc            ....    321.2202455135 Eh

Convergence Acceleration:
 AO-DIIS                CNVDIIS         .... on
   Start iteration      DIISMaxIt       ....     0
   Startup error        DIISStart       ....  0.200000
   # of expansion vecs  DIISMaxEq       ....     5
   Bias factor          DIISBfac        ....   1.050
   Max. coefficient     DIISMaxC        ....  10.000
 MO-DIIS                CNVKDIIS        .... off
 Trust-Rad. Augm. Hess. CNVTRAH         .... auto
   Auto Start mean grad. ratio tolernc. ....  1.125000
   Auto Start start iteration           ....    50
   Auto Start num. interpolation iter.  ....    10
   Max. Number of Micro iterations      ....    24
   Max. Number of Macro iterations      .... Maxiter - #DIIS iter
   Number of Davidson start vectors     ....     2
   Converg. threshold    (grad. norm)   ....   1.000e-05
   Grad. Scal. Fac. for Micro threshold ....   0.100
   Minimum threshold for Micro iter.    ....   1.000e-02
   NR start threshold (gradient norm)   ....   1.000e-04
   Initial trust radius                 ....   0.400
   Minimum AH scaling param. (alpha)    ....   1.000
   Maximum AH scaling param. (alpha)    .... 1000.000
   Quad. conv. algorithm                .... NR
   White noise on init. David. guess    .... on
   Maximum white noise                  ....   0.010
   Pseudo random numbers                .... off
   Inactive MOs                         .... canonical
   Orbital update algorithm             .... Taylor
   Preconditioner                       .... Diag
   Full preconditioner red. dimension   ....   250
 SOSCF                  CNVSOSCF        .... on
   Start iteration      SOSCFMaxIt      ....   150
   Startup grad/error   SOSCFStart      ....  0.001000
   Hessian update       SOSCFHessUp     .... L-BFGS
 Level Shifting         CNVShift        .... on
   Level shift para.    LevelShift      ....    0.2500
   Turn off err/grad.   ShiftErr        ....    0.0000
 Zerner damping         CNVZerner       .... off
 Static damping         CNVDamp         .... on
   Fraction old density DampFac         ....    0.8500
   Max. Damping (<1)    DampMax         ....    0.9800
   Min. Damping (>=0)   DampMin         ....    0.0000
   Turn off err/grad.   DampErr         ....    0.0300

SCF Procedure:
 Maximum # iterations   MaxIter         ....  1500
 SCF integral mode      SCFMode         .... Direct
   Integral package                     .... SHARK and LIBINT hybrid scheme
 Reset frequency        DirectResetFreq ....    20
 Integral Threshold     Thresh          ....  2.500e-11 Eh
 Primitive CutOff       TCut            ....  2.500e-12 Eh

Convergence Tolerance:
 Convergence Check Mode ConvCheckMode   .... Total+1el-Energy
 Convergence forced     ConvForced      .... 0
 Energy Change          TolE            ....  1.000e-08 Eh
 1-El. energy change                    ....  1.000e-05 Eh
 Orbital Gradient       TolG            ....  1.000e-05
 Orbital Rotation angle TolX            ....  1.000e-05
 DIIS Error             TolErr          ....  5.000e-07

------------------------------
INITIAL GUESS: MODEL POTENTIAL
------------------------------
Loading Hartree-Fock densities                     ... done
Calculating cut-offs                               ... done
Initializing the effective Hamiltonian             ... done
Setting up the integral package (SHARK)            ... done
Starting the Coulomb interaction                   ... done (   0.8 sec)
Making the grid                                    ... done (   0.3 sec)
Mapping shells                                     ... done
Starting the XC term evaluation                    ... done (   0.2 sec)
  promolecular density results
     # of electrons  =     55.999170715
     EX              =    -48.078362290
     EC              =     -1.861522128
     EX+EC           =    -49.939884418
Transforming the Hamiltonian                       ... done (   0.1 sec)
Diagonalizing the Hamiltonian                      ... done (   0.1 sec)
Back transforming the eigenvectors                 ... done (   0.2 sec)
Now organizing SCF variables                       ... done
                      ------------------
                      INITIAL GUESS DONE (   2.2 sec)
                      ------------------
             **** ENERGY FILE WAS UPDATED (cs_rporg_w07_red_solv_01.en.tmp) ****
Finished Guess after   4.5 sec
Maximum memory used throughout the entire GUESS-calculation: 28.1 MB


           ************************************************************
           *        Program running with 15 parallel MPI-processes    *
           *              working on a common directory               *
           ************************************************************

-------------------------------------------------------------------------------------------
                                      ORCA LEAN-SCF
                              memory conserving SCF solver
-------------------------------------------------------------------------------------------

--------------------
CPCM SOLVATION MODEL
--------------------
CPCM parameters:
  Epsilon                                         ...      78.3550
  Refrac                                          ...       1.3328
  Rsolv                                           ...       1.4000
  Surface type                                    ...    GEPOL SES
  Discretization scheme                           ... Constant num. charges
  Epsilon function type                           ...         CPCM
Solvent:                                          ... WATER
SMD-CDS solvent descriptors:
  Soln                                            ...       1.3328
  Soln25                                          ...       1.3323
  Sola                                            ...       0.0000
  Solb                                            ...       0.0000
  Solg                                            ...       0.0000
  Solc                                            ...       0.0000
  Solh                                            ...       0.0000
Radii:
  Scheme                                          ... Element-dependent radii
  Radius for C  used is    3.4960 Bohr (=   1.8500 Ang.)
  Radius for H  used is    2.2677 Bohr (=   1.2000 Ang.)
  Radius for O  used is    2.8724 Bohr (=   1.5200 Ang.)
Calculating surface                               ...        done! (  0.0s)
Cavity surface points                             ...          406
Cavity Volume                                     ...     707.7368
Cavity Surface-area                               ...     446.8775
Calculating surface distance matrix               ...        done! (  0.0s)
Performing Cholesky decomposition & store         ...        done! (  0.0s)
Overall time for CPCM initialization              ...                 0.0s

----------------------------------------D-I-I-S--------------------------------------------
Iteration    Energy (Eh)           Delta-E    RMSDP     MaxDP     DIISErr   Damp  Time(sec)
-------------------------------------------------------------------------------------------
               ***  Starting incremental Fock matrix formation  ***
    1    -381.5329711429678810     0.00e+00  9.94e-04  4.01e-02  1.50e-01  0.850   9.0
Warning: op=0 Small HOMO/LUMO gap (   0.078) - skipping pre-diagonalization
         Will do a full diagonalization
    2    -381.6003204570447451    -6.73e-02  9.88e-04  3.71e-02  1.05e-01  0.850   8.9
                               ***Turning on AO-DIIS***
    3    -381.6420788267656690    -4.18e-02  5.94e-04  2.40e-02  6.54e-02  0.850   7.8
    4    -381.6680205205876746    -2.59e-02  4.59e-04  1.90e-02  5.30e-02  0.850   7.5
    5    -381.6867399556321061    -1.87e-02  3.94e-04  1.69e-02  4.60e-02  0.850   9.3
    6    -381.7017243175715748    -1.50e-02  3.44e-04  1.53e-02  3.99e-02  0.850   8.9
    7    -381.7142082727515344    -1.25e-02  2.98e-04  1.35e-02  3.35e-02  0.850   7.7
    8    -381.7245923453688192    -1.04e-02  2.49e-04  1.14e-02  2.74e-02  0.850   7.6
    9    -381.7330766662518045    -8.48e-03  1.40e-03  6.46e-02  2.30e-02  0.000   7.8
   10    -381.7771924429176806    -4.41e-02  4.25e-05  1.47e-03  1.23e-03  0.000   9.1
   11    -381.7772022898362820    -9.85e-06  3.17e-05  1.41e-03  2.79e-03  0.000   7.9
                              *** Initializing SOSCF ***
---------------------------------------S-O-S-C-F--------------------------------------
Iteration    Energy (Eh)           Delta-E    RMSDP     MaxDP     MaxGrad    Time(sec)
--------------------------------------------------------------------------------------
   12    -381.7772557906212114    -5.35e-05  2.64e-05  2.05e-03  4.62e-04     8.0
               *** Restarting incremental Fock matrix formation ***
   13    -381.7772560443619341    -2.54e-07  1.13e-04  6.28e-03  2.50e-04    11.1
   14    -381.7772566270971311    -5.83e-07  7.88e-05  4.36e-03  2.27e-04     8.2
   15    -381.7772568896550638    -2.63e-07  7.80e-05  4.42e-03  9.22e-05     7.7
   16    -381.7772570505572958    -1.61e-07  1.68e-05  8.99e-04  7.11e-06     7.5
   17    -381.7772570440234858     6.53e-09  1.28e-05  7.67e-04  5.61e-06     8.8
                 **** Energy Check signals convergence ****

               *****************************************************
               *                     SUCCESS                       *
               *           SCF CONVERGED AFTER  17 CYCLES          *
               *****************************************************

Recomputing exchange energy using gridx3       ... done (    4.984 sec)
Old exchange energy                            :     -4.919166690 Eh
New exchange energy                            :     -4.919177139 Eh
Exchange energy change after final integration :     -0.000010448 Eh
Total energy after final integration           :   -381.777267492 Eh

SMD CDS free energy correction energy :                 4.34086     Kcal/mol
Total Energy after SMD CDS correction =              -381.770349890 Eh
             **** ENERGY FILE WAS UPDATED (cs_rporg_w07_red_solv_01.en.tmp) ****

----------------
TOTAL SCF ENERGY
----------------

Total Energy       :       -381.77034989001731 Eh          -10388.49936 eV

Components:
Nuclear Repulsion  :        321.22024551353945 Eh            8740.84726 eV
Electronic Energy  :       -702.89590087472789 Eh          -19126.76985 eV
One Electron Energy:      -1165.97786982892922 Eh          -31727.87085 eV
Two Electron Energy:        463.08196895420139 Eh           12601.10100 eV
CPCM Dielectric    :         -0.10160168283520 Eh              -2.76472 eV
SMD CDS (Gcds)     :          0.00691760227551 Eh               0.18824 eV

Virial components:
Potential Energy   :       -761.52670525464930 Eh          -20722.19515 eV
Kinetic Energy     :        379.75635536463199 Eh           10333.69578 eV
Virial Ratio       :          2.00530338596559

DFT components:
N(Alpha)           :       29.000044529279 electrons
N(Beta)            :       28.000041347602 electrons
N(Total)           :       57.000085876881 electrons
E(X)               :      -44.684640187895 Eh       
E(C)               :       -1.910439105210 Eh       
E(XC)              :      -46.595079293105 Eh       

CPCM Solvation Model Properties:
Surface-charge          :          0.93835151390081
Corrected charge        :          1.00000000000000
Outlying charge corr.   :          0.00032114528577 Eh               0.00874 eV
Free-energy (cav+disp)  :          0.00691760227551 Eh               0.18824 eV

---------------
SCF CONVERGENCE
---------------

  Last Energy change         ...   -6.5338e-09  Tolerance :   1.0000e-08
  Last MAX-Density change    ...    7.6680e-04  Tolerance :   1.0000e-07
  Last RMS-Density change    ...    1.2835e-05  Tolerance :   5.0000e-09
  Last DIIS Error            ...    4.6244e-04  Tolerance :   5.0000e-07
  Last Orbital Gradient      ...    5.6133e-06  Tolerance :   1.0000e-05
  Last Orbital Rotation      ...    1.3784e-05  Tolerance :   1.0000e-05


----------------------
UHF SPIN CONTAMINATION
----------------------

Warning: in a DFT calculation there is little theoretical justification to 
         calculate <S**2> as in Hartree-Fock theory. We will do it anyways
         but you should keep in mind that the values have only limited relevance

Expectation value of <S**2>     :     0.756350
Ideal value S*(S+1) for S=0.5   :     0.750000
Deviation                       :     0.006350

----------------
ORBITAL ENERGIES
----------------
                 SPIN UP ORBITALS
  NO   OCC          E(Eh)            E(eV) 
   0   1.0000     -19.019208      -517.5390 
   1   1.0000     -19.019207      -517.5389 
   2   1.0000     -10.165050      -276.6051 
   3   1.0000     -10.165033      -276.6046 
   4   1.0000     -10.109850      -275.1030 
   5   1.0000     -10.109835      -275.1026 
   6   1.0000     -10.109261      -275.0870 
   7   1.0000     -10.109245      -275.0865 
   8   1.0000      -0.988042       -26.8860 
   9   1.0000      -0.986079       -26.8326 
  10   1.0000      -0.800440       -21.7811 
  11   1.0000      -0.721792       -19.6410 
  12   1.0000      -0.665152       -18.0997 
  13   1.0000      -0.583019       -15.8648 
  14   1.0000      -0.546489       -14.8707 
  15   1.0000      -0.457310       -12.4440 
  16   1.0000      -0.449874       -12.2417 
  17   1.0000      -0.431011       -11.7284 
  18   1.0000      -0.397819       -10.8252 
  19   1.0000      -0.391453       -10.6520 
  20   1.0000      -0.390879       -10.6364 
  21   1.0000      -0.368746       -10.0341 
  22   1.0000      -0.362239        -9.8570 
  23   1.0000      -0.338701        -9.2165 
  24   1.0000      -0.275263        -7.4903 
  25   1.0000      -0.250697        -6.8218 
  26   1.0000      -0.233926        -6.3654 
  27   1.0000      -0.227200        -6.1824 
  28   1.0000      -0.159521        -4.3408 
  29   0.0000      -0.022987        -0.6255 
  30   0.0000       0.002053         0.0559 
  31   0.0000       0.010027         0.2728 
  32   0.0000       0.015875         0.4320 
  33   0.0000       0.016515         0.4494 
  34   0.0000       0.038794         1.0556 
  35   0.0000       0.040369         1.0985 
  36   0.0000       0.049127         1.3368 
  37   0.0000       0.060253         1.6396 
  38   0.0000       0.066614         1.8127 
  39   0.0000       0.070634         1.9220 

                 SPIN DOWN ORBITALS
  NO   OCC          E(Eh)            E(eV) 
   0   1.0000     -19.012518      -517.3569 
   1   1.0000     -19.012516      -517.3569 
   2   1.0000     -10.163296      -276.5573 
   3   1.0000     -10.163280      -276.5569 
   4   1.0000     -10.108645      -275.0702 
   5   1.0000     -10.108630      -275.0698 
   6   1.0000     -10.108050      -275.0540 
   7   1.0000     -10.108035      -275.0536 
   8   1.0000      -0.977154       -26.5897 
   9   1.0000      -0.975022       -26.5317 
  10   1.0000      -0.794298       -21.6140 
  11   1.0000      -0.718828       -19.5603 
  12   1.0000      -0.654590       -17.8123 
  13   1.0000      -0.578681       -15.7467 
  14   1.0000      -0.542156       -14.7528 
  15   1.0000      -0.453029       -12.3276 
  16   1.0000      -0.448062       -12.1924 
  17   1.0000      -0.426995       -11.6191 
  18   1.0000      -0.390069       -10.6143 
  19   1.0000      -0.386559       -10.5188 
  20   1.0000      -0.376522       -10.2457 
  21   1.0000      -0.359054        -9.7704 
  22   1.0000      -0.340615        -9.2686 
  23   1.0000      -0.336753        -9.1635 
  24   1.0000      -0.247052        -6.7226 
  25   1.0000      -0.241120        -6.5612 
  26   1.0000      -0.229211        -6.2371 
  27   1.0000      -0.222755        -6.0615 
  28   0.0000      -0.107180        -2.9165 
  29   0.0000      -0.007808        -0.2125 
  30   0.0000       0.002689         0.0732 
  31   0.0000       0.016539         0.4500 
  32   0.0000       0.016595         0.4516 
  33   0.0000       0.028989         0.7888 
  34   0.0000       0.038931         1.0594 
  35   0.0000       0.041119         1.1189 
  36   0.0000       0.055005         1.4968 
  37   0.0000       0.061794         1.6815 
  38   0.0000       0.068714         1.8698 
*Only the first 10 virtual orbitals were printed.

                    ********************************
                    * MULLIKEN POPULATION ANALYSIS *
                    ********************************

--------------------------------------------
MULLIKEN ATOMIC CHARGES AND SPIN POPULATIONS
--------------------------------------------
   0 C :    1.034925    0.138978
   1 C :   -0.493560    0.066537
   2 C :   -0.493600    0.066506
   3 H :    0.343659   -0.001958
   4 H :    0.343404   -0.001993
   5 C :   -0.493263    0.066489
   6 C :   -0.493269    0.066426
   7 H :    0.343454   -0.001966
   8 H :    0.343333   -0.001921
   9 C :    1.034866    0.139035
  10 O :   -1.235062    0.231921
  11 O :   -1.234886    0.231946
Sum of atomic charges         :   -1.0000000
Sum of atomic spin populations:    1.0000000

-----------------------------------------------------
MULLIKEN REDUCED ORBITAL CHARGES AND SPIN POPULATIONS
-----------------------------------------------------
CHARGE
  0 C s       :     3.054989  s :     3.054989
      pz      :     0.527849  p :     1.800717
      px      :     0.501443
      py      :     0.771425
      dz2     :    -0.035121  d :     0.117054
      dxz     :     0.049868
      dyz     :     0.056009
      dx2y2   :     0.027028
      dxy     :     0.019271
      f0      :    -0.008911  f :    -0.007686
      f+1     :    -0.006407
      f-1     :     0.005198
      f+2     :    -0.001480
      f-2     :     0.001218
      f+3     :     0.001548
      f-3     :     0.001148

  1 C s       :     3.518097  s :     3.518097
      pz      :     0.961793  p :     2.820051
      px      :     0.904538
      py      :     0.953720
      dz2     :     0.093709  d :     0.172138
      dxz     :     0.008920
      dyz     :     0.036437
      dx2y2   :     0.018543
      dxy     :     0.014530
      f0      :    -0.000576  f :    -0.016726
      f+1     :    -0.018292
      f-1     :    -0.001459
      f+2     :     0.002388
      f-2     :     0.000546
      f+3     :     0.000458
      f-3     :     0.000210

  2 C s       :     3.517714  s :     3.517714
      pz      :     0.962176  p :     2.820428
      px      :     0.904326
      py      :     0.953926
      dz2     :     0.093805  d :     0.172145
      dxz     :     0.008615
      dyz     :     0.036676
      dx2y2   :     0.018468
      dxy     :     0.014581
      f0      :    -0.000572  f :    -0.016687
      f+1     :    -0.018240
      f-1     :    -0.001476
      f+2     :     0.002401
      f-2     :     0.000534
      f+3     :     0.000458
      f-3     :     0.000208

  3 H s       :     0.663667  s :     0.663667
      pz      :    -0.012065  p :    -0.013067
      px      :    -0.016014
      py      :     0.015012
      dz2     :     0.001086  d :     0.005741
      dxz     :     0.000821
      dyz     :     0.001152
      dx2y2   :     0.000618
      dxy     :     0.002063

  4 H s       :     0.663930  s :     0.663930
      pz      :    -0.012102  p :    -0.013073
      px      :    -0.015885
      py      :     0.014915
      dz2     :     0.001087  d :     0.005739
      dxz     :     0.000810
      dyz     :     0.001159
      dx2y2   :     0.000618
      dxy     :     0.002066

  5 C s       :     3.517892  s :     3.517892
      pz      :     0.961685  p :     2.819858
      px      :     0.904245
      py      :     0.953928
      dz2     :     0.093825  d :     0.172228
      dxz     :     0.008652
      dyz     :     0.036697
      dx2y2   :     0.018467
      dxy     :     0.014586
      f0      :    -0.000569  f :    -0.016715
      f+1     :    -0.018271
      f-1     :    -0.001479
      f+2     :     0.002404
      f-2     :     0.000534
      f+3     :     0.000458
      f-3     :     0.000207

  6 C s       :     3.517632  s :     3.517632
      pz      :     0.962062  p :     2.820256
      px      :     0.904477
      py      :     0.953717
      dz2     :     0.093754  d :     0.172092
      dxz     :     0.008834
      dyz     :     0.036433
      dx2y2   :     0.018537
      dxy     :     0.014534
      f0      :    -0.000578  f :    -0.016712
      f+1     :    -0.018273
      f-1     :    -0.001457
      f+2     :     0.002385
      f-2     :     0.000544
      f+3     :     0.000458
      f-3     :     0.000208

  7 H s       :     0.663884  s :     0.663884
      pz      :    -0.012098  p :    -0.013079
      px      :    -0.015898
      py      :     0.014917
      dz2     :     0.001087  d :     0.005740
      dxz     :     0.000812
      dyz     :     0.001158
      dx2y2   :     0.000617
      dxy     :     0.002066

  8 H s       :     0.664009  s :     0.664009
      pz      :    -0.012085  p :    -0.013081
      px      :    -0.016009
      py      :     0.015013
      dz2     :     0.001087  d :     0.005739
      dxz     :     0.000819
      dyz     :     0.001152
      dx2y2   :     0.000618
      dxy     :     0.002063

  9 C s       :     3.055005  s :     3.055005
      pz      :     0.527982  p :     1.800968
      px      :     0.501505
      py      :     0.771481
      dz2     :    -0.035211  d :     0.116867
      dxz     :     0.049779
      dyz     :     0.055989
      dx2y2   :     0.027039
      dxy     :     0.019271
      f0      :    -0.008918  f :    -0.007707
      f+1     :    -0.006420
      f-1     :     0.005198
      f+2     :    -0.001484
      f-2     :     0.001218
      f+3     :     0.001550
      f-3     :     0.001149

 10 O s       :     4.306159  s :     4.306159
      pz      :     1.385228  p :     4.875117
      px      :     1.921631
      py      :     1.568258
      dz2     :     0.006980  d :     0.049520
      dxz     :     0.019008
      dyz     :     0.021790
      dx2y2   :     0.000917
      dxy     :     0.000825
      f0      :     0.000243  f :     0.004266
      f+1     :     0.002007
      f-1     :     0.001576
      f+2     :     0.000213
      f-2     :     0.000159
      f+3     :     0.000029
      f-3     :     0.000038

 11 O s       :     4.305984  s :     4.305984
      pz      :     1.385243  p :     4.875118
      px      :     1.921610
      py      :     1.568266
      dz2     :     0.006979  d :     0.049518
      dxz     :     0.019007
      dyz     :     0.021790
      dx2y2   :     0.000917
      dxy     :     0.000825
      f0      :     0.000243  f :     0.004266
      f+1     :     0.002007
      f-1     :     0.001576
      f+2     :     0.000213
      f-2     :     0.000159
      f+3     :     0.000029
      f-3     :     0.000038


SPIN
  0 C s       :     0.017468  s :     0.017468
      pz      :    -0.006087  p :     0.115758
      px      :     0.020066
      py      :     0.101779
      dz2     :    -0.002453  d :     0.006376
      dxz     :    -0.001996
      dyz     :     0.013695
      dx2y2   :    -0.001911
      dxy     :    -0.000958
      f0      :    -0.000163  f :    -0.000625
      f+1     :    -0.001844
      f-1     :     0.001929
      f+2     :    -0.000226
      f-2     :    -0.000075
      f+3     :    -0.000122
      f-3     :    -0.000123

  1 C s       :    -0.002079  s :    -0.002079
      pz      :    -0.004311  p :     0.063469
      px      :     0.005749
      py      :     0.062031
      dz2     :     0.001651  d :     0.006313
      dxz     :    -0.000471
      dyz     :     0.005231
      dx2y2   :    -0.000683
      dxy     :     0.000584
      f0      :    -0.000388  f :    -0.001166
      f+1     :    -0.000124
      f-1     :     0.000391
      f+2     :    -0.000519
      f-2     :    -0.000419
      f+3     :    -0.000078
      f-3     :    -0.000027

  2 C s       :    -0.002061  s :    -0.002061
      pz      :    -0.004376  p :     0.063435
      px      :     0.005789
      py      :     0.062022
      dz2     :     0.001657  d :     0.006300
      dxz     :    -0.000486
      dyz     :     0.005231
      dx2y2   :    -0.000683
      dxy     :     0.000581
      f0      :    -0.000389  f :    -0.001168
      f+1     :    -0.000128
      f-1     :     0.000392
      f+2     :    -0.000522
      f-2     :    -0.000416
      f+3     :    -0.000078
      f-3     :    -0.000028

  3 H s       :    -0.002543  s :    -0.002543
      pz      :    -0.000784  p :     0.000403
      px      :     0.000378
      py      :     0.000808
      dz2     :     0.000010  d :     0.000182
      dxz     :    -0.000041
      dyz     :    -0.000038
      dx2y2   :     0.000132
      dxy     :     0.000118

  4 H s       :    -0.002573  s :    -0.002573
      pz      :    -0.000789  p :     0.000397
      px      :     0.000374
      py      :     0.000812
      dz2     :     0.000010  d :     0.000182
      dxz     :    -0.000040
      dyz     :    -0.000038
      dx2y2   :     0.000133
      dxy     :     0.000117

  5 C s       :    -0.002106  s :    -0.002106
      pz      :    -0.004308  p :     0.063480
      px      :     0.005769
      py      :     0.062018
      dz2     :     0.001649  d :     0.006281
      dxz     :    -0.000477
      dyz     :     0.005218
      dx2y2   :    -0.000689
      dxy     :     0.000580
      f0      :    -0.000389  f :    -0.001165
      f+1     :    -0.000124
      f-1     :     0.000391
      f+2     :    -0.000522
      f-2     :    -0.000415
      f+3     :    -0.000078
      f-3     :    -0.000028

  6 C s       :    -0.002152  s :    -0.002152
      pz      :    -0.004360  p :     0.063427
      px      :     0.005759
      py      :     0.062028
      dz2     :     0.001667  d :     0.006317
      dxz     :    -0.000488
      dyz     :     0.005238
      dx2y2   :    -0.000683
      dxy     :     0.000582
      f0      :    -0.000388  f :    -0.001166
      f+1     :    -0.000127
      f-1     :     0.000392
      f+2     :    -0.000519
      f-2     :    -0.000418
      f+3     :    -0.000078
      f-3     :    -0.000027

  7 H s       :    -0.002552  s :    -0.002552
      pz      :    -0.000783  p :     0.000405
      px      :     0.000377
      py      :     0.000810
      dz2     :     0.000010  d :     0.000182
      dxz     :    -0.000040
      dyz     :    -0.000038
      dx2y2   :     0.000133
      dxy     :     0.000117

  8 H s       :    -0.002510  s :    -0.002510
      pz      :    -0.000784  p :     0.000407
      px      :     0.000381
      py      :     0.000810
      dz2     :     0.000010  d :     0.000182
      dxz     :    -0.000040
      dyz     :    -0.000038
      dx2y2   :     0.000132
      dxy     :     0.000118

  9 C s       :     0.017534  s :     0.017534
      pz      :    -0.006074  p :     0.115740
      px      :     0.020035
      py      :     0.101780
      dz2     :    -0.002435  d :     0.006387
      dxz     :    -0.002001
      dyz     :     0.013694
      dx2y2   :    -0.001913
      dxy     :    -0.000959
      f0      :    -0.000163  f :    -0.000627
      f+1     :    -0.001845
      f-1     :     0.001928
      f+2     :    -0.000226
      f-2     :    -0.000075
      f+3     :    -0.000122
      f-3     :    -0.000123

 10 O s       :     0.003800  s :     0.003800
      pz      :     0.005222  p :     0.223222
      px      :     0.021327
      py      :     0.196673
      dz2     :    -0.000029  d :     0.004788
      dxz     :     0.000336
      dyz     :     0.004479
      dx2y2   :     0.000014
      dxy     :    -0.000012
      f0      :    -0.000090  f :     0.000112
      f+1     :     0.000114
      f-1     :     0.000061
      f+2     :     0.000004
      f-2     :     0.000002
      f+3     :     0.000011
      f-3     :     0.000010

 11 O s       :     0.003829  s :     0.003829
      pz      :     0.005225  p :     0.223217
      px      :     0.021321
      py      :     0.196671
      dz2     :    -0.000029  d :     0.004789
      dxz     :     0.000336
      dyz     :     0.004480
      dx2y2   :     0.000014
      dxy     :    -0.000012
      f0      :    -0.000090  f :     0.000112
      f+1     :     0.000114
      f-1     :     0.000061
      f+2     :     0.000004
      f-2     :     0.000002
      f+3     :     0.000011
      f-3     :     0.000010



                     *******************************
                     * LOEWDIN POPULATION ANALYSIS *
                     *******************************

-------------------------------------------
LOEWDIN ATOMIC CHARGES AND SPIN POPULATIONS
-------------------------------------------
   0 C :   -0.703839    0.126291
   1 C :    0.141803    0.074774
   2 C :    0.141804    0.074781
   3 H :   -0.195647    0.007375
   4 H :   -0.195641    0.007377
   5 C :    0.141805    0.074780
   6 C :    0.141802    0.074775
   7 H :   -0.195642    0.007377
   8 H :   -0.195646    0.007375
   9 C :   -0.703838    0.126292
  10 O :    0.311518    0.209401
  11 O :    0.311520    0.209401

----------------------------------------------------
LOEWDIN REDUCED ORBITAL CHARGES AND SPIN POPULATIONS
----------------------------------------------------
CHARGE
  0 C s       :     2.500641  s :     2.500641
      pz      :     0.852320  p :     2.295464
      px      :     0.824939
      py      :     0.618205
      dz2     :     0.350915  d :     1.255376
      dxz     :     0.403334
      dyz     :     0.256825
      dx2y2   :     0.127821
      dxy     :     0.116481
      f0      :     0.130980  f :     0.652358
      f+1     :     0.244737
      f-1     :     0.106555
      f+2     :     0.047445
      f-2     :     0.053733
      f+3     :     0.032798
      f-3     :     0.036109

  1 C s       :     2.509739  s :     2.509739
      pz      :     0.873600  p :     2.317305
      px      :     0.805884
      py      :     0.637821
      dz2     :     0.187672  d :     0.699598
      dxz     :     0.246948
      dyz     :     0.126100
      dx2y2   :     0.075295
      dxy     :     0.063584
      f0      :     0.059295  f :     0.331554
      f+1     :     0.117910
      f-1     :     0.049783
      f+2     :     0.032229
      f-2     :     0.030048
      f+3     :     0.020527
      f-3     :     0.021763

  2 C s       :     2.509740  s :     2.509740
      pz      :     0.873601  p :     2.317297
      px      :     0.805887
      py      :     0.637808
      dz2     :     0.187672  d :     0.699602
      dxz     :     0.246951
      dyz     :     0.126100
      dx2y2   :     0.075304
      dxy     :     0.063576
      f0      :     0.059295  f :     0.331557
      f+1     :     0.117910
      f-1     :     0.049785
      f+2     :     0.032231
      f-2     :     0.030046
      f+3     :     0.020528
      f-3     :     0.021762

  3 H s       :     0.672483  s :     0.672483
      pz      :     0.097017  p :     0.305328
      px      :     0.122919
      py      :     0.085392
      dz2     :     0.051165  d :     0.217837
      dxz     :     0.053690
      dyz     :     0.025285
      dx2y2   :     0.044790
      dxy     :     0.042908

  4 H s       :     0.672483  s :     0.672483
      pz      :     0.097016  p :     0.305323
      px      :     0.122916
      py      :     0.085391
      dz2     :     0.051164  d :     0.217835
      dxz     :     0.053691
      dyz     :     0.025284
      dx2y2   :     0.044795
      dxy     :     0.042901

  5 C s       :     2.509740  s :     2.509740
      pz      :     0.873601  p :     2.317296
      px      :     0.805887
      py      :     0.637808
      dz2     :     0.187672  d :     0.699602
      dxz     :     0.246952
      dyz     :     0.126099
      dx2y2   :     0.075304
      dxy     :     0.063576
      f0      :     0.059295  f :     0.331557
      f+1     :     0.117910
      f-1     :     0.049785
      f+2     :     0.032231
      f-2     :     0.030046
      f+3     :     0.020528
      f-3     :     0.021762

  6 C s       :     2.509739  s :     2.509739
      pz      :     0.873600  p :     2.317306
      px      :     0.805884
      py      :     0.637821
      dz2     :     0.187672  d :     0.699599
      dxz     :     0.246947
      dyz     :     0.126101
      dx2y2   :     0.075295
      dxy     :     0.063584
      f0      :     0.059295  f :     0.331554
      f+1     :     0.117910
      f-1     :     0.049783
      f+2     :     0.032229
      f-2     :     0.030048
      f+3     :     0.020527
      f-3     :     0.021762

  7 H s       :     0.672483  s :     0.672483
      pz      :     0.097016  p :     0.305324
      px      :     0.122916
      py      :     0.085391
      dz2     :     0.051164  d :     0.217835
      dxz     :     0.053691
      dyz     :     0.025284
      dx2y2   :     0.044795
      dxy     :     0.042901

  8 H s       :     0.672483  s :     0.672483
      pz      :     0.097016  p :     0.305327
      px      :     0.122919
      py      :     0.085392
      dz2     :     0.051164  d :     0.217836
      dxz     :     0.053690
      dyz     :     0.025285
      dx2y2   :     0.044790
      dxy     :     0.042908

  9 C s       :     2.500641  s :     2.500641
      pz      :     0.852320  p :     2.295465
      px      :     0.824939
      py      :     0.618206
      dz2     :     0.350915  d :     1.255374
      dxz     :     0.403334
      dyz     :     0.256825
      dx2y2   :     0.127821
      dxy     :     0.116481
      f0      :     0.130980  f :     0.652358
      f+1     :     0.244737
      f-1     :     0.106555
      f+2     :     0.047445
      f-2     :     0.053733
      f+3     :     0.032798
      f-3     :     0.036109

 10 O s       :     3.222809  s :     3.222809
      pz      :     1.412229  p :     4.155283
      px      :     1.467655
      py      :     1.275399
      dz2     :     0.076903  d :     0.235770
      dxz     :     0.093361
      dyz     :     0.059255
      dx2y2   :     0.003333
      dxy     :     0.002918
      f0      :     0.023118  f :     0.074619
      f+1     :     0.029985
      f-1     :     0.019789
      f+2     :     0.000843
      f-2     :     0.000769
      f+3     :     0.000059
      f-3     :     0.000055

 11 O s       :     3.222808  s :     3.222808
      pz      :     1.412230  p :     4.155282
      px      :     1.467654
      py      :     1.275398
      dz2     :     0.076903  d :     0.235771
      dxz     :     0.093361
      dyz     :     0.059255
      dx2y2   :     0.003333
      dxy     :     0.002918
      f0      :     0.023118  f :     0.074620
      f+1     :     0.029985
      f-1     :     0.019789
      f+2     :     0.000843
      f-2     :     0.000769
      f+3     :     0.000059
      f-3     :     0.000055


SPIN
  0 C s       :     0.001101  s :     0.001101
      pz      :    -0.001887  p :     0.053753
      px      :     0.004121
      py      :     0.051520
      dz2     :     0.000540  d :     0.037442
      dxz     :     0.002762
      dyz     :     0.034440
      dx2y2   :    -0.000339
      dxy     :     0.000040
      f0      :     0.000784  f :     0.033996
      f+1     :     0.002445
      f-1     :     0.025031
      f+2     :     0.000044
      f-2     :     0.000281
      f+3     :     0.003330
      f-3     :     0.002081

  1 C s       :     0.000893  s :     0.000893
      pz      :    -0.000398  p :     0.039367
      px      :     0.003036
      py      :     0.036729
      dz2     :     0.000041  d :     0.018290
      dxz     :     0.001243
      dyz     :     0.013660
      dx2y2   :     0.000867
      dxy     :     0.002479
      f0      :     0.000185  f :     0.016224
      f+1     :     0.000840
      f-1     :     0.010050
      f+2     :     0.000568
      f-2     :     0.001466
      f+3     :     0.001927
      f-3     :     0.001188

  2 C s       :     0.000893  s :     0.000893
      pz      :    -0.000397  p :     0.039376
      px      :     0.003035
      py      :     0.036738
      dz2     :     0.000041  d :     0.018288
      dxz     :     0.001244
      dyz     :     0.013657
      dx2y2   :     0.000867
      dxy     :     0.002478
      f0      :     0.000185  f :     0.016223
      f+1     :     0.000840
      f-1     :     0.010049
      f+2     :     0.000568
      f-2     :     0.001467
      f+3     :     0.001926
      f-3     :     0.001188

  3 H s       :    -0.001519  s :    -0.001519
      pz      :    -0.000155  p :     0.004858
      px      :     0.000734
      py      :     0.004279
      dz2     :    -0.000002  d :     0.004036
      dxz     :    -0.000029
      dyz     :    -0.000497
      dx2y2   :     0.001423
      dxy     :     0.003140

  4 H s       :    -0.001519  s :    -0.001519
      pz      :    -0.000155  p :     0.004859
      px      :     0.000735
      py      :     0.004279
      dz2     :    -0.000002  d :     0.004037
      dxz     :    -0.000028
      dyz     :    -0.000497
      dx2y2   :     0.001424
      dxy     :     0.003140

  5 C s       :     0.000893  s :     0.000893
      pz      :    -0.000397  p :     0.039376
      px      :     0.003035
      py      :     0.036738
      dz2     :     0.000041  d :     0.018288
      dxz     :     0.001244
      dyz     :     0.013657
      dx2y2   :     0.000867
      dxy     :     0.002478
      f0      :     0.000185  f :     0.016223
      f+1     :     0.000840
      f-1     :     0.010049
      f+2     :     0.000568
      f-2     :     0.001467
      f+3     :     0.001926
      f-3     :     0.001188

  6 C s       :     0.000893  s :     0.000893
      pz      :    -0.000398  p :     0.039367
      px      :     0.003036
      py      :     0.036728
      dz2     :     0.000041  d :     0.018291
      dxz     :     0.001243
      dyz     :     0.013660
      dx2y2   :     0.000867
      dxy     :     0.002479
      f0      :     0.000185  f :     0.016224
      f+1     :     0.000840
      f-1     :     0.010050
      f+2     :     0.000568
      f-2     :     0.001466
      f+3     :     0.001927
      f-3     :     0.001188

  7 H s       :    -0.001519  s :    -0.001519
      pz      :    -0.000155  p :     0.004859
      px      :     0.000735
      py      :     0.004279
      dz2     :    -0.000002  d :     0.004037
      dxz     :    -0.000028
      dyz     :    -0.000497
      dx2y2   :     0.001424
      dxy     :     0.003140

  8 H s       :    -0.001519  s :    -0.001519
      pz      :    -0.000155  p :     0.004858
      px      :     0.000734
      py      :     0.004279
      dz2     :    -0.000002  d :     0.004036
      dxz     :    -0.000029
      dyz     :    -0.000497
      dx2y2   :     0.001423
      dxy     :     0.003140

  9 C s       :     0.001101  s :     0.001101
      pz      :    -0.001887  p :     0.053754
      px      :     0.004120
      py      :     0.051520
      dz2     :     0.000540  d :     0.037441
      dxz     :     0.002762
      dyz     :     0.034440
      dx2y2   :    -0.000339
      dxy     :     0.000039
      f0      :     0.000784  f :     0.033996
      f+1     :     0.002445
      f-1     :     0.025031
      f+2     :     0.000044
      f-2     :     0.000281
      f+3     :     0.003330
      f-3     :     0.002081

 10 O s       :     0.003043  s :     0.003043
      pz      :     0.000920  p :     0.178771
      px      :     0.017073
      py      :     0.160779
      dz2     :     0.000256  d :     0.023487
      dxz     :     0.001713
      dyz     :     0.021515
      dx2y2   :    -0.000001
      dxy     :     0.000004
      f0      :    -0.000036  f :     0.004100
      f+1     :     0.000305
      f-1     :     0.003812
      f+2     :    -0.000001
      f-2     :     0.000004
      f+3     :     0.000008
      f-3     :     0.000008

 11 O s       :     0.003043  s :     0.003043
      pz      :     0.000920  p :     0.178771
      px      :     0.017073
      py      :     0.160778
      dz2     :     0.000256  d :     0.023487
      dxz     :     0.001713
      dyz     :     0.021515
      dx2y2   :    -0.000001
      dxy     :     0.000004
      f0      :    -0.000036  f :     0.004100
      f+1     :     0.000305
      f-1     :     0.003812
      f+2     :    -0.000001
      f-2     :     0.000004
      f+3     :     0.000008
      f-3     :     0.000008



                      *****************************
                      * MAYER POPULATION ANALYSIS *
                      *****************************

  NA   - Mulliken gross atomic population
  ZA   - Total nuclear charge
  QA   - Mulliken gross atomic charge
  VA   - Mayer's total valence
  BVA  - Mayer's bonded valence
  FA   - Mayer's free valence

  ATOM       NA         ZA         QA         VA         BVA        FA
  0 C      4.9651     6.0000     1.0349     2.5744     2.5501     0.0243
  1 C      6.4936     6.0000    -0.4936     3.7740     3.7655     0.0085
  2 C      6.4936     6.0000    -0.4936     3.7749     3.7663     0.0085
  3 H      0.6563     1.0000     0.3437     0.7932     0.7932    -0.0000
  4 H      0.6566     1.0000     0.3434     0.7936     0.7936    -0.0000
  5 C      6.4933     6.0000    -0.4933     3.7737     3.7651     0.0085
  6 C      6.4933     6.0000    -0.4933     3.7748     3.7663     0.0085
  7 H      0.6565     1.0000     0.3435     0.7936     0.7936    -0.0000
  8 H      0.6567     1.0000     0.3433     0.7936     0.7936    -0.0000
  9 C      4.9651     6.0000     1.0349     2.5742     2.5499     0.0243
 10 O      9.2351     8.0000    -1.2351     0.9622     0.9107     0.0515
 11 O      9.2349     8.0000    -1.2349     0.9628     0.9113     0.0515

  Mayer bond orders larger than 0.100000
B(  0-C ,  1-C ) :   1.1235 B(  0-C ,  2-C ) :   1.1236 B(  0-C ,  9-C ) :   0.1554 
B(  0-C , 11-O ) :   0.1159 B(  1-C ,  2-C ) :   0.3564 B(  1-C ,  3-H ) :   0.4966 
B(  1-C ,  5-C ) :   1.5981 B(  1-C ,  6-C ) :  -0.1054 B(  1-C , 11-O ) :   0.2112 
B(  2-C ,  4-H ) :   0.4966 B(  2-C ,  5-C ) :  -0.1058 B(  2-C ,  6-C ) :   1.5984 
B(  2-C , 11-O ) :   0.2122 B(  5-C ,  6-C ) :   0.3560 B(  5-C ,  7-H ) :   0.4968 
B(  5-C ,  9-C ) :   1.1232 B(  5-C , 10-O ) :   0.2117 B(  6-C ,  8-H ) :   0.4969 
B(  6-C ,  9-C ) :   1.1240 B(  6-C , 10-O ) :   0.2116 B(  9-C , 10-O ) :   0.1154 


-------
TIMINGS
-------

Total SCF time: 0 days 0 hours 2 min 34 sec 

Total time                  ....     154.559 sec
Sum of individual times     ....     151.848 sec  ( 98.2%)

SCF preparation             ....       3.119 sec  (  2.0%)
Fock matrix formation       ....     103.300 sec  ( 66.8%)
  Startup                   ....       7.578 sec  (  7.3% of F)
  Split-RI-J                ....      10.880 sec  ( 10.5% of F)
  Chain of spheres X        ....      40.038 sec  ( 38.8% of F)
  XC integration            ....      30.832 sec  ( 29.8% of F)
    XC Preparation          ....       0.000 sec  (  0.0% of XC)
    Basis function eval.    ....       1.339 sec  (  4.3% of XC)
    Density eval.           ....       9.519 sec  ( 30.9% of XC)
    XC-Functional eval.     ....       0.262 sec  (  0.8% of XC)
    XC-Potential eval.      ....      12.931 sec  ( 41.9% of XC)
  CPCM terms                ....       3.419 sec  (  3.3% of F)
Diagonalization             ....       0.000 sec  (  0.0%)
Density matrix formation    ....      17.768 sec  ( 11.5%)
Total Energy calculation    ....       6.789 sec  (  4.4%)
Population analysis         ....       1.495 sec  (  1.0%)
Orbital Transformation      ....       1.638 sec  (  1.1%)
Orbital Orthonormalization  ....       0.000 sec  (  0.0%)
DIIS solution               ....      13.665 sec  (  8.8%)
SOSCF solution              ....       4.074 sec  (  2.6%)
Finished LeanSCF after 155.3 sec

Maximum memory used throughout the entire LEANSCF-calculation: 56.1 MB


-------------------------------------------------------------------------------
                          DFT DISPERSION CORRECTION                            
                                                                               
                              DFTD3 V3.1  Rev 1                                
                          USING Becke-Johnson damping                          
-------------------------------------------------------------------------------
The TPSSH functional is recognized
Active option DFTDOPT                   ...         4   

molecular C6(AA) [au] = 1959.563254 


            DFT-D V3
 parameters
 s6 scaling factor         :     1.0000 
 a1 scaling factor         :     0.4529 
 s8 scaling factor         :     2.2382 
 a2 scaling factor         :     4.6550 
 ad hoc parameters k1-k3   :    16.0000     1.3333    -4.0000 

 Edisp/kcal,au: -8.712056773539  -0.013883544718 
 E6   /kcal   :  -4.052514188 
 E8   /kcal   :  -4.659542586 
 % E8         :  53.483840923 

-------------------------   ----------------
Dispersion correction           -0.013883545
-------------------------   ----------------


-------------------------   --------------------
FINAL SINGLE POINT ENERGY      -381.784233434735
-------------------------   --------------------



           ************************************************************
           *        Program running with 15 parallel MPI-processes    *
           *              working on a common directory               *
           ************************************************************

------------------------------------------------------------------------------
                              ORCA PROPERTY CALCULATIONS
------------------------------------------------------------------------------

GBWName                                 ... cs_rporg_w07_red_solv_01.gbw
Number of atoms                         ...     12
Number of basis functions               ...    508
Max core memory                         ...   3500 MB

Electric properties:
Dipole moment                           ... YES
Quadrupole moment                       ...  NO
Static polarizability (Dipole/Dipole)   ...  NO
Static polarizability (Dipole/Quad.)    ...  NO
Static polarizability (Quad./Quad.)     ...  NO
Static polarizability (Velocity)        ...  NO

Atomic electric properties:
Dipole moment                           ...  NO
Quadrupole moment                       ...  NO
Static polarizability                   ...  NO

Choice of electric origin               ... Center of mass
Position of electric origin             ...     0.000000    -0.000003     2.638680

General magnetic properties:
Magnetizability                         ...  NO

EPR properties:
g-Tensor (aka g-matrix)                 ...  NO
Zero-Field splitting spin-orbit         ...  NO
Zero-field splitting spin-spin          ...  NO
Hyperfine couplings                     ...  NO (   0 nuclei)
Quadrupole couplings                    ...  NO (   0 nuclei)
Contact density                         ...  NO (   0 nuclei)

NMR properties:
Chemical shifts                         ...  NO (   0 nuclei)
Spin-rotation constants                 ...  NO (   0 nuclei)
Spin-spin couplings                     ...  NO (   0 nuclei,    0 pairs)

Choice of magnetic origin               ... GIAO
Position of magnetic origin             ...     0.000000     0.000000     0.000000

Properties with geometric perturbations:
SCF Hessian                             ...  NO
IR spectrum                             ...  NO
VCD spectrum                            ...  NO
X-ray spectroscopy properties:
SCF XES/XAS/RIXS spectra                ...  NO


-------------
DIPOLE MOMENT
-------------

Method             : SCF
Type of density    : Electron Density
Multiplicity       :   2
Irrep              :   0
Energy             :  -381.7703498900173145 Eh
Relativity type    : 
Basis              : AO
                                X                 Y                 Z
Electronic contribution:     -0.000002130      -0.000006319      -0.000010227
Nuclear contribution   :     -0.000001132       0.000017886      -0.000000443
                        -----------------------------------------
Total Dipole Moment    :     -0.000003262       0.000011567      -0.000010670
                        -----------------------------------------
Magnitude (a.u.)       :      0.000016071
Magnitude (Debye)      :      0.000040850



--------------------
Rotational spectrum 
--------------------
 
Rotational constants in cm-1:             0.187010             0.052742             0.041140 
Rotational constants in MHz :          5606.406459          1581.174709          1233.336765 

Dipole components along the rotational axes: 
x,y,z [a.u.] :    -0.000011    -0.000000    -0.000012 
x,y,z [Debye]:    -0.000027    -0.000001    -0.000031 

 

Dipole moment calculation done in   0.3 sec 

Maximum memory used throughout the entire PROP-calculation: 28.8 MB

--------------------------------
SUGGESTED CITATIONS FOR THIS RUN
--------------------------------

Below you find a list of papers that are relevant to this ORCA run
We neither can nor want to force you to cite these papers, but we appreciate if you do
You receive ORCA, which is the product of decades of hard work by many enthusiastic individuals, for free
The only thing we kindly ask in return is that you cite our papers,
We deeply appreciate it, if you show your appreciation for ORCA by not just citing the generic ORCA reference.

Please note that relegating all ORCA citations to the supporting information does *not* help us.
SI sections are not indexed - citations you put there will not count into any citation statistics
But we need these citations in order to attract the funding resources that allow us to do what we are doing

Therefore, if you are a happy ORCA user, please consider citing a few of the papers listed below in the main body of your paper

In addition to the list printed below, the program has created the file cs_rporg_w07_red_solv_01.bibtex that contains the list in bibtex format
You can import this file easily into all common literature databanks and citation aid programs


List of essential papers. We consider these as the minimum necessary citations

  1. Neese,F.
     Software update: the ORCA program system, version 5.0
     WIRES Comput. Molec. Sci., 2022 12(1)e1606
     doi.org/10.1002/wcms.1606

List of papers to cite with high priority. The work reported in these papers was absolutely
necessary for this run to complete.
Our perspective: the developers of density functionals and basis sets usually get cited in chemistry papers
Good! But without the algorithms to do something with them, the functionals or basis sets would not do anything.
Hence, in our opinion, the algorithm design and method developments papers are equally worthy of getting cited

  1. Neese,F.
     An improvement of the resolution of the identity approximation for the formation of the Coulomb matrix
     J. Comp. Chem., 2003 24(14)1740-1747
     doi.org/10.1002/jcc.10318
  2. Neese,F.; Wennmohs,F.; Hansen,A.; Becker,U.
     Efficient, approximate and parallel Hartree-Fock and hybrid DFT calculations. A 'chain-of-spheres' algorithm for the Hartree-Fock exchange
     Chem. Phys., 2009 356(1-3)98-109
     doi.org/10.1016/j.chemphys.2008.10.036
  3. Garcia-Rates,M.; Neese,F.
     Effect of the Solute Cavity on the Solvation Energy and its Derivatives within the Framework of the Gaussian Charge Scheme
     J. Comput. Chem., 2020 41 922-939
     doi.org/10.1002/jcc.26139
  4. Helmich-Paris,B.; de Souza,B.; Neese,F.; Izsák,R.
     An improved chain of spheres for exchange algorithm
     J. Chem. Phys., 2021 155 104109
     doi.org/doi: 10.1063/5.0058766.
  5. Neese,F.
     The SHARK Integral Generation and Digestion System
     J. Comp. Chem., 2022  1-16
     doi.org/10.1002/jcc.26942
  6. Grimme,S.; Antony,J.; Ehrlich,S.; Krieg,H.
     A consistent and accurate ab initio parametrization of density functional dispersion correction (DFT-D) for the 94 elements H-Pu
     J. Chem. Phys., 2010 132 154104-XXXX
     doi.org/10.1063/1.3382344
  7. Grimme,S.; Ehrlich,S.; Goerigk,L.
     Effect of the damping function in dispersion corrected density functional theory
     J. Comput. Chem., 2011 32(7)1456-1465
     doi.org/10.1002/jcc.21759

List of suggested additional citations. These are papers that are important in the 'surrounding' of 
of this run, or papers that preceded the highly important papers. If you like your results we are grateful for a citation.

  1. Izsak,R.; Neese,F.
     An overlap fitted chain of spheres exchange method
     J. Chem. Phys., 2011 135 144105
     doi.org/10.1063/1.3646921
  2. Izsak,R.; Hansen,A.; Neese,F.
     The resolution of identity and chain of spheres approximations for the LPNO-CCSD singles Fock term
     Molec. Phys., 2012 110 2413-2417
     doi.org/10.1080/00268976.2012.687466
  3. Neese,F.
     The ORCA program system
     WIRES Comput. Molec. Sci., 2012 2(1)73-78
     doi.org/10.1002/wcms.81
  4. Izsak,R.; Neese,F.; Klopper,W.
     Robust fitting techniques in the chain of spheres approximation to the Fock exchange: The role of the complementary space
     J. Chem. Phys., 2013 139 
     doi.org/10.1063/1.4819264
  5. Neese,F.
     Software update: the ORCA program system, version 4.0
     WIRES Comput. Molec. Sci., 2018 8(1)1-6
     doi.org/10.1002/wcms.1327
  6. Neese,F.; Wennmohs,F.; Becker,U.; Riplinger,C.
     The ORCA quantum chemistry program package
     J. Chem. Phys., 2020 152 Art. No. L224108
     doi.org/10.1063/5.0004608

List of optional additional citations

  1. Neese,F.
     Approximate second-order SCF convergence for spin unrestricted wavefunctions
     Chem. Phys. Lett., 2000 325(1-3)93-98
     doi.org/10.1016/s0009-2614(00)00662-x

Timings for individual modules:

Sum of individual times          ...      171.194 sec (=   2.853 min)
Startup calculation              ...        6.611 sec (=   0.110 min)   3.9 %
SCF iterations                   ...      162.289 sec (=   2.705 min)  94.8 %
Property calculations            ...        2.294 sec (=   0.038 min)   1.3 %
                             ****ORCA TERMINATED NORMALLY****
TOTAL RUN TIME: 0 days 0 hours 2 minutes 54 seconds 867 msec
