 vasp.6.4.2 20Jul23 (build Sep 06 2024 14:39:43) complex                        
  
 executed on             LinuxIFC date 2025.10.04  03:05:25
 running   90 mpi-ranks, on    6 nodes
 distrk:  each k-point on   90 cores,    1 groups
 distr:  one band on NCORE=  15 cores,    6 groups


--------------------------------------------------------------------------------------------------------


 INCAR:
   SYSTEM = 103_red
   ISTART = 1
   ICHARG = 2
   INIWAV = 1
   NELM = 100
   ALGO = fast   	
   ISPIN = 2
   EDIFF = 1E-05
   ISMEAR = 0
   SIGMA = 0.05
   PREC = accurate
   ENCUT = 500
   LREAL = auto  	
   LWAVE = .TRUE.
   LCHARG = .FALSE.
   LAECHG = .FALSE.
   LVHAR = .FALSE.
   LVTOT = .FALSE.
   EDIFFG = -0.02
   IBRION = 2
   NSW = 500
   ISIF = 2
   POTIM = 0.5
   IVDW = 11
   LPLANE = .TRUE.
   NCORE = 15
   LSCALU = .FALSE.
   NSIM = 4
   LSOL = .TRUE.
   EB_K = 35.6880
   LAMBDA_D_K = 6.60
   TAU = 0
   NELECT = 51

 POTCAR:    PAW_PBE C 08Apr2002                   
 POTCAR:    PAW_PBE H 15Jun2001                   
 -----------------------------------------------------------------------------
|                                                                             |
|           W    W    AA    RRRRR   N    N  II  N    N   GGGG   !!!           |
|           W    W   A  A   R    R  NN   N  II  NN   N  G    G  !!!           |
|           W    W  A    A  R    R  N N  N  II  N N  N  G       !!!           |
|           W WW W  AAAAAA  RRRRR   N  N N  II  N  N N  G  GGG   !            |
|           WW  WW  A    A  R   R   N   NN  II  N   NN  G    G                |
|           W    W  A    A  R    R  N    N  II  N    N   GGGG   !!!           |
|                                                                             |
|     You use a magnetic or noncollinear calculation, but did not specify     |
|     the initial magnetic moment with the MAGMOM tag. Note that a            |
|     default of 1 will be used for all atoms. This ferromagnetic setup       |
|     may break the symmetry of the crystal, in particular it may rule        |
|     out finding an antiferromagnetic solution. Thence, we recommend         |
|     setting the initial magnetic moment manually or verifying carefully     |
|     that this magnetic setup is desired.                                    |
|                                                                             |
 -----------------------------------------------------------------------------

 POTCAR:    PAW_PBE C 08Apr2002                   
   SHA256 =  253f7b50bb8d59471dbedb8285d89021f4a42ed1a2c5d38a03a736e69125dd95 C/POTCAR              
   COPYR  = (c) Copyright 08Apr2002 Georg Kresse                                                    
   COPYR  = This file is part of the software VASP. Any use, copying, and all other rights are regul
   COPYR  = If you do not have a valid VASP license, you may not use, copy or distribute this file. 
   VRHFIN =C: s2p2                                                                                  
   LEXCH  = PE                                                                                      
   EATOM  =   147.1560 eV,   10.8157 Ry                                                             
                                                                                                    
   TITEL  = PAW_PBE C 08Apr2002                                                                     
   LULTRA =        F    use ultrasoft PP ?                                                          
   IUNSCR =        1    unscreen: 0-lin 1-nonlin 2-no                                               
   RPACOR =    1.200    partial core radius                                                         
   POMASS =   12.011; ZVAL   =    4.000    mass and valenz                                          
   RCORE  =    1.500    outmost cutoff radius                                                       
   RWIGS  =    1.630; RWIGS  =    0.863    wigner-seitz radius (au A)                               
   ENMAX  =  400.000; ENMIN  =  300.000 eV                                                          
   ICORE  =        2    local potential                                                             
   LCOR   =        T    correct aug charges                                                         
   LPAW   =        T    paw PP                                                                      
   EAUG   =  644.873                                                                                
   DEXC   =    0.000                                                                                
   RMAX   =    1.529    core radius for proj-oper                                                   
   RAUG   =    1.300    factor for augmentation sphere                                              
   RDEP   =    1.501    radius for radial grids                                                     
   RDEPT  =    1.300    core radius for aug-charge                                                  
                                                                                                    
   Atomic configuration                                                                             
    4 entries                                                                                       
     n  l   j            E        occ.                                                              
     1  0  0.50      -273.3789   2.0000                                                             
     2  0  0.50       -13.7508   2.0000                                                             
     2  1  0.50        -5.2854   2.0000                                                             
     3  2  1.50        -5.4423   0.0000                                                             
   Description                                                                                      
     l       E           TYP  RCUT    TYP  RCUT                                                     
     0    -13.7508458     23  1.200                                                                 
     0     -8.2022199     23  1.200                                                                 
     1     -5.2854383     23  1.500                                                                 
     1     34.0145650     23  1.500                                                                 
     2     -5.4423304      7  1.500                                                                 
  local pseudopotential read in
  partial core-charges read in
  partial kinetic energy density read in
  atomic valenz-charges read in
  non local Contribution for L=           0  read in
    real space projection operators read in
  non local Contribution for L=           0  read in
    real space projection operators read in
  non local Contribution for L=           1  read in
    real space projection operators read in
  non local Contribution for L=           1  read in
    real space projection operators read in
    PAW grid and wavefunctions read in
 
   number of l-projection  operators is LMAX  =           4
   number of lm-projection operators is LMMAX =           8
 
 POTCAR:    PAW_PBE H 15Jun2001                   
   SHA256 =  030f79b5d3ab3cf0e668861823c8fb652ff669f3e15e46930bd03bfd63a607b6 H/POTCAR              
   COPYR  = (c) Copyright 15Jun2001 Georg Kresse                                                    
   COPYR  = This file is part of the software VASP. Any use, copying, and all other rights are regul
   COPYR  = If you do not have a valid VASP license, you may not use, copy or distribute this file. 
   VRHFIN =H: ultrasoft test                                                                        
   LEXCH  = PE                                                                                      
   EATOM  =    12.4884 eV,    0.9179 Ry                                                             
                                                                                                    
   TITEL  = PAW_PBE H 15Jun2001                                                                     
   LULTRA =        F    use ultrasoft PP ?                                                          
   IUNSCR =        0    unscreen: 0-lin 1-nonlin 2-no                                               
   RPACOR =    0.000    partial core radius                                                         
   POMASS =    1.000; ZVAL   =    1.000    mass and valenz                                          
   RCORE  =    1.100    outmost cutoff radius                                                       
   RWIGS  =    0.700; RWIGS  =    0.370    wigner-seitz radius (au A)                               
   ENMAX  =  250.000; ENMIN  =  200.000 eV                                                          
   RCLOC  =    0.701    cutoff for local pot                                                        
   LCOR   =        T    correct aug charges                                                         
   LPAW   =        T    paw PP                                                                      
   EAUG   =  400.000                                                                                
   RMAX   =    1.123    core radius for proj-oper                                                   
   RAUG   =    1.200    factor for augmentation sphere                                              
   RDEP   =    1.112    radius for radial grids                                                     
   RDEPT  =    0.926    core radius for aug-charge                                                  
                                                                                                    
   Atomic configuration                                                                             
    2 entries                                                                                       
     n  l   j            E        occ.                                                              
     1  0  0.50        -6.4927   1.0000                                                             
     2  1  0.50        -3.4015   0.0000                                                             
   Description                                                                                      
     l       E           TYP  RCUT    TYP  RCUT                                                     
     0     -6.4927494     23  1.100                                                                 
     0      6.8029130     23  1.100                                                                 
     1     -4.0817478     23  1.100                                                                 
  local pseudopotential read in
  atomic valenz-charges read in
  non local Contribution for L=           0  read in
    real space projection operators read in
  non local Contribution for L=           0  read in
    real space projection operators read in
  non local Contribution for L=           1  read in
    real space projection operators read in
    PAW grid and wavefunctions read in
 
   number of l-projection  operators is LMAX  =           3
   number of lm-projection operators is LMMAX =           5
 
 Optimization of the real space projectors (new method)

 maximal supplied QI-value         = 25.13
 optimisation between [QCUT,QGAM] = [ 11.31, 22.87] = [ 35.82,146.48] Ry 
 Optimized for a Real-space Cutoff    1.03 Angstroem

   l    n(q)    QCUT    max X(q) W(low)/X(q) W(high)/X(q)  e(spline) 
   0      7    11.310   115.676    0.20E-03    0.90E-03    0.20E-06
   0      7    11.310    87.132    0.20E-03    0.89E-03    0.19E-06
   1      6    11.310     4.429    0.16E-03    0.28E-03    0.12E-06
   1      6    11.310     2.733    0.12E-03    0.21E-03    0.99E-07
 Optimization of the real space projectors (new method)

 maximal supplied QI-value         = 34.20
 optimisation between [QCUT,QGAM] = [ 11.29, 22.57] = [ 35.68,142.71] Ry 
 Optimized for a Real-space Cutoff    1.20 Angstroem

   l    n(q)    QCUT    max X(q) W(low)/X(q) W(high)/X(q)  e(spline) 
   0      8    11.287    19.460    0.22E-03    0.50E-03    0.19E-06
   0      8    11.287    12.209    0.21E-03    0.48E-03    0.18E-06
   1      8    11.287     4.655    0.21E-03    0.11E-04    0.26E-06
  PAW_PBE C 08Apr2002                   :
 energy of atom  1       EATOM= -147.1560
 kinetic energy error for atom=    0.0076 (will be added to EATOM!!)
  PAW_PBE H 15Jun2001                   :
 energy of atom  2       EATOM=  -12.4884
 kinetic energy error for atom=    0.0020 (will be added to EATOM!!)
 
 
 POSCAR: C H
  positions in direct lattice
  velocities in cartesian coordinates
 exchange correlation table for  LEXCH =        8
   RHO(1)=    0.500       N(1)  =     2000
   RHO(2)=  100.500       N(2)  =     4000
 


--------------------------------------------------------------------------------------------------------


 ion  position               nearest neighbor table
   1  0.527  0.468  0.500-  22 1.09   6 1.37   2 1.44
   2  0.536  0.503  0.500-   3 1.42   9 1.43   1 1.44
   3  0.510  0.527  0.500-  18 1.09   4 1.38   2 1.42
   4  0.477  0.518  0.500-   3 1.38   5 1.44   8 1.49
   5  0.468  0.483  0.500-   6 1.42   4 1.44   7 1.48
   6  0.494  0.459  0.500-  11 1.09   1 1.37   5 1.42
   7  0.433  0.473  0.500-  12 1.09  13 1.10  14 1.10   5 1.48
   8  0.450  0.544  0.500-  17 1.09  15 1.10  16 1.10   4 1.49
   9  0.570  0.514  0.500-  21 1.09  10 1.37   2 1.43
  10  0.598  0.494  0.500-  20 1.09  19 1.09   9 1.37
  11  0.487  0.433  0.500-   6 1.09
  12  0.430  0.446  0.500-   7 1.09
  13  0.419  0.483  0.478-   7 1.10
  14  0.419  0.483  0.522-   7 1.10
  15  0.434  0.542  0.522-   8 1.10
  16  0.434  0.542  0.478-   8 1.10
  17  0.461  0.570  0.500-   8 1.09
  18  0.517  0.554  0.500-   3 1.09
  19  0.596  0.467  0.500-  10 1.09
  20  0.622  0.505  0.500-  10 1.09
  21  0.573  0.541  0.500-   9 1.09
  22  0.546  0.449  0.500-   1 1.09
 
  LATTYP: Found a simple cubic cell.
 ALAT       =    40.0000000000
  
  Lattice vectors:
  
 A1 = (  40.0000000000,   0.0000000000,   0.0000000000)
 A2 = (   0.0000000000,  40.0000000000,   0.0000000000)
 A3 = (   0.0000000000,   0.0000000000,  40.0000000000)


Analysis of symmetry for initial positions (statically):
=====================================================================
 Subroutine PRICEL returns:
 Original cell was already a primitive cell.
 

 Routine SETGRP: Setting up the symmetry group for a 
 simple cubic supercell.


 Subroutine GETGRP returns: Found  1 space group operations
 (whereof  1 operations were pure point group operations)
 out of a pool of 48 trial point group operations.


The static configuration has the point symmetry C_1 .


Analysis of symmetry for dynamics (positions and initial velocities):
=====================================================================
 Subroutine PRICEL returns:
 Original cell was already a primitive cell.
 

 Routine SETGRP: Setting up the symmetry group for a 
 simple cubic supercell.


 Subroutine GETGRP returns: Found  1 space group operations
 (whereof  1 operations were pure point group operations)
 out of a pool of 48 trial point group operations.


The dynamic configuration has the point symmetry C_1 .


Analysis of constrained symmetry for selective dynamics:
=====================================================================
 Subroutine PRICEL returns:
 Original cell was already a primitive cell.
 

 Routine SETGRP: Setting up the symmetry group for a 
 simple cubic supercell.


 Subroutine GETGRP returns: Found  1 space group operations
 (whereof  1 operations were pure point group operations)
 out of a pool of 48 trial point group operations.


The constrained configuration has the point symmetry C_1 .


Analysis of structural, dynamic, and magnetic symmetry:
=====================================================================
 Subroutine PRICEL returns:
 Original cell was already a primitive cell.
 

 Routine SETGRP: Setting up the symmetry group for a 
 simple cubic supercell.


 Subroutine GETGRP returns: Found  1 space group operations
 (whereof  1 operations were pure point group operations)
 out of a pool of 48 trial point group operations.


The overall configuration has the point symmetry C_1 .


 Subroutine INISYM returns: Found  1 space group operations
 (whereof  1 operations are pure point group operations),
 and found     1 'primitive' translations


----------------------------------------------------------------------------------------

                                     Primitive cell                                     

  volume of cell :   64000.0000

  direct lattice vectors                    reciprocal lattice vectors
    40.000000000  0.000000000  0.000000000     0.025000000  0.000000000  0.000000000
     0.000000000 40.000000000  0.000000000     0.000000000  0.025000000  0.000000000
     0.000000000  0.000000000 40.000000000     0.000000000  0.000000000  0.025000000

  length of vectors
    40.000000000 40.000000000 40.000000000     0.025000000  0.025000000  0.025000000

  position of ions in fractional coordinates (direct lattice)
     0.527036645  0.468200406  0.500005598
     0.535931596  0.502978273  0.500003515
     0.509970484  0.527243958  0.500002516
     0.476591915  0.518414308  0.499999665
     0.468091183  0.483392760  0.500001088
     0.493943944  0.459075757  0.500005451
     0.432602339  0.472779831  0.499999583
     0.449797977  0.544446270  0.499998024
     0.569785108  0.514383017  0.500001806
     0.597595593  0.494355432  0.499991751
     0.487063228  0.432725301  0.500007498
     0.429904813  0.445572675  0.500001875
     0.419431427  0.483176881  0.478133608
     0.419428700  0.483180418  0.521862350
     0.433531751  0.541847276  0.522019503
     0.433530074  0.541842768  0.477977273
     0.460510171  0.569624194  0.499995036
     0.516916980  0.553599618  0.500001269
     0.596182660  0.467176400  0.499984494
     0.622423138  0.505491730  0.499992180
     0.573376713  0.541438870  0.500008382
     0.546352560  0.449054858  0.500007534

  ion indices of the primitive-cell ions
   primitive index   ion index
                 1           1
                 2           2
                 3           3
                 4           4
                 5           5
                 6           6
                 7           7
                 8           8
                 9           9
                10          10
                11          11
                12          12
                13          13
                14          14
                15          15
                16          16
                17          17
                18          18
                19          19
                20          20
                21          21
                22          22

----------------------------------------------------------------------------------------

 
 
 KPOINTS: K-Point Grid                            

Automatic generation of k-mesh.
 Grid dimensions read from file:
 generate k-points for:    1    1    1

 Generating k-lattice:

  Cartesian coordinates                     Fractional coordinates (reciprocal lattice)
     0.025000000  0.000000000  0.000000000     1.000000000  0.000000000  0.000000000
     0.000000000  0.025000000  0.000000000     0.000000000  1.000000000  0.000000000
     0.000000000  0.000000000  0.025000000     0.000000000  0.000000000  1.000000000

  Length of vectors
     0.025000000  0.025000000  0.025000000

  Shift w.r.t. Gamma in fractional coordinates (k-lattice)
     0.000000000  0.000000000  0.000000000

 
 Subroutine IBZKPT returns following result:
 ===========================================
 
 Found      1 irreducible k-points:
 
 Following reciprocal coordinates:
            Coordinates               Weight
  0.000000  0.000000  0.000000      1.000000
 
 Following cartesian coordinates:
            Coordinates               Weight
  0.000000  0.000000  0.000000      1.000000
 


--------------------------------------------------------------------------------------------------------




 Dimension of arrays:
   k-points           NKPTS =      1   k-points in BZ     NKDIM =      1   number of bands    NBANDS=     48
   number of dos      NEDOS =    301   number of ions     NIONS =     22
   non local maximal  LDIM  =      4   non local SUM 2l+1 LMDIM =      8
   total plane-waves  NPLWV = ******
   max r-space proj   IRMAX =   2915   max aug-charges    IRDMAX=   4885
   dimension x,y,z NGX =   294 NGY =  294 NGZ =  294
   dimension x,y,z NGXF=   588 NGYF=  588 NGZF=  588
   support grid    NGXF=   588 NGYF=  588 NGZF=  588
   ions per type =              10  12
   NGX,Y,Z   is equivalent  to a cutoff of  12.22, 12.22, 12.22 a.u.
   NGXF,Y,Z  is equivalent  to a cutoff of  24.44, 24.44, 24.44 a.u.

 SYSTEM =  103_red                                 
 POSCAR =  C H                                     

 Startparameter for this run:
   NWRITE =      2    write-flag & timer
   PREC   = accura    normal or accurate (medium, high low for compatibility)
   ISTART =      1    job   : 0-new  1-cont  2-samecut
   ICHARG =      2    charge: 1-file 2-atom 10-const
   ISPIN  =      2    spin polarized calculation?
   LNONCOLLINEAR =      F non collinear calculations
   LSORBIT =      F    spin-orbit coupling
   INIWAV =      1    electr: 0-lowe 1-rand  2-diag
   LASPH  =      F    aspherical Exc in radial PAW
 Electronic Relaxation 1
   ENCUT  =  500.0 eV  36.75 Ry    6.06 a.u.  72.93 72.93 72.93*2*pi/ulx,y,z
   ENINI  =  500.0     initial cutoff
   ENAUG  =  644.9 eV  augmentation charge cutoff
   NELM   =    100;   NELMIN=  2; NELMDL=  0     # of ELM steps 
   EDIFF  = 0.1E-04   stopping-criterion for ELM
   LREAL  =      T    real-space projection
   NLSPLINE    = F    spline interpolate recip. space projectors
   LCOMPAT=      F    compatible to vasp.4.4
   GGA_COMPAT  = T    GGA compatible to vasp.4.4-vasp.4.6
   LMAXPAW     = -100 max onsite density
   LMAXMIX     =    2 max onsite mixed and CHGCAR
   VOSKOWN=      0    Vosko Wilk Nusair interpolation
   ROPT   =   -0.00025  -0.00025
 Ionic relaxation
   EDIFFG = -.2E-01   stopping-criterion for IOM
   NSW    =    500    number of steps for IOM
   NBLOCK =      1;   KBLOCK =    500    inner block; outer block 
   IBRION =      2    ionic relax: 0-MD 1-quasi-New 2-CG
   NFREE  =      1    steps in history (QN), initial steepest desc. (CG)
   ISIF   =      2    stress and relaxation
   IWAVPR =     11    prediction:  0-non 1-charg 2-wave 3-comb
   ISYM   =      2    0-nonsym 1-usesym 2-fastsym
   LCORR  =      T    Harris-Foulkes like correction to forces

   POTIM  = 0.5000    time-step for ionic-motion
   TEIN   =    0.0    initial temperature
   TEBEG  =    0.0;   TEEND  =   0.0 temperature during run
   SMASS  =  -3.00    Nose mass-parameter (am)
   estimated Nose-frequenzy (Omega)   =  0.10E-29 period in steps = 0.13E+47 mass=  -0.366E-25a.u.
   SCALEE = 1.0000    scale energy and forces
   NPACO  =    256;   APACO  = 10.0  distance and # of slots for P.C.
   PSTRESS=    0.0 pullay stress

  Mass of Ions in am
   POMASS =  12.01  1.00
  Ionic Valenz
   ZVAL   =   4.00  1.00
  Atomic Wigner-Seitz radii
   RWIGS  =  -1.00 -1.00
  virtual crystal weights 
   VCA    =   1.00  1.00
   NELECT =      51.0000    total number of electrons
   NUPDOWN=      -1.0000    fix difference up-down

 DOS related values:
   EMIN   =  10.00;   EMAX   =-10.00  energy-range for DOS
   EFERMI =   0.00;   METHOD = LEGACY      
   ISMEAR =     0;   SIGMA  =   0.05  broadening in eV -4-tet -1-fermi 0-gaus

 Electronic relaxation 2 (details)
   IALGO  =     68    algorithm
   LDIAG  =      T    sub-space diagonalisation (order eigenvalues)
   LSUBROT=      F    optimize rotation matrix (better conditioning)
   TURBO    =      0    0=normal 1=particle mesh
   IRESTART =      0    0=no restart 2=restart with 2 vectors
   NREBOOT  =      0    no. of reboots
   NMIN     =      0    reboot dimension
   EREF     =   0.00    reference energy to select bands
   IMIX   =      4    mixing-type and parameters
     AMIX     =   0.40;   BMIX     =  1.00
     AMIX_MAG =   1.60;   BMIX_MAG =  1.00
     AMIN     =   0.10
     WC   =   100.;   INIMIX=   1;  MIXPRE=   1;  MAXMIX= -45

 Intra band minimization:
   WEIMIN = 0.0010     energy-eigenvalue tresh-hold
   EBREAK =  0.52E-07  absolut break condition
   DEPER  =   0.30     relativ break condition  

   TIME   =   0.40     timestep for ELM

  volume/ion in A,a.u.               =    2909.09     19631.51
  Fermi-wavevector in a.u.,A,eV,Ry     =   0.151777  0.286816  0.313426  0.023036
  Thomas-Fermi vector in A             =   0.830723
 
 Write flags
   LWAVE        =      T    write WAVECAR
   LDOWNSAMPLE  =      F    k-point downsampling of WAVECAR
   LCHARG       =      F    write CHGCAR
   LVTOT        =      F    write LOCPOT, total local potential
   LVHAR        =      F    write LOCPOT, Hartree potential only
   LELF         =      F    write electronic localiz. function (ELF)
   LORBIT       =      0    0 simple, 1 ext, 2 COOP (PROOUT), +10 PAW based schemes


 Dipole corrections
   LMONO  =      F    monopole corrections only (constant potential shift)
   LDIPOL =      F    correct potential (dipole corrections)
   IDIPOL =      0    1-x, 2-y, 3-z, 4-all directions 
   EPSILON=  1.0000000 bulk dielectric constant

 Exchange correlation treatment:
   GGA     =    --    GGA type
   LEXCH   =     8    internal setting for exchange type
   LIBXC   =     F    Libxc                    
   VOSKOWN =     0    Vosko Wilk Nusair interpolation
   LHFCALC =     F    Hartree Fock is set to
   LHFONE  =     F    Hartree Fock one center treatment
   AEXX    =    0.0000 exact exchange contribution

 Linear response parameters
   LEPSILON=     F    determine dielectric tensor
   LRPA    =     F    only Hartree local field effects (RPA)
   LNABLA  =     F    use nabla operator in PAW spheres
   LVEL    =     F    velocity operator in full k-point grid
   CSHIFT  =0.1000    complex shift for real part using Kramers Kronig
   OMEGAMAX=  -1.0    maximum frequency
   DEG_THRESHOLD= 0.2000000E-02 threshold for treating states as degnerate
   RTIME   =   -0.100 relaxation time in fs
  (WPLASMAI=    0.000 imaginary part of plasma frequency in eV, 0.658/RTIME)
   DFIELD  = 0.0000000 0.0000000 0.0000000 field for delta impulse in time
 
  Optional k-point grid parameters
   LKPOINTS_OPT  =     F    use optional k-point grid
   KPOINTS_OPT_MODE=     1    mode for optional k-point grid
 
 Orbital magnetization related:
   ORBITALMAG=     F  switch on orbital magnetization
   LCHIMAG   =     F  perturbation theory with respect to B field
   DQ        =  0.001000  dq finite difference perturbation B field
   LLRAUG    =     F  two centre corrections for induced B field
   LBONE     =     F  B-component reconstruction in AE one-centre
   LVGVCALC  =     T  calculate vGv susceptibility
   LVGVAPPL  =     F  apply vGv susceptibility instead of pGv for G=0

 Random number generation:
   RANDOM_GENERATOR = DEFAULT
   PCG_SEED         = not used
 Solvation model:
   LSOL    =     T         switch on solvation model
   EB_K    = 35.688000     relative permittivity of the bulk solvent
   SIGMA_K =  0.600000     width of the dielectric cavity
   NC_K    =  0.002500     cutoff charge density
   TAU     =  0.000000     cavity surface tension
   LAMBDA_D_K    =  6.600000     Debye length in Angstroms
   LRHOB     =     F     write boundcharge  density
   LRHOION     =     F     write ioniccharge density



--------------------------------------------------------------------------------------------------------


 conjugate gradient relaxation of ions
   using selective dynamics as specified on POSCAR
 charge density and potential will be updated during run
 spin polarized calculation
 RMM-DIIS sequential band-by-band and
  variant of blocked Davidson during initial phase
 perform sub-space diagonalisation
    before iterative eigenvector-optimisation
 modified Broyden-mixing scheme, WC =      100.0
 initial mixing is a Kerker type mixing with AMIX =  0.4000 and BMIX =      1.0000
 Hartree-type preconditioning will be used
 using additional bands           22
 real space projection scheme for non local part
 use partial core corrections
 calculate Harris-corrections to forces 
   (improved forces if not selfconsistent)
 use gradient corrections 
 use of overlap-Matrix (Vanderbilt PP)
 Gauss-broadening in eV      SIGMA  =   0.05


--------------------------------------------------------------------------------------------------------


  energy-cutoff  :      500.00
  volume of cell :    64000.00
      direct lattice vectors                 reciprocal lattice vectors
    40.000000000  0.000000000  0.000000000     0.025000000  0.000000000  0.000000000
     0.000000000 40.000000000  0.000000000     0.000000000  0.025000000  0.000000000
     0.000000000  0.000000000 40.000000000     0.000000000  0.000000000  0.025000000

  length of vectors
    40.000000000 40.000000000 40.000000000     0.025000000  0.025000000  0.025000000


 
 old parameters found on file WAVECAR:
  energy-cutoff  :      500.00
  volume of cell :    64000.00
      direct lattice vectors                 reciprocal lattice vectors
    40.000000000  0.000000000  0.000000000     0.025000000  0.000000000  0.000000000
     0.000000000 40.000000000  0.000000000     0.000000000  0.025000000  0.000000000
     0.000000000  0.000000000 40.000000000     0.000000000  0.000000000  0.025000000

  length of vectors

 
 k-points in units of 2pi/SCALE and weight: K-Point Grid                            
   0.00000000  0.00000000  0.00000000       1.000
 
 k-points in reciprocal lattice and weights: K-Point Grid                            
   0.00000000  0.00000000  0.00000000       1.000
 
 position of ions in fractional coordinates (direct lattice) 
   0.52703665  0.46820041  0.50000560
   0.53593160  0.50297827  0.50000352
   0.50997048  0.52724396  0.50000252
   0.47659192  0.51841431  0.49999967
   0.46809118  0.48339276  0.50000109
   0.49394394  0.45907576  0.50000545
   0.43260234  0.47277983  0.49999958
   0.44979798  0.54444627  0.49999802
   0.56978511  0.51438302  0.50000181
   0.59759559  0.49435543  0.49999175
   0.48706323  0.43272530  0.50000750
   0.42990481  0.44557268  0.50000188
   0.41943143  0.48317688  0.47813361
   0.41942870  0.48318042  0.52186235
   0.43353175  0.54184728  0.52201950
   0.43353007  0.54184277  0.47797727
   0.46051017  0.56962419  0.49999504
   0.51691698  0.55359962  0.50000127
   0.59618266  0.46717640  0.49998449
   0.62242314  0.50549173  0.49999218
   0.57337671  0.54143887  0.50000838
   0.54635256  0.44905486  0.50000753
 
 position of ions in cartesian coordinates  (Angst):
  21.08146581 18.72801625 20.00022393
  21.43726383 20.11913090 20.00014061
  20.39881936 21.08975832 20.00010063
  19.06367661 20.73657231 19.99998661
  18.72364732 19.33571039 20.00004352
  19.75775778 18.36303029 20.00021802
  17.30409354 18.91119322 19.99998332
  17.99191909 21.77785079 19.99992096
  22.79140433 20.57532067 20.00007224
  23.90382373 19.77421728 19.99967002
  19.48252914 17.30901204 20.00029993
  17.19619252 17.82290701 20.00007501
  16.77725707 19.32707524 19.12534434
  16.77714802 19.32721673 20.87449399
  17.34127006 21.67389106 20.88078010
  17.34120294 21.67371072 19.11909094
  18.42040682 22.78496774 19.99980144
  20.67667922 22.14398473 20.00005077
  23.84730641 18.68705601 19.99937977
  24.89692550 20.21966918 19.99968721
  22.93506850 21.65755480 20.00033528
  21.85410240 17.96219431 20.00030134
 


--------------------------------------------------------------------------------------------------------


 k-point   1 :   0.0000 0.0000 0.0000  plane waves: 1624525

 maximum and minimum number of plane-waves per node :    108307   108296

 maximum number of plane-waves:   1624525
 maximum index in each direction: 
   IXMAX=   72   IYMAX=   72   IZMAX=   72
   IXMIN=  -72   IYMIN=  -72   IZMIN=  -72


 real space projection operators:
  total allocation   :       2423.42 KBytes
  max/ min on nodes  :        180.14        145.72


 parallel 3D FFT for wavefunctions:
    minimum data exchange during FFTs selected (reduces bandwidth)
 parallel 3D FFT for charge:
    minimum data exchange during FFTs selected (reduces bandwidth)


 total amount of memory used by VASP MPI-rank0   523066. kBytes
=======================================================================

   base      :      30000. kBytes
   nonlr-proj:       1265. kBytes
   fftplans  :     131430. kBytes
   grid      :     332629. kBytes
   one-center:         12. kBytes
   wavefun   :      27730. kBytes
 
     INWAV:  cpu time     12.6495: real time     12.6630
 Broyden mixing: mesh for mixing (old mesh)
   NGX =145   NGY =145   NGZ =145
  (NGX  =588   NGY  =588   NGZ  =588)
  gives a total of ****** points

 initial charge density was supplied:
 charge density of overlapping atoms calculated
 number of electron      52.0000000 magnetization      22.0000000
 keeping initial charge density in first step


--------------------------------------------------------------------------------------------------------


 Maximum index for non-local projection operator          236
 Maximum index for augmentation-charges          247 (set IRDMAX)


--------------------------------------------------------------------------------------------------------


 First call to EWALD:  gamma=   0.044
 Maximum number of real-space cells 3x 3x 3
 Maximum number of reciprocal cells 3x 3x 3

    FEWALD:  cpu time      0.4238: real time      0.4238


--------------------------------------- Ionic step        1  -------------------------------------------




--------------------------------------- Iteration      1(   1)  ---------------------------------------


    POTLOK:  cpu time    680.4885: real time    680.5552
    SETDIJ:  cpu time      0.0305: real time      0.0305
     EDDAV:  cpu time     50.7417: real time     50.7433
       DOS:  cpu time      0.0025: real time      0.0025
    CHARGE:  cpu time      4.3783: real time      4.3784
    MIXING:  cpu time      0.0911: real time      0.0912
    --------------------------------------------
      LOOP:  cpu time    735.7325: real time    735.8011

 eigenvalue-minimisations  :   276
 total energy-change (2. order) :-0.1142767E+03  (-0.1030539E+02)
 number of electron      51.0000001 magnetization      21.1909166
 augmentation part        1.2973635 magnetization      20.2820679

 Broyden mixing:
  rms(total) = 0.29554E+01    rms(broyden)= 0.29551E+01
  rms(prec ) = 0.29841E+01
  weight for this iteration     100.00

 Free energy of the ion-electron system (eV)
  ---------------------------------------------------
  alpha Z        PSCENC =         0.19061315
  Ewald energy   TEWEN  =      5369.68871859
  -Hartree energ DENC   =     -6396.27424667
  -exchange      EXHF   =         0.00000000
  -V(xc)+E(xc)   XCENC  =       163.58086714
  PAW double counting   =      1105.46993731    -1111.17591603
  entropy T*S    EENTRO =        -0.00000000
  eigenvalues    EBANDS =      -858.19989462
  atomic energy  EATOM  =      1621.32137526
  Solvation  Ediel_sol  =        -8.87813452
  ---------------------------------------------------
  free energy    TOTEN  =      -114.27668039 eV

  energy without entropy =     -114.27668039  energy(sigma->0) =     -114.27668039


--------------------------------------------------------------------------------------------------------




--------------------------------------- Iteration      1(   2)  ---------------------------------------


    POTLOK:  cpu time    712.2438: real time    712.3122
    SETDIJ:  cpu time      0.0342: real time      0.0342
    EDDIAG:  cpu time      5.6627: real time      5.6643
  RMM-DIIS:  cpu time      9.0623: real time      9.0626
    ORTHCH:  cpu time      1.3948: real time      1.3948
       DOS:  cpu time      0.0059: real time      0.0059
    CHARGE:  cpu time      4.0297: real time      4.0298
    MIXING:  cpu time      0.1150: real time      0.1150
    --------------------------------------------
      LOOP:  cpu time    732.5484: real time    732.6188

 eigenvalue-minimisations  :   192
 total energy-change (2. order) : 0.5682909E+02  (-0.1082895E+02)
 number of electron      51.0000000 magnetization      20.3083107
 augmentation part        1.2889346 magnetization      19.3194487

 Broyden mixing:
  rms(total) = 0.14454E+01    rms(broyden)= 0.14454E+01
  rms(prec ) = 0.14684E+01
  weight for this iteration     100.00

 eigenvalues of (default mixing * dielectric matrix)
  average eigenvalue GAMMA=   0.9549
  0.9549

 Free energy of the ion-electron system (eV)
  ---------------------------------------------------
  alpha Z        PSCENC =         0.19061315
  Ewald energy   TEWEN  =      5369.68871859
  -Hartree energ DENC   =     -6477.49705725
  -exchange      EXHF   =         0.00000000
  -V(xc)+E(xc)   XCENC  =       218.31544526
  PAW double counting   =      2087.30861449    -2094.04734596
  entropy T*S    EENTRO =        -0.00000000
  eigenvalues    EBANDS =      -751.85090015
  atomic energy  EATOM  =      1621.32137526
  Solvation  Ediel_sol  =       -30.87705315
  ---------------------------------------------------
  free energy    TOTEN  =       -57.44758977 eV

  energy without entropy =      -57.44758977  energy(sigma->0) =      -57.44758977


--------------------------------------------------------------------------------------------------------




--------------------------------------- Iteration      1(   3)  ---------------------------------------


    POTLOK:  cpu time    716.3539: real time    716.3937
    SETDIJ:  cpu time      0.0327: real time      0.0327
    EDDIAG:  cpu time      6.1189: real time      6.1191
  RMM-DIIS:  cpu time      8.8106: real time      8.8109
    ORTHCH:  cpu time      1.7398: real time      1.7399
       DOS:  cpu time      0.0016: real time      0.0016
    CHARGE:  cpu time      4.3733: real time      4.3735
    MIXING:  cpu time      0.1127: real time      0.1127
    --------------------------------------------
      LOOP:  cpu time    737.5436: real time    737.5841

 eigenvalue-minimisations  :   192
 total energy-change (2. order) :-0.3737609E+02  (-0.4513599E+01)
 number of electron      50.9999999 magnetization      19.3030200
 augmentation part        1.2518340 magnetization      18.2827752

 Broyden mixing:
  rms(total) = 0.85976E+00    rms(broyden)= 0.85969E+00
  rms(prec ) = 0.86753E+00
  weight for this iteration     100.00

 eigenvalues of (default mixing * dielectric matrix)
  average eigenvalue GAMMA=   1.1151
  0.7845  1.4458

 Free energy of the ion-electron system (eV)
  ---------------------------------------------------
  alpha Z        PSCENC =         0.19061315
  Ewald energy   TEWEN  =      5369.68871859
  -Hartree energ DENC   =     -6539.64426921
  -exchange      EXHF   =         0.00000000
  -V(xc)+E(xc)   XCENC  =       191.63153258
  PAW double counting   =      2973.92345135    -2981.25287769
  entropy T*S    EENTRO =        -0.00000000
  eigenvalues    EBANDS =      -676.55658365
  atomic energy  EATOM  =      1621.32137526
  Solvation  Ediel_sol  =       -54.12564358
  ---------------------------------------------------
  free energy    TOTEN  =       -94.82368321 eV

  energy without entropy =      -94.82368321  energy(sigma->0) =      -94.82368321


--------------------------------------------------------------------------------------------------------




--------------------------------------- Iteration      1(   4)  ---------------------------------------


    POTLOK:  cpu time    729.0624: real time    729.1073
    SETDIJ:  cpu time      0.0326: real time      0.0326
    EDDIAG:  cpu time      6.4245: real time      6.4247
  RMM-DIIS:  cpu time      9.3538: real time      9.3555
    ORTHCH:  cpu time      1.7013: real time      1.7013
       DOS:  cpu time      0.0169: real time      0.0169
    CHARGE:  cpu time      4.4113: real time      4.4114
    MIXING:  cpu time      0.1163: real time      0.1163
    --------------------------------------------
      LOOP:  cpu time    751.1190: real time    751.1660

 eigenvalue-minimisations  :   192
 total energy-change (2. order) :-0.9510399E+01  (-0.1732177E+01)
 number of electron      50.9999999 magnetization      18.4186771
 augmentation part        1.2184512 magnetization      17.4034350

 Broyden mixing:
  rms(total) = 0.62508E+00    rms(broyden)= 0.62501E+00
  rms(prec ) = 0.63033E+00
  weight for this iteration     100.00

 eigenvalues of (default mixing * dielectric matrix)
  average eigenvalue GAMMA=   1.0830
  1.4863  1.0831  0.6798

 Free energy of the ion-electron system (eV)
  ---------------------------------------------------
  alpha Z        PSCENC =         0.19061315
  Ewald energy   TEWEN  =      5369.68871859
  -Hartree energ DENC   =     -6567.15827033
  -exchange      EXHF   =         0.00000000
  -V(xc)+E(xc)   XCENC  =       187.00744591
  PAW double counting   =      3693.31839983    -3700.81461561
  entropy T*S    EENTRO =        -0.00000000
  eigenvalues    EBANDS =      -631.48722093
  atomic energy  EATOM  =      1621.32137526
  Solvation  Ediel_sol  =       -76.40052852
  ---------------------------------------------------
  free energy    TOTEN  =      -104.33408267 eV

  energy without entropy =     -104.33408267  energy(sigma->0) =     -104.33408267


--------------------------------------------------------------------------------------------------------




--------------------------------------- Iteration      1(   5)  ---------------------------------------


    POTLOK:  cpu time    729.6576: real time    729.6901
    SETDIJ:  cpu time      0.0351: real time      0.0351
    EDDIAG:  cpu time      6.5309: real time      6.5310
  RMM-DIIS:  cpu time      8.9597: real time      8.9599
    ORTHCH:  cpu time      1.6499: real time      1.6499
       DOS:  cpu time      0.2027: real time      0.2027
    CHARGE:  cpu time      4.6384: real time      4.6385
    MIXING:  cpu time      0.1191: real time      0.1191
    --------------------------------------------
      LOOP:  cpu time    751.7933: real time    751.8264

 eigenvalue-minimisations  :   192
 total energy-change (2. order) :-0.6615703E+01  (-0.4219904E+00)
 number of electron      50.9999998 magnetization      16.9050253
 augmentation part        1.2059754 magnetization      15.8984496

 Broyden mixing:
  rms(total) = 0.40434E+00    rms(broyden)= 0.40432E+00
  rms(prec ) = 0.40776E+00
  weight for this iteration     100.00

 eigenvalues of (default mixing * dielectric matrix)
  average eigenvalue GAMMA=   1.3460
  2.1492  1.7577  0.8404  0.6365

 Free energy of the ion-electron system (eV)
  ---------------------------------------------------
  alpha Z        PSCENC =         0.19061315
  Ewald energy   TEWEN  =      5369.68871859
  -Hartree energ DENC   =     -6556.41213786
  -exchange      EXHF   =         0.00000000
  -V(xc)+E(xc)   XCENC  =       182.09957768
  PAW double counting   =      3957.50946904    -3964.85348427
  entropy T*S    EENTRO =        -0.00000000
  eigenvalues    EBANDS =      -632.05372486
  atomic energy  EATOM  =      1621.32137526
  Solvation  Ediel_sol  =       -88.44019246
  ---------------------------------------------------
  free energy    TOTEN  =      -110.94978573 eV

  energy without entropy =     -110.94978573  energy(sigma->0) =     -110.94978573


--------------------------------------------------------------------------------------------------------




--------------------------------------- Iteration      1(   6)  ---------------------------------------


    POTLOK:  cpu time    743.2723: real time    743.3107
    SETDIJ:  cpu time      0.0263: real time      0.0263
    EDDIAG:  cpu time      5.7618: real time      5.7620
  RMM-DIIS:  cpu time      9.4431: real time      9.4434
    ORTHCH:  cpu time      1.5787: real time      1.5788
       DOS:  cpu time      0.2190: real time      0.2190
    CHARGE:  cpu time      4.8066: real time      4.8067
    MIXING:  cpu time      0.1505: real time      0.1506
    --------------------------------------------
      LOOP:  cpu time    765.2583: real time    765.2974

 eigenvalue-minimisations  :   197
 total energy-change (2. order) :-0.1030190E+02  (-0.5613651E+00)
 number of electron      50.9999998 magnetization      16.3530702
 augmentation part        1.1944833 magnetization      15.3681710

 Broyden mixing:
  rms(total) = 0.24165E+00    rms(broyden)= 0.24162E+00
  rms(prec ) = 0.24419E+00
  weight for this iteration     100.00

 eigenvalues of (default mixing * dielectric matrix)
  average eigenvalue GAMMA=   1.3077
  2.4376  1.7078  0.9092  0.8512  0.6325

 Free energy of the ion-electron system (eV)
  ---------------------------------------------------
  alpha Z        PSCENC =         0.19061315
  Ewald energy   TEWEN  =      5369.68871859
  -Hartree energ DENC   =     -6539.94353723
  -exchange      EXHF   =         0.00000000
  -V(xc)+E(xc)   XCENC  =       174.31366928
  PAW double counting   =      4294.75332355    -4301.89150967
  entropy T*S    EENTRO =        -0.00000000
  eigenvalues    EBANDS =      -635.09743523
  atomic energy  EATOM  =      1621.32137526
  Solvation  Ediel_sol  =      -104.58690146
  ---------------------------------------------------
  free energy    TOTEN  =      -121.25168376 eV

  energy without entropy =     -121.25168376  energy(sigma->0) =     -121.25168376


--------------------------------------------------------------------------------------------------------




--------------------------------------- Iteration      1(   7)  ---------------------------------------


    POTLOK:  cpu time    654.9094: real time    654.9455
    SETDIJ:  cpu time      0.0334: real time      0.0334
    EDDIAG:  cpu time      6.1407: real time      6.1410
  RMM-DIIS:  cpu time      9.1465: real time      9.1467
    ORTHCH:  cpu time      1.2730: real time      1.2730
       DOS:  cpu time      0.4580: real time      0.4580
    CHARGE:  cpu time      4.2456: real time      4.2457
    MIXING:  cpu time      0.1352: real time      0.1352
    --------------------------------------------
      LOOP:  cpu time    676.3418: real time    676.3786

 eigenvalue-minimisations  :   192
 total energy-change (2. order) :-0.9969698E+00  (-0.7798196E-01)
 number of electron      50.9999998 magnetization      14.8493498
 augmentation part        1.1883656 magnetization      13.8723255

 Broyden mixing:
  rms(total) = 0.21001E+00    rms(broyden)= 0.21001E+00
  rms(prec ) = 0.21230E+00
  weight for this iteration     100.00

 eigenvalues of (default mixing * dielectric matrix)
  average eigenvalue GAMMA=   1.2358
  2.3212  1.9463  0.8649  0.8649  0.7086  0.7086

 Free energy of the ion-electron system (eV)
  ---------------------------------------------------
  alpha Z        PSCENC =         0.19061315
  Ewald energy   TEWEN  =      5369.68871859
  -Hartree energ DENC   =     -6536.55444351
  -exchange      EXHF   =         0.00000000
  -V(xc)+E(xc)   XCENC  =       173.59843843
  PAW double counting   =      4292.82597208    -4299.98656519
  entropy T*S    EENTRO =        -0.00000000
  eigenvalues    EBANDS =      -635.55048442
  atomic energy  EATOM  =      1621.32137526
  Solvation  Ediel_sol  =      -107.78227799
  ---------------------------------------------------
  free energy    TOTEN  =      -122.24865360 eV

  energy without entropy =     -122.24865360  energy(sigma->0) =     -122.24865360


--------------------------------------------------------------------------------------------------------




--------------------------------------- Iteration      1(   8)  ---------------------------------------


    POTLOK:  cpu time    683.1064: real time    683.1541
    SETDIJ:  cpu time      0.0314: real time      0.0314
    EDDIAG:  cpu time      6.4973: real time      6.4976
  RMM-DIIS:  cpu time      8.7926: real time      8.7929
    ORTHCH:  cpu time      1.5845: real time      1.5845
       DOS:  cpu time      0.0087: real time      0.0087
    CHARGE:  cpu time      6.1812: real time      6.1813
    MIXING:  cpu time      0.1427: real time      0.1427
    --------------------------------------------
      LOOP:  cpu time    706.3448: real time    706.3932

 eigenvalue-minimisations  :   192
 total energy-change (2. order) :-0.2688701E+01  (-0.9186069E-01)
 number of electron      50.9999998 magnetization      12.7882639
 augmentation part        1.1890181 magnetization      11.8185035

 Broyden mixing:
  rms(total) = 0.15363E+00    rms(broyden)= 0.15362E+00
  rms(prec ) = 0.15512E+00
  weight for this iteration     100.00

 eigenvalues of (default mixing * dielectric matrix)
  average eigenvalue GAMMA=   1.5715
  3.7631  2.5610  1.6041  0.9596  0.8522  0.6302  0.6302

 Free energy of the ion-electron system (eV)
  ---------------------------------------------------
  alpha Z        PSCENC =         0.19061315
  Ewald energy   TEWEN  =      5369.68871859
  -Hartree energ DENC   =     -6517.34701674
  -exchange      EXHF   =         0.00000000
  -V(xc)+E(xc)   XCENC  =       170.95976202
  PAW double counting   =      4190.65200105    -4197.77068390
  entropy T*S    EENTRO =        -0.00000000
  eigenvalues    EBANDS =      -647.94665620
  atomic energy  EATOM  =      1621.32137526
  Solvation  Ediel_sol  =      -114.68546804
  ---------------------------------------------------
  free energy    TOTEN  =      -124.93735482 eV

  energy without entropy =     -124.93735482  energy(sigma->0) =     -124.93735482


--------------------------------------------------------------------------------------------------------




--------------------------------------- Iteration      1(   9)  ---------------------------------------


    POTLOK:  cpu time    650.2381: real time    650.2725
    SETDIJ:  cpu time      0.0354: real time      0.0354
    EDDIAG:  cpu time      6.5313: real time      6.5316
  RMM-DIIS:  cpu time      9.5714: real time      9.5717
    ORTHCH:  cpu time      1.5094: real time      1.5095
       DOS:  cpu time      0.3475: real time      0.3476
    CHARGE:  cpu time      3.8775: real time      3.8776
    MIXING:  cpu time      0.1395: real time      0.1395
    --------------------------------------------
      LOOP:  cpu time    672.2503: real time    672.2854

 eigenvalue-minimisations  :   202
 total energy-change (2. order) :-0.1815838E+01  (-0.1293606E+00)
 number of electron      50.9999998 magnetization      12.2163146
 augmentation part        1.1828459 magnetization      11.2582169

 Broyden mixing:
  rms(total) = 0.10968E+00    rms(broyden)= 0.10967E+00
  rms(prec ) = 0.11115E+00
  weight for this iteration     100.00

 eigenvalues of (default mixing * dielectric matrix)
  average eigenvalue GAMMA=   1.5470
  4.5261  2.2790  1.6244  0.9752  0.7884  0.7884  0.6174  0.7775

 Free energy of the ion-electron system (eV)
  ---------------------------------------------------
  alpha Z        PSCENC =         0.19061315
  Ewald energy   TEWEN  =      5369.68871859
  -Hartree energ DENC   =     -6497.02484645
  -exchange      EXHF   =         0.00000000
  -V(xc)+E(xc)   XCENC  =       169.26846789
  PAW double counting   =      4140.92543733    -4148.02551517
  entropy T*S    EENTRO =        -0.00000000
  eigenvalues    EBANDS =      -657.64678716
  atomic energy  EATOM  =      1621.32137526
  Solvation  Ediel_sol  =      -125.45065600
  ---------------------------------------------------
  free energy    TOTEN  =      -126.75319257 eV

  energy without entropy =     -126.75319257  energy(sigma->0) =     -126.75319257


--------------------------------------------------------------------------------------------------------




--------------------------------------- Iteration      1(  10)  ---------------------------------------


    POTLOK:  cpu time    669.1661: real time    669.1976
    SETDIJ:  cpu time      0.0305: real time      0.0305
    EDDIAG:  cpu time      6.6528: real time      6.6529
  RMM-DIIS:  cpu time      9.0070: real time      9.0072
    ORTHCH:  cpu time      1.5621: real time      1.5621
       DOS:  cpu time      0.2042: real time      0.2042
    CHARGE:  cpu time      4.8703: real time      4.8704
    MIXING:  cpu time      0.1438: real time      0.1439
    --------------------------------------------
      LOOP:  cpu time    691.6369: real time    691.6688

 eigenvalue-minimisations  :   192
 total energy-change (2. order) :-0.6049123E+00  (-0.1288719E-01)
 number of electron      50.9999998 magnetization      10.7659241
 augmentation part        1.1833584 magnetization       9.8114288

 Broyden mixing:
  rms(total) = 0.80312E-01    rms(broyden)= 0.80309E-01
  rms(prec ) = 0.81308E-01
  weight for this iteration     100.00

 eigenvalues of (default mixing * dielectric matrix)
  average eigenvalue GAMMA=   1.6336
  5.4829  1.8851  1.8851  1.5881  0.8384  0.8384  0.8590  0.6126  0.7126

 Free energy of the ion-electron system (eV)
  ---------------------------------------------------
  alpha Z        PSCENC =         0.19061315
  Ewald energy   TEWEN  =      5369.68871859
  -Hartree energ DENC   =     -6493.77844251
  -exchange      EXHF   =         0.00000000
  -V(xc)+E(xc)   XCENC  =       168.72183995
  PAW double counting   =      4166.87591903    -4173.97780110
  entropy T*S    EENTRO =        -0.00000000
  eigenvalues    EBANDS =      -657.90572728
  atomic energy  EATOM  =      1621.32137526
  Solvation  Ediel_sol  =      -128.49459999
  ---------------------------------------------------
  free energy    TOTEN  =      -127.35810491 eV

  energy without entropy =     -127.35810491  energy(sigma->0) =     -127.35810491


--------------------------------------------------------------------------------------------------------




--------------------------------------- Iteration      1(  11)  ---------------------------------------


    POTLOK:  cpu time    673.0236: real time    673.0593
    SETDIJ:  cpu time      0.0301: real time      0.0301
    EDDIAG:  cpu time      5.8815: real time      5.8816
  RMM-DIIS:  cpu time      9.2759: real time      9.2762
    ORTHCH:  cpu time      1.3830: real time      1.3830
       DOS:  cpu time      0.0243: real time      0.0243
    CHARGE:  cpu time      4.8304: real time      4.8305
    MIXING:  cpu time      0.1753: real time      0.1753
    --------------------------------------------
      LOOP:  cpu time    694.6241: real time    694.6604

 eigenvalue-minimisations  :   193
 total energy-change (2. order) :-0.5960057E+00  (-0.1472191E-01)
 number of electron      50.9999998 magnetization       9.9012285
 augmentation part        1.1837188 magnetization       8.9491751

 Broyden mixing:
  rms(total) = 0.58950E-01    rms(broyden)= 0.58946E-01
  rms(prec ) = 0.59552E-01
  weight for this iteration     100.00

 eigenvalues of (default mixing * dielectric matrix)
  average eigenvalue GAMMA=   1.7776
  6.9800  2.3110  2.3110  1.2628  1.0246  1.0246  0.7804  0.7804  0.6159  0.6858

 Free energy of the ion-electron system (eV)
  ---------------------------------------------------
  alpha Z        PSCENC =         0.19061315
  Ewald energy   TEWEN  =      5369.68871859
  -Hartree energ DENC   =     -6485.19207607
  -exchange      EXHF   =         0.00000000
  -V(xc)+E(xc)   XCENC  =       168.09118832
  PAW double counting   =      4162.43618404    -4169.55878767
  entropy T*S    EENTRO =        -0.00000000
  eigenvalues    EBANDS =      -659.93576850
  atomic energy  EATOM  =      1621.32137526
  Solvation  Ediel_sol  =      -134.99555773
  ---------------------------------------------------
  free energy    TOTEN  =      -127.95411060 eV

  energy without entropy =     -127.95411060  energy(sigma->0) =     -127.95411060


--------------------------------------------------------------------------------------------------------




--------------------------------------- Iteration      1(  12)  ---------------------------------------


    POTLOK:  cpu time    652.2053: real time    652.2438
    SETDIJ:  cpu time      0.0333: real time      0.0333
    EDDIAG:  cpu time      6.6016: real time      6.6019
  RMM-DIIS:  cpu time      9.3394: real time      9.3397
    ORTHCH:  cpu time      1.5975: real time      1.5975
       DOS:  cpu time      0.0065: real time      0.0065
    CHARGE:  cpu time      4.2383: real time      4.2385
    MIXING:  cpu time      0.1548: real time      0.1548
    --------------------------------------------
      LOOP:  cpu time    674.1766: real time    674.2160

 eigenvalue-minimisations  :   195
 total energy-change (2. order) :-0.2129020E+00  (-0.5517496E-02)
 number of electron      50.9999998 magnetization       9.0601603
 augmentation part        1.1829360 magnetization       8.1096046

 Broyden mixing:
  rms(total) = 0.46814E-01    rms(broyden)= 0.46813E-01
  rms(prec ) = 0.47158E-01
  weight for this iteration     100.00

 eigenvalues of (default mixing * dielectric matrix)
  average eigenvalue GAMMA=   1.7707
  7.4324  2.1487  2.0798  1.5414  1.5414  1.0612  0.8131  0.8131  0.7853  0.6501
  0.6110

 Free energy of the ion-electron system (eV)
  ---------------------------------------------------
  alpha Z        PSCENC =         0.19061315
  Ewald energy   TEWEN  =      5369.68871859
  -Hartree energ DENC   =     -6480.95943964
  -exchange      EXHF   =         0.00000000
  -V(xc)+E(xc)   XCENC  =       167.83662494
  PAW double counting   =      4147.23576779    -4154.37518790
  entropy T*S    EENTRO =        -0.00000000
  eigenvalues    EBANDS =      -660.73128788
  atomic energy  EATOM  =      1621.32137526
  Solvation  Ediel_sol  =      -138.37419688
  ---------------------------------------------------
  free energy    TOTEN  =      -128.16701257 eV

  energy without entropy =     -128.16701257  energy(sigma->0) =     -128.16701257


--------------------------------------------------------------------------------------------------------




--------------------------------------- Iteration      1(  13)  ---------------------------------------


    POTLOK:  cpu time    630.4116: real time    630.4443
    SETDIJ:  cpu time      0.0305: real time      0.0305
    EDDIAG:  cpu time      5.9405: real time      5.9407
  RMM-DIIS:  cpu time      9.2387: real time      9.2389
    ORTHCH:  cpu time      1.7384: real time      1.7384
       DOS:  cpu time      0.0015: real time      0.0015
    CHARGE:  cpu time      4.6047: real time      4.6048
    MIXING:  cpu time      0.1622: real time      0.1622
    --------------------------------------------
      LOOP:  cpu time    652.1280: real time    652.1613

 eigenvalue-minimisations  :   195
 total energy-change (2. order) :-0.1679777E+00  (-0.2807688E-02)
 number of electron      50.9999998 magnetization       7.5615117
 augmentation part        1.1825038 magnetization       6.6123042

 Broyden mixing:
  rms(total) = 0.38765E-01    rms(broyden)= 0.38764E-01
  rms(prec ) = 0.38919E-01
  weight for this iteration     100.00

 eigenvalues of (default mixing * dielectric matrix)
  average eigenvalue GAMMA=   1.8991
  8.3505  2.9518  2.2211  2.2211  1.2099  1.2099  1.0643  0.8048  0.7576  0.7576
  0.6290  0.6115

 Free energy of the ion-electron system (eV)
  ---------------------------------------------------
  alpha Z        PSCENC =         0.19061315
  Ewald energy   TEWEN  =      5369.68871859
  -Hartree energ DENC   =     -6477.65012666
  -exchange      EXHF   =         0.00000000
  -V(xc)+E(xc)   XCENC  =       167.63824652
  PAW double counting   =      4149.33168158    -4156.46306871
  entropy T*S    EENTRO =        -0.00000000
  eigenvalues    EBANDS =      -661.38283858
  atomic energy  EATOM  =      1621.32137526
  Solvation  Ediel_sol  =      -141.00959140
  ---------------------------------------------------
  free energy    TOTEN  =      -128.33499025 eV

  energy without entropy =     -128.33499025  energy(sigma->0) =     -128.33499025


--------------------------------------------------------------------------------------------------------




--------------------------------------- Iteration      1(  14)  ---------------------------------------


    POTLOK:  cpu time    640.0901: real time    640.1542
    SETDIJ:  cpu time      0.0293: real time      0.0292
    EDDIAG:  cpu time      6.4066: real time      6.4067
  RMM-DIIS:  cpu time      9.4316: real time      9.4318
    ORTHCH:  cpu time      1.2226: real time      1.2226
       DOS:  cpu time      0.0100: real time      0.0100
    CHARGE:  cpu time      4.6357: real time      4.6358
    MIXING:  cpu time      0.1696: real time      0.1696
    --------------------------------------------
      LOOP:  cpu time    661.9953: real time    662.0599

 eigenvalue-minimisations  :   193
 total energy-change (2. order) :-0.7170048E-01  (-0.6638761E-03)
 number of electron      50.9999998 magnetization       7.0381998
 augmentation part        1.1823310 magnetization       6.0892757

 Broyden mixing:
  rms(total) = 0.28982E-01    rms(broyden)= 0.28982E-01
  rms(prec ) = 0.29060E-01
  weight for this iteration     100.00

 eigenvalues of (default mixing * dielectric matrix)
  average eigenvalue GAMMA=   1.9563
  9.1496  4.0862  2.1122  2.1122  1.2887  1.2887  1.0602  0.8118  0.8118  0.7684
  0.6974  0.6227  0.6227

 Free energy of the ion-electron system (eV)
  ---------------------------------------------------
  alpha Z        PSCENC =         0.19061315
  Ewald energy   TEWEN  =      5369.68871859
  -Hartree energ DENC   =     -6473.46705713
  -exchange      EXHF   =         0.00000000
  -V(xc)+E(xc)   XCENC  =       167.56560336
  PAW double counting   =      4165.51348818    -4172.64554790
  entropy T*S    EENTRO =        -0.00000000
  eigenvalues    EBANDS =      -661.11839126
  atomic energy  EATOM  =      1621.32137526
  Solvation  Ediel_sol  =      -145.45549298
  ---------------------------------------------------
  free energy    TOTEN  =      -128.40669073 eV

  energy without entropy =     -128.40669073  energy(sigma->0) =     -128.40669073


--------------------------------------------------------------------------------------------------------




--------------------------------------- Iteration      1(  15)  ---------------------------------------


    POTLOK:  cpu time    588.6232: real time    588.6561
    SETDIJ:  cpu time      0.0349: real time      0.0349
    EDDIAG:  cpu time      6.1627: real time      6.1629
  RMM-DIIS:  cpu time      9.5231: real time      9.5235
    ORTHCH:  cpu time      1.2953: real time      1.2953
       DOS:  cpu time      0.0029: real time      0.0029
    CHARGE:  cpu time      4.9999: real time      5.0001
    MIXING:  cpu time      0.1929: real time      0.1929
    --------------------------------------------
      LOOP:  cpu time    610.8349: real time    610.8687

 eigenvalue-minimisations  :   193
 total energy-change (2. order) :-0.4301191E-01  (-0.1906776E-03)
 number of electron      50.9999998 magnetization       5.7717737
 augmentation part        1.1823614 magnetization       4.8231314

 Broyden mixing:
  rms(total) = 0.25823E-01    rms(broyden)= 0.25822E-01
  rms(prec ) = 0.25858E-01
  weight for this iteration     100.00

 eigenvalues of (default mixing * dielectric matrix)
  average eigenvalue GAMMA=   1.9764
  9.5793  4.4516  2.1568  2.1568  1.4430  1.4430  1.0133  1.0133  0.8868  0.7955
  0.7431  0.7431  0.6219  0.6219

 Free energy of the ion-electron system (eV)
  ---------------------------------------------------
  alpha Z        PSCENC =         0.19061315
  Ewald energy   TEWEN  =      5369.68871859
  -Hartree energ DENC   =     -6472.35002167
  -exchange      EXHF   =         0.00000000
  -V(xc)+E(xc)   XCENC  =       167.50363317
  PAW double counting   =      4162.46498817    -4169.59740165
  entropy T*S    EENTRO =        -0.00000000
  eigenvalues    EBANDS =      -661.33530276
  atomic energy  EATOM  =      1621.32137526
  Solvation  Ediel_sol  =      -146.33630489
  ---------------------------------------------------
  free energy    TOTEN  =      -128.44970264 eV

  energy without entropy =     -128.44970264  energy(sigma->0) =     -128.44970264


--------------------------------------------------------------------------------------------------------




--------------------------------------- Iteration      1(  16)  ---------------------------------------


    POTLOK:  cpu time    640.9552: real time    640.9905
    SETDIJ:  cpu time      0.0297: real time      0.0297
    EDDIAG:  cpu time      6.0584: real time      6.0587
  RMM-DIIS:  cpu time      9.5830: real time      9.5833
    ORTHCH:  cpu time      1.1422: real time      1.1422
       DOS:  cpu time      0.4356: real time      0.4357
    CHARGE:  cpu time      5.5261: real time      5.5263
    MIXING:  cpu time      0.2046: real time      0.2046
    --------------------------------------------
      LOOP:  cpu time    663.9348: real time    663.9709

 eigenvalue-minimisations  :   192
 total energy-change (2. order) :-0.3433004E-01  (-0.4685755E-03)
 number of electron      50.9999998 magnetization       4.7766570
 augmentation part        1.1829361 magnetization       3.8284040

 Broyden mixing:
  rms(total) = 0.22067E-01    rms(broyden)= 0.22067E-01
  rms(prec ) = 0.22196E-01
  weight for this iteration     100.00

 eigenvalues of (default mixing * dielectric matrix)
  average eigenvalue GAMMA=   2.0960
 10.3750  5.5012  2.5956  2.1333  2.1333  1.2584  1.2584  1.0817  0.8406  0.8406
  0.7597  0.7597  0.6663  0.6149  0.6214

 Free energy of the ion-electron system (eV)
  ---------------------------------------------------
  alpha Z        PSCENC =         0.19061315
  Ewald energy   TEWEN  =      5369.68871859
  -Hartree energ DENC   =     -6470.72445265
  -exchange      EXHF   =         0.00000000
  -V(xc)+E(xc)   XCENC  =       167.43298708
  PAW double counting   =      4157.99525314    -4165.12003605
  entropy T*S    EENTRO =        -0.00000000
  eigenvalues    EBANDS =      -661.91750509
  atomic energy  EATOM  =      1621.32137526
  Solvation  Ediel_sol  =      -147.35098611
  ---------------------------------------------------
  free energy    TOTEN  =      -128.48403268 eV

  energy without entropy =     -128.48403268  energy(sigma->0) =     -128.48403268


--------------------------------------------------------------------------------------------------------




--------------------------------------- Iteration      1(  17)  ---------------------------------------


    POTLOK:  cpu time    638.5545: real time    638.5900
    SETDIJ:  cpu time      0.0338: real time      0.0338
    EDDIAG:  cpu time      6.0415: real time      6.0416
  RMM-DIIS:  cpu time      9.7683: real time      9.7686
    ORTHCH:  cpu time      1.1966: real time      1.1966
       DOS:  cpu time      0.4028: real time      0.4028
    CHARGE:  cpu time      3.7801: real time      3.7802
    MIXING:  cpu time      0.1948: real time      0.1947
    --------------------------------------------
      LOOP:  cpu time    659.9724: real time    660.0085

 eigenvalue-minimisations  :   192
 total energy-change (2. order) :-0.8202486E-02  (-0.7153494E-04)
 number of electron      50.9999998 magnetization       3.7887620
 augmentation part        1.1829806 magnetization       2.8405503

 Broyden mixing:
  rms(total) = 0.18590E-01    rms(broyden)= 0.18590E-01
  rms(prec ) = 0.18706E-01
  weight for this iteration     100.00

 eigenvalues of (default mixing * dielectric matrix)
  average eigenvalue GAMMA=   2.1107
 10.7965  6.0111  2.8776  2.1799  2.1799  1.3010  1.3010  1.0989  0.9367  0.9367
  0.8020  0.7350  0.7350  0.6175  0.6175  0.6449

 Free energy of the ion-electron system (eV)
  ---------------------------------------------------
  alpha Z        PSCENC =         0.19061315
  Ewald energy   TEWEN  =      5369.68871859
  -Hartree energ DENC   =     -6470.32392321
  -exchange      EXHF   =         0.00000000
  -V(xc)+E(xc)   XCENC  =       167.43511204
  PAW double counting   =      4162.57087127    -4169.69494841
  entropy T*S    EENTRO =        -0.00000000
  eigenvalues    EBANDS =      -661.58651822
  atomic energy  EATOM  =      1621.32137526
  Solvation  Ediel_sol  =      -148.09353563
  ---------------------------------------------------
  free energy    TOTEN  =      -128.49223517 eV

  energy without entropy =     -128.49223517  energy(sigma->0) =     -128.49223517


--------------------------------------------------------------------------------------------------------




--------------------------------------- Iteration      1(  18)  ---------------------------------------


    POTLOK:  cpu time    576.9343: real time    576.9674
    SETDIJ:  cpu time      0.0317: real time      0.0317
    EDDIAG:  cpu time      6.0752: real time      6.0754
  RMM-DIIS:  cpu time      9.5075: real time      9.5078
    ORTHCH:  cpu time      1.4513: real time      1.4513
       DOS:  cpu time      0.0281: real time      0.0281
    CHARGE:  cpu time      3.6775: real time      3.6777
    MIXING:  cpu time      0.2368: real time      0.2368
    --------------------------------------------
      LOOP:  cpu time    597.9425: real time    597.9762

 eigenvalue-minimisations  :   193
 total energy-change (2. order) :-0.1095199E-01  (-0.4990874E-03)
 number of electron      50.9999998 magnetization       2.5145902
 augmentation part        1.1824951 magnetization       1.5664521

 Broyden mixing:
  rms(total) = 0.15885E-01    rms(broyden)= 0.15884E-01
  rms(prec ) = 0.16027E-01
  weight for this iteration     100.00

 eigenvalues of (default mixing * dielectric matrix)
  average eigenvalue GAMMA=   2.2731
 12.1168  7.1758  3.8132  2.1776  2.1776  1.6145  1.2829  1.2829  0.9659  0.9659
  0.9374  0.7588  0.7588  0.7430  0.6206  0.6206  0.6300

 Free energy of the ion-electron system (eV)
  ---------------------------------------------------
  alpha Z        PSCENC =         0.19061315
  Ewald energy   TEWEN  =      5369.68871859
  -Hartree energ DENC   =     -6470.96970093
  -exchange      EXHF   =         0.00000000
  -V(xc)+E(xc)   XCENC  =       167.44421008
  PAW double counting   =      4159.68150542    -4166.81450289
  entropy T*S    EENTRO =        -0.00000000
  eigenvalues    EBANDS =      -661.04079255
  atomic energy  EATOM  =      1621.32137526
  Solvation  Ediel_sol  =      -148.00461329
  ---------------------------------------------------
  free energy    TOTEN  =      -128.50318716 eV

  energy without entropy =     -128.50318716  energy(sigma->0) =     -128.50318716


--------------------------------------------------------------------------------------------------------




--------------------------------------- Iteration      1(  19)  ---------------------------------------


    POTLOK:  cpu time    596.2801: real time    596.3119
    SETDIJ:  cpu time      0.0319: real time      0.0319
    EDDIAG:  cpu time      6.1172: real time      6.1174
  RMM-DIIS:  cpu time      9.8771: real time      9.8773
    ORTHCH:  cpu time      1.6475: real time      1.6475
       DOS:  cpu time      0.1666: real time      0.1666
    CHARGE:  cpu time      5.4231: real time      5.4232
    MIXING:  cpu time      0.2205: real time      0.2205
    --------------------------------------------
      LOOP:  cpu time    619.7639: real time    619.7963

 eigenvalue-minimisations  :   195
 total energy-change (2. order) :-0.1184315E-01  (-0.1814469E-03)
 number of electron      50.9999998 magnetization       1.7716695
 augmentation part        1.1824053 magnetization       0.8236249

 Broyden mixing:
  rms(total) = 0.14369E-01    rms(broyden)= 0.14369E-01
  rms(prec ) = 0.14563E-01
  weight for this iteration     100.00

 eigenvalues of (default mixing * dielectric matrix)
  average eigenvalue GAMMA=   2.3990
 13.8728  8.0818  4.3035  2.2735  2.2735  2.0022  1.2603  1.2603  1.1291  0.9069
  0.9069  0.7517  0.7517  0.7900  0.7448  0.6400  0.6115  0.6215

 Free energy of the ion-electron system (eV)
  ---------------------------------------------------
  alpha Z        PSCENC =         0.19061315
  Ewald energy   TEWEN  =      5369.68871859
  -Hartree energ DENC   =     -6471.36867617
  -exchange      EXHF   =         0.00000000
  -V(xc)+E(xc)   XCENC  =       167.43333604
  PAW double counting   =      4154.76221452    -4161.89761877
  entropy T*S    EENTRO =        -0.00000000
  eigenvalues    EBANDS =      -661.07801464
  atomic energy  EATOM  =      1621.32137526
  Solvation  Ediel_sol  =      -147.56697828
  ---------------------------------------------------
  free energy    TOTEN  =      -128.51503031 eV

  energy without entropy =     -128.51503031  energy(sigma->0) =     -128.51503031


--------------------------------------------------------------------------------------------------------




--------------------------------------- Iteration      1(  20)  ---------------------------------------


    POTLOK:  cpu time    576.3824: real time    576.4142
    SETDIJ:  cpu time      0.0339: real time      0.0339
    EDDIAG:  cpu time      6.0979: real time      6.0981
  RMM-DIIS:  cpu time      9.5020: real time      9.5023
    ORTHCH:  cpu time      1.5855: real time      1.5855
       DOS:  cpu time      0.0089: real time      0.0089
    CHARGE:  cpu time      4.6539: real time      4.6540
    MIXING:  cpu time      0.2198: real time      0.2198
    --------------------------------------------
      LOOP:  cpu time    598.4843: real time    598.5168

 eigenvalue-minimisations  :   194
 total energy-change (2. order) :-0.8719793E-02  (-0.1695704E-03)
 number of electron      50.9999998 magnetization       1.3081895
 augmentation part        1.1824063 magnetization       0.3601903

 Broyden mixing:
  rms(total) = 0.62352E-02    rms(broyden)= 0.62350E-02
  rms(prec ) = 0.63126E-02
  weight for this iteration     100.00

 eigenvalues of (default mixing * dielectric matrix)
  average eigenvalue GAMMA=   2.7049
 18.6387  9.0234  4.9661  2.5677  2.2735  2.2735  1.3140  1.3140  1.2181  0.9880
  0.9880  0.9489  0.8076  0.7483  0.7483  0.7124  0.6290  0.6248  0.6096

 Free energy of the ion-electron system (eV)
  ---------------------------------------------------
  alpha Z        PSCENC =         0.19061315
  Ewald energy   TEWEN  =      5369.68871859
  -Hartree energ DENC   =     -6471.78078887
  -exchange      EXHF   =         0.00000000
  -V(xc)+E(xc)   XCENC  =       167.43080189
  PAW double counting   =      4158.20860457    -4165.34221091
  entropy T*S    EENTRO =        -0.00000000
  eigenvalues    EBANDS =      -661.08029425
  atomic energy  EATOM  =      1621.32137526
  Solvation  Ediel_sol  =      -147.16056952
  ---------------------------------------------------
  free energy    TOTEN  =      -128.52375011 eV

  energy without entropy =     -128.52375011  energy(sigma->0) =     -128.52375011


--------------------------------------------------------------------------------------------------------




--------------------------------------- Iteration      1(  21)  ---------------------------------------


    POTLOK:  cpu time    576.3450: real time    576.3721
    SETDIJ:  cpu time      0.0303: real time      0.0303
    EDDIAG:  cpu time      6.2980: real time      6.2981
  RMM-DIIS:  cpu time      9.6391: real time      9.6393
    ORTHCH:  cpu time      1.6082: real time      1.6083
       DOS:  cpu time      0.1938: real time      0.1938
    CHARGE:  cpu time      5.1037: real time      5.1038
    MIXING:  cpu time      0.2416: real time      0.2417
    --------------------------------------------
      LOOP:  cpu time    599.4597: real time    599.4875

 eigenvalue-minimisations  :   196
 total energy-change (2. order) :-0.1568816E-01  (-0.1579663E-03)
 number of electron      50.9999998 magnetization       1.1587658
 augmentation part        1.1825951 magnetization       0.2107505

 Broyden mixing:
  rms(total) = 0.65661E-02    rms(broyden)= 0.65657E-02
  rms(prec ) = 0.66794E-02
  weight for this iteration     100.00

 eigenvalues of (default mixing * dielectric matrix)
  average eigenvalue GAMMA=   2.7916
 21.3438  9.3080  5.1894  2.8007  2.2534  2.2534  1.4656  1.2664  1.2664  0.9442
  0.9442  0.9422  0.9422  0.8423  0.7536  0.7536  0.7027  0.6212  0.6212  0.6172

 Free energy of the ion-electron system (eV)
  ---------------------------------------------------
  alpha Z        PSCENC =         0.19061315
  Ewald energy   TEWEN  =      5369.68871859
  -Hartree energ DENC   =     -6471.96108842
  -exchange      EXHF   =         0.00000000
  -V(xc)+E(xc)   XCENC  =       167.41174822
  PAW double counting   =      4160.67501526    -4167.80427889
  entropy T*S    EENTRO =        -0.00000000
  eigenvalues    EBANDS =      -661.28124383
  atomic energy  EATOM  =      1621.32137526
  Solvation  Ediel_sol  =      -146.78029760
  ---------------------------------------------------
  free energy    TOTEN  =      -128.53943827 eV

  energy without entropy =     -128.53943827  energy(sigma->0) =     -128.53943827


--------------------------------------------------------------------------------------------------------




--------------------------------------- Iteration      1(  22)  ---------------------------------------


    POTLOK:  cpu time    553.2109: real time    553.2449
    SETDIJ:  cpu time      0.0302: real time      0.0302
    EDDIAG:  cpu time      5.4482: real time      5.4483
  RMM-DIIS:  cpu time      9.8420: real time      9.8422
    ORTHCH:  cpu time      0.9889: real time      0.9898
       DOS:  cpu time      0.3902: real time      0.3902
    CHARGE:  cpu time      3.9041: real time      3.9042
    MIXING:  cpu time      0.2458: real time      0.2458
    --------------------------------------------
      LOOP:  cpu time    574.0602: real time    574.0955

 eigenvalue-minimisations  :   192
 total energy-change (2. order) :-0.8944630E-02  (-0.2467867E-04)
 number of electron      50.9999998 magnetization       1.0729959
 augmentation part        1.1826420 magnetization       0.1249930

 Broyden mixing:
  rms(total) = 0.41418E-02    rms(broyden)= 0.41418E-02
  rms(prec ) = 0.42109E-02
  weight for this iteration     100.00

 eigenvalues of (default mixing * dielectric matrix)
  average eigenvalue GAMMA=   2.8612
 23.4936  9.4817  5.3846  3.0955  2.2343  2.2343  1.8595  1.2838  1.2838  1.1599
  0.9825  0.9825  0.9406  0.7657  0.7657  0.7879  0.7879  0.6995  0.6226  0.6226
  0.6167

 Free energy of the ion-electron system (eV)
  ---------------------------------------------------
  alpha Z        PSCENC =         0.19061315
  Ewald energy   TEWEN  =      5369.68871859
  -Hartree energ DENC   =     -6472.07802414
  -exchange      EXHF   =         0.00000000
  -V(xc)+E(xc)   XCENC  =       167.40096855
  PAW double counting   =      4160.86785761    -4167.99598673
  entropy T*S    EENTRO =        -0.00000000
  eigenvalues    EBANDS =      -661.34311310
  atomic energy  EATOM  =      1621.32137526
  Solvation  Ediel_sol  =      -146.60079207
  ---------------------------------------------------
  free energy    TOTEN  =      -128.54838290 eV

  energy without entropy =     -128.54838290  energy(sigma->0) =     -128.54838290


--------------------------------------------------------------------------------------------------------




--------------------------------------- Iteration      1(  23)  ---------------------------------------


    POTLOK:  cpu time    557.2305: real time    557.2658
    SETDIJ:  cpu time      0.0339: real time      0.0339
    EDDIAG:  cpu time      6.0812: real time      6.0814
  RMM-DIIS:  cpu time      9.8156: real time      9.8249
    ORTHCH:  cpu time      1.2183: real time      1.2183
[...]
  entropy T*S    EENTRO =        -0.00000000
  eigenvalues    EBANDS =      -661.08041905
  atomic energy  EATOM  =      1621.32137526
  Solvation  Ediel_sol  =      -146.10199265
  ---------------------------------------------------
  free energy    TOTEN  =      -128.56804153 eV

  energy without entropy =     -128.56804153  energy(sigma->0) =     -128.56804153


--------------------------------------------------------------------------------------------------------




--------------------------------------- Iteration      6(   2)  ---------------------------------------


    POTLOK:  cpu time    539.3810: real time    539.4096
    SETDIJ:  cpu time      0.0384: real time      0.0384
    EDDIAG:  cpu time      5.0438: real time      5.0439
  RMM-DIIS:  cpu time      9.4551: real time      9.4553
    ORTHCH:  cpu time      1.6319: real time      1.6319
       DOS:  cpu time      0.1787: real time      0.1787
    --------------------------------------------
      LOOP:  cpu time    555.7290: real time    555.7578

 eigenvalue-minimisations  :   189
 total energy-change (2. order) : 0.1900913E-05  (-0.5344871E-05)
 number of electron      50.9999998 magnetization       1.0000003
 augmentation part        1.1810076 magnetization       0.0520122

 Free energy of the ion-electron system (eV)
  ---------------------------------------------------
  alpha Z        PSCENC =         0.19061315
  Ewald energy   TEWEN  =      5366.24890462
  -Hartree energ DENC   =     -6469.33128547
  -exchange      EXHF   =         0.00000000
  -V(xc)+E(xc)   XCENC  =       167.32448869
  PAW double counting   =      4149.90227376    -4157.02745651
  entropy T*S    EENTRO =        -0.00000000
  eigenvalues    EBANDS =      -661.09416037
  atomic energy  EATOM  =      1621.32137526
  Solvation  Ediel_sol  =      -146.10279276
  ---------------------------------------------------
  free energy    TOTEN  =      -128.56803963 eV

  energy without entropy =     -128.56803963  energy(sigma->0) =     -128.56803963


--------------------------------------------------------------------------------------------------------




 average (electrostatic) potential at core
  the test charge radii are     0.6991  0.5201
  (the norm of the test charge is              1.0000)
       1 -59.9204       2 -60.4159       3 -59.6867       4 -60.0263       5 -60.4425
       6 -59.6522       7 -58.9796       8 -58.8041       9 -60.0674      10 -59.9639
      11 -42.6393      12 -42.2067      13 -42.4374      14 -42.4374      15 -42.1890
      16 -42.1889      17 -42.0806      18 -42.7067      19 -42.8991      20 -42.7928
      21 -42.7853      22 -42.8672
 
 
 
 E-fermi :  -6.4355     XC(G=0):  -0.0435     alpha+bet : -0.0208

 Fermi energy:        -6.4355247217

 spin component 1

 k-point     1 :       0.0000    0.0000    0.0000
  band No.  band energies     occupation 
      1     -22.5942      1.00000
      2     -21.0674      1.00000
      3     -19.9008      1.00000
      4     -19.5118      1.00000
      5     -18.0545      1.00000
      6     -17.2889      1.00000
      7     -15.8442      1.00000
      8     -15.5677      1.00000
      9     -14.1702      1.00000
     10     -13.1352      1.00000
     11     -12.6902      1.00000
     12     -11.8290      1.00000
     13     -11.3436      1.00000
     14     -11.2260      1.00000
     15     -10.9344      1.00000
     16     -10.7572      1.00000
     17     -10.1365      1.00000
     18      -9.9861      1.00000
     19      -9.9062      1.00000
     20      -9.8176      1.00000
     21      -9.5109      1.00000
     22      -8.9744      1.00000
     23      -8.7346      1.00000
     24      -8.3598      1.00000
     25      -7.1736      1.00000
     26      -6.6916      1.00000
     27      -3.4053      0.00000
     28      -2.0047      0.00000
     29      -1.0232      0.00000
     30      -0.5261      0.00000
     31      -0.2324      0.00000
     32      -0.1332      0.00000
     33      -0.0025      0.00000
     34       0.0502      0.00000
     35       0.0796      0.00000
     36       0.0822      0.00000
     37       0.0930      0.00000
     38       0.0957      0.00000
     39       0.1105      0.00000
     40       0.1221      0.00000
     41       0.1595      0.00000
     42       0.1661      0.00000
     43       0.1723      0.00000
     44       0.1725      0.00000
     45       0.1745      0.00000
     46       0.1797      0.00000
     47       0.1802      0.00000
     48       0.1819      0.00000
 Fermi energy:        -6.4355247217

 spin component 2

 k-point     1 :       0.0000    0.0000    0.0000
  band No.  band energies     occupation 
      1     -22.4532      1.00000
      2     -20.8927      1.00000
      3     -19.8575      1.00000
      4     -19.3134      1.00000
      5     -17.9646      1.00000
      6     -17.1773      1.00000
      7     -15.7387      1.00000
      8     -15.4793      1.00000
      9     -14.0697      1.00000
     10     -13.0924      1.00000
     11     -12.6288      1.00000
     12     -11.7616      1.00000
     13     -11.1681      1.00000
     14     -11.1379      1.00000
     15     -10.8787      1.00000
     16     -10.7332      1.00000
     17     -10.0329      1.00000
     18      -9.8611      1.00000
     19      -9.8072      1.00000
     20      -9.7171      1.00000
     21      -9.4704      1.00000
     22      -8.9512      1.00000
     23      -8.6869      1.00000
     24      -7.9687      1.00000
     25      -7.0450      1.00000
     26      -5.9783      0.00000
     27      -2.8201      0.00000
     28      -1.8318      0.00000
     29      -0.5924      0.00000
     30      -0.5014      0.00000
     31      -0.1804      0.00000
     32      -0.1254      0.00000
     33      -0.0025      0.00000
     34       0.0614      0.00000
     35       0.0792      0.00000
     36       0.0818      0.00000
     37       0.0934      0.00000
     38       0.0954      0.00000
     39       0.1110      0.00000
     40       0.1305      0.00000
     41       0.1635      0.00000
     42       0.1695      0.00000
     43       0.1713      0.00000
     44       0.1726      0.00000
     45       0.1743      0.00000
     46       0.1779      0.00000
     47       0.1784      0.00000
     48       0.1797      0.00000


--------------------------------------------------------------------------------------------------------


 soft charge-density along one line, spin component           1
         0         1         2         3         4         5         6         7         8         9
 total charge-density along one line
 
 soft charge-density along one line, spin component           2
         0         1         2         3         4         5         6         7         8         9
 total charge-density along one line
 
 pseudopotential strength for first ion, spin component:           1
 10.335  13.747   0.002  -0.000  -0.001  -0.006   0.000   0.003
 13.747  18.284   0.003  -0.000  -0.001  -0.008   0.000   0.004
  0.002   0.003  -4.439  -0.000  -0.001   8.680   0.000   0.002
 -0.000  -0.000  -0.000  -4.447  -0.000   0.000   8.699   0.000
 -0.001  -0.001  -0.001  -0.000  -4.440   0.002   0.000   8.681
 -0.006  -0.008   8.680   0.000   0.002 -19.117  -0.000  -0.004
  0.000   0.000   0.000   8.699   0.000  -0.000 -19.160  -0.000
  0.003   0.004   0.002   0.000   8.681  -0.004  -0.000 -19.117
 pseudopotential strength for first ion, spin component:           2
 10.314  13.719   0.002  -0.000  -0.001  -0.007   0.000   0.003
 13.719  18.245   0.003  -0.000  -0.001  -0.009   0.000   0.004
  0.002   0.003  -4.439  -0.000  -0.002   8.685   0.000   0.003
 -0.000  -0.000  -0.000  -4.426  -0.000   0.000   8.666   0.000
 -0.001  -0.001  -0.002  -0.000  -4.440   0.003   0.000   8.685
 -0.007  -0.009   8.685   0.000   0.003 -19.135  -0.000  -0.005
  0.000   0.000   0.000   8.666   0.000  -0.000 -19.110  -0.000
  0.003   0.004   0.003   0.000   8.685  -0.005  -0.000 -19.132
 total augmentation occupancy for first ion, spin component:           1
  7.731  -3.331   0.078  -0.000  -0.248   0.022  -0.000  -0.046
 -3.331   1.482  -0.076   0.000   0.155  -0.015   0.000   0.027
  0.078  -0.076   1.765  -0.000   0.027   0.155  -0.000   0.009
 -0.000   0.000  -0.000   1.060   0.000  -0.000   0.059   0.000
 -0.248   0.155   0.027   0.000   1.865   0.009   0.000   0.164
  0.022  -0.015   0.155  -0.000   0.009   0.015  -0.000   0.002
 -0.000   0.000  -0.000   0.059   0.000  -0.000   0.004   0.000
 -0.046   0.027   0.009   0.000   0.164   0.002   0.000   0.015
 total augmentation occupancy for first ion, spin component:           2
  0.011  -0.003   0.006  -0.000   0.004   0.001  -0.000   0.001
 -0.003   0.001  -0.006   0.000  -0.003  -0.001   0.000  -0.001
  0.006  -0.006  -0.002   0.000  -0.001   0.000   0.000   0.000
 -0.000   0.000   0.000   0.134   0.000   0.000   0.004   0.000
  0.004  -0.003  -0.001   0.000   0.003   0.000  -0.000   0.000
  0.001  -0.001   0.000   0.000   0.000   0.000   0.000   0.000
 -0.000   0.000   0.000   0.004  -0.000   0.000   0.000  -0.000
  0.001  -0.001   0.000   0.000   0.000   0.000  -0.000  -0.000


------------------------ aborting loop because EDIFF is reached ----------------------------------------


    CHARGE:  cpu time      5.5408: real time      5.5409
    FORLOC:  cpu time      0.2747: real time      0.2747
    FORNL :  cpu time      3.8938: real time      3.8939
    STRESS:  cpu time     11.6421: real time     11.6424
    FORCOR:  cpu time     25.0647: real time     25.0654
    FORHAR:  cpu time      2.7486: real time      2.7486
    MIXING:  cpu time      0.1017: real time      0.1017
    OFIELD:  cpu time      0.0000: real time      0.0000

 ---------------------------------------------------------------------------------------------

         DFTD3 V3.0 Rev 1        
 Edisp (eV)   -0.24766

 E6    (eV) :    -0.1044
 E8    (eV) :    -0.1433
 % E8        : 57.85
    FORVDW:  cpu time      0.0148: real time      0.0148

  FORCE on cell =-STRESS in cart. coord.  units (eV):
  Direction    XX          YY          ZZ          XY          YZ          ZX
  --------------------------------------------------------------------------------------
  Alpha Z     0.19061     0.19061     0.19061
  Ewald    3460.41997  2160.88518  -255.05708   -40.29546    -0.03507    -0.01039
  Hartree  3391.66610  2314.22610   763.37359   -27.61188    -0.03808    -0.00420
  E(xc)    -182.04892  -182.32847  -186.92090    -0.01203     0.00010    -0.00004
  Local   -7315.43566 -4935.21072 -1029.61698    69.15949     0.07470     0.01403
  n-local   -69.22395   -71.11579   -61.68583    -0.50356    -0.00091     0.00012
  augment    -2.08756    -2.14132    -2.00554    -0.01426    -0.00000     0.00000
  Kinetic   716.95384   716.19215   770.66556    -0.62019    -0.00105     0.00003
  Fock        0.00000     0.00000     0.00000     0.00000     0.00000     0.00000
  vdW        -0.04113    -0.01220     0.00302    -0.00325    -0.00000    -0.00000
  -------------------------------------------------------------------------------------
  Total       0.39331     0.68555    -1.05354     0.09886    -0.00031    -0.00046
  in kB       0.00985     0.01716    -0.02637     0.00247    -0.00001    -0.00001
  external pressure =        0.00 kB  Pullay stress =        0.00 kB


 VOLUME and BASIS-vectors are now :
 -----------------------------------------------------------------------------
  energy-cutoff  :      500.00
  volume of cell :    64000.00
      direct lattice vectors                 reciprocal lattice vectors
    40.000000000  0.000000000  0.000000000     0.025000000  0.000000000  0.000000000
     0.000000000 40.000000000  0.000000000     0.000000000  0.025000000  0.000000000
     0.000000000  0.000000000 40.000000000     0.000000000  0.000000000  0.025000000

  length of vectors
    40.000000000 40.000000000 40.000000000     0.025000000  0.025000000  0.025000000


 FORCES acting on ions
    electron-ion (+dipol)            ewald-force                    non-local-force                 convergence-correction
 -----------------------------------------------------------------------------------------------
   -.110E+03 0.157E+03 -.244E-01   0.111E+03 -.159E+03 0.247E-01   -.107E+01 0.214E+01 0.585E-04   -.676E-02 0.855E-02 -.106E-04
   -.850E+02 -.192E+02 -.157E-01   0.848E+02 0.192E+02 0.157E-01   0.216E-01 -.337E-02 0.394E-03   -.101E-01 -.766E-03 -.124E-03
   -.499E+02 -.172E+03 -.826E-02   0.495E+02 0.174E+03 0.879E-02   -.253E-01 -.233E+01 -.218E-02   -.443E-02 -.100E-01 -.695E-04
   0.659E+02 -.850E+02 0.981E-02   -.669E+02 0.867E+02 -.986E-02   0.891E+00 -.152E+01 0.355E-03   0.511E-02 -.179E-02 -.958E-04
   0.886E+02 0.629E+02 -.158E-02   -.897E+02 -.633E+02 0.136E-02   0.100E+01 0.375E+00 -.195E-04   0.402E-02 0.547E-03 0.998E-04
   0.242E+02 0.203E+03 -.115E-01   -.248E+02 -.205E+03 0.112E-01   0.451E+00 0.244E+01 -.178E-02   -.237E-02 0.612E-02 0.393E-03
   0.183E+03 0.882E+02 0.913E-02   -.185E+03 -.898E+02 -.926E-02   0.170E+01 0.139E+01 0.209E-03   0.134E-01 0.232E-02 0.339E-04
   0.127E+03 -.156E+03 0.137E-01   -.128E+03 0.159E+03 -.138E-01   0.995E+00 -.171E+01 0.992E-05   0.106E-01 -.603E-02 -.300E-03
   -.123E+03 -.105E+03 -.230E-01   0.123E+03 0.107E+03 0.239E-01   -.396E+00 -.198E+01 -.287E-03   -.163E-01 0.192E-02 -.222E-03
   -.194E+03 0.510E+02 0.357E-01   0.196E+03 -.520E+02 -.357E-01   -.193E+01 0.120E+01 0.482E-03   0.215E-02 -.783E-02 -.367E-03
   0.144E+02 0.890E+02 -.949E-02   -.158E+02 -.946E+02 0.993E-02   0.147E+01 0.577E+01 -.693E-03   -.409E-04 0.179E-02 0.667E-04
   0.365E+02 0.750E+02 -.371E-02   -.374E+02 -.807E+02 0.410E-02   0.651E+00 0.570E+01 -.456E-03   0.142E-02 -.467E-03 0.108E-04
   0.606E+02 -.582E+01 0.550E+02   -.635E+02 0.770E+01 -.593E+02   0.269E+01 -.202E+01 0.436E+01   0.102E-02 0.987E-03 -.928E-03
   0.607E+02 -.583E+01 -.550E+02   -.635E+02 0.771E+01 0.592E+02   0.269E+01 -.202E+01 -.436E+01   0.103E-02 0.980E-03 0.930E-03
   0.569E+02 -.226E+02 -.553E+02   -.602E+02 0.224E+02 0.597E+02   0.330E+01 0.448E+00 -.444E+01   0.996E-03 -.950E-03 0.628E-03
   0.569E+02 -.226E+02 0.553E+02   -.602E+02 0.224E+02 -.597E+02   0.330E+01 0.449E+00 0.443E+01   0.105E-02 -.940E-03 -.606E-03
   -.159E+01 -.828E+02 0.939E-02   0.347E+01 0.882E+02 -.995E-02   -.215E+01 -.526E+01 0.628E-03   0.150E-02 -.862E-03 -.266E-04
   -.217E+02 -.867E+02 0.169E-02   0.230E+02 0.923E+02 -.189E-02   -.148E+01 -.575E+01 0.241E-03   -.758E-03 -.160E-02 -.985E-05
   -.336E+02 0.651E+02 0.274E-01   0.336E+02 -.708E+02 -.292E-01   0.208E+00 0.600E+01 0.203E-02   -.297E-03 -.841E-03 -.524E-04
   -.761E+02 -.193E+02 0.674E-02   0.816E+02 0.217E+02 -.697E-02   -.552E+01 -.245E+01 0.337E-03   0.125E-02 0.105E-03 -.480E-04
   -.335E+02 -.767E+02 -.163E-01   0.344E+02 0.824E+02 0.175E-01   -.843E+00 -.591E+01 -.124E-02   -.202E-02 0.908E-03 -.146E-04
   -.510E+02 0.709E+02 -.948E-02   0.549E+02 -.750E+02 0.101E-01   -.420E+01 0.430E+01 -.423E-03   -.873E-03 0.432E-03 -.173E-04
 -----------------------------------------------------------------------------------------------
   -.177E+01 0.781E+00 0.195E-03   0.284E-13 -.711E-13 0.381E-14   0.176E+01 -.755E+00 -.197E-02   -.369E-03 -.746E-02 -.730E-03
 
 
 POSITION                                       TOTAL-FORCE (eV/Angst)
 -----------------------------------------------------------------------------------
     21.08183     18.72746     20.00022        -0.003546      0.005194      0.000309
     21.43760     20.11971     20.00015         0.001599      0.001110      0.000364
     20.39905     21.09110     20.00010        -0.001385     -0.007598     -0.001638
     19.06309     20.73729     20.00001         0.003394      0.011542      0.000319
     18.72336     19.33532     20.00007        -0.004278     -0.003147     -0.000026
     19.75767     18.36208     20.00018        -0.000224      0.002415     -0.001685
     17.30275     18.91055     19.99998         0.010481     -0.000151      0.000255
     17.99044     21.77915     19.99991         0.000387     -0.002981     -0.000205
     22.79265     20.57553     20.00009        -0.005896      0.004478      0.000456
     23.90466     19.77345     19.99972         0.008017     -0.010027      0.000271
     19.48230     17.30732     20.00029         0.001648     -0.001158     -0.000063
     17.19653     17.82125     20.00006        -0.001710      0.000899      0.000088
     16.77672     19.32725     19.12414        -0.002955     -0.005881      0.001149
     16.77660     19.32740     20.87568        -0.003082     -0.005901     -0.000958
     17.34036     21.67365     20.88200        -0.004710      0.003982     -0.000846
     17.34031     21.67348     19.11789        -0.004586      0.003946      0.001205
     18.42048     22.78675     19.99980        -0.011357      0.001635      0.000166
     20.67702     22.14607     20.00005        -0.000103      0.007272      0.000152
     23.84738     18.68516     19.99937         0.003685      0.009622      0.000252
     24.89823     20.21982     19.99967         0.002256     -0.007989      0.000191
     22.93585     21.65887     20.00032         0.009718     -0.006813      0.000049
     21.85508     17.96140     20.00030         0.002646     -0.000448      0.000196
 -----------------------------------------------------------------------------------
    total drift:                               -0.008778      0.018231     -0.002508


--------------------------------------------------------------------------------------------------------



  FREE ENERGIE OF THE ION-ELECTRON SYSTEM (eV)
  ---------------------------------------------------
  free  energy   TOTEN  =      -128.81570194 eV

  energy  without entropy=     -128.81570194  energy(sigma->0) =     -128.81570194
 
 d Force = 0.2533393E-04[-0.113E-05, 0.518E-04]  d Energy = 0.2625057E-04-0.917E-06
 d Force = 0.5437911E+00[ 0.544E+00, 0.544E+00]  d Ewald  = 0.5437911E+00 0.768E-08


--------------------------------------------------------------------------------------------------------


    POTLOK:  cpu time    529.4184: real time    529.4381


--------------------------------------------------------------------------------------------------------


 Conjugate gradient step on ions:
 trial-energy change:   -0.000026  1 .order   -0.000025   -0.000052    0.000001
  (g-gl).g = 0.112E-03      g.g   = 0.104E-03  gl.gl    = 0.524E-03
 g(Force)  = 0.104E-03   g(Stress)= 0.000E+00 ortho     =-0.190E-04
 gamma     =   0.21432
 trial     =   0.51751
 opt step  =   0.50648  (harmonic =   0.50648) maximal distance =0.00052964
 next E    =  -128.815701   (d E  =  -0.00003)


--------------------------------------------------------------------------------------------------------


  
 reached required accuracy - stopping structural energy minimisation
 writing wavefunctions
     LOOP+:  cpu time   1822.3201: real time   1822.9809
    4ORBIT:  cpu time      0.0000: real time      0.0000

 total amount of memory used by VASP MPI-rank0   523066. kBytes
=======================================================================

   base      :      30000. kBytes
   nonlr-proj:       1265. kBytes
   fftplans  :     131430. kBytes
   grid      :     332629. kBytes
   one-center:         12. kBytes
   wavefun   :      27730. kBytes
 
  
  
 General timing and accounting informations for this job:
 ========================================================
  
                  Total CPU time used (sec):    36435.016
                            User time (sec):    14343.923
                          System time (sec):    22091.091
                         Elapsed time (sec):    36439.330
  
                   Maximum memory used (kb):     1560264.
                   Average memory used (kb):          N/A
  
                          Minor page faults:    135783506
                          Major page faults:            0
                 Voluntary context switches:         8421
