
                                 *****************
                                 * O   R   C   A *
                                 *****************

                                            #,                                       
                                            ###                                      
                                            ####                                     
                                            #####                                    
                                            ######                                   
                                           ########,                                 
                                     ,,################,,,,,                         
                               ,,#################################,,                 
                          ,,##########################################,,             
                       ,#########################################, ''#####,          
                    ,#############################################,,   '####,        
                  ,##################################################,,,,####,       
                ,###########''''           ''''###############################       
              ,#####''   ,,,,##########,,,,          '''####'''          '####       
            ,##' ,,,,###########################,,,                        '##       
           ' ,,###''''                  '''############,,,                           
         ,,##''                                '''############,,,,        ,,,,,,###''
      ,#''                                            '''#######################'''  
     '                                                          ''''####''''         
             ,#######,   #######,   ,#######,      ##                                
            ,#'     '#,  ##    ##  ,#'     '#,    #''#        ,####,   ,####,        
            ##       ##  ##   ,#'  ##            #'  '#       #'       #'  '#        
            ##       ##  #######   ##           ,######,      #####,   #    #        
            '#,     ,#'  ##    ##  '#,     ,#' ,#      #,     #,   #   #,  ,#        
             '#######'   ##     ##  '#######'  #'      '#     '####' # '####'        



                #########################################################
                #                        -***-                          #
                #          Department of theory and spectroscopy        #
                #                                                       #
                #                      Frank Neese                      #
                #                                                       #
                #     Directorship, Architecture, Infrastructure        #
                #                    SHARK, DRIVERS                     #
                #        Core code/Algorithms in most modules           #
                #                                                       #
                #        Max Planck Institute fuer Kohlenforschung      #
                #                Kaiser Wilhelm Platz 1                 #
                #                 D-45470 Muelheim/Ruhr                 #
                #                      Germany                          #
                #                                                       #
                #                  All rights reserved                  #
                #                        -***-                          #
                #########################################################


                         Program Version 6.0.0  -   RELEASE  -


 With contributions from (in alphabetic order):
   Daniel Aravena         : Magnetic Suceptibility
   Michael Atanasov       : Ab Initio Ligand Field Theory (pilot matlab implementation)
   Alexander A. Auer      : GIAO ZORA, VPT2 properties, NMR spectrum
   Ute Becker             : All parallelization in ORCA, NUMFREQ, NUMCALC
   Giovanni Bistoni       : ED, misc. LED, open-shell LED, HFLD
   Martin Brehm           : Molecular dynamics
   Dmytro Bykov           : pre 5.0 version of the SCF Hessian
   Marcos Casanova-Páez   : Triplet and SCS-CIS(D). UHF-(DLPNO)-IP/EA/STEOM-CCSD. UHF-CVS-IP/STEOM-CCSD
   Vijay G. Chilkuri      : MRCI spin determinant printing, contributions to CSF-ICE
   Pauline Colinet        : FMM embedding
   Dipayan Datta          : RHF DLPNO-CCSD density
   Achintya Kumar Dutta   : EOM-CC, STEOM-CC
   Nicolas Foglia         : Exact transition moments, OPA infrastructure, MCD improvements
   Dmitry Ganyushin       : Spin-Orbit,Spin-Spin,Magnetic field MRCI
   Miquel Garcia          : C-PCM and meta-GGA Hessian, CCSD/C-PCM, Gaussian charge scheme
   Tiago L. C. Gouveia    : GS-ROHF, GS-ROCIS
   Yang Guo               : DLPNO-NEVPT2, F12-NEVPT2, CIM, IAO-localization
   Andreas Hansen         : Spin unrestricted coupled pair/coupled cluster methods
   Ingolf Harden          : AUTO-CI MPn and infrastructure 
   Benjamin Helmich-Paris : MC-RPA, TRAH-(SCF,CASSCF), AVAS, COSX integrals, SCF dyn. polar.
   Lee Huntington         : MR-EOM, pCC
   Robert Izsak           : Overlap fitted RIJCOSX, COSX-SCS-MP3, EOM
   Riya Kayal             : Wick's Theorem for AUTO-CI, AUTO-CI UHF-CCSDT
   Emily Kempfer          : AUTO-CI, RHF CISDT and CCSDT
   Christian Kollmar      : KDIIS, OOCD, Brueckner-CCSD(T), CCSD density, CASPT2, CASPT2-K, improved NEVPT2
   Axel Koslowski         : Symmetry handling
   Simone Kossmann        : Meta GGA functionals, TD-DFT gradient, OOMP2, (MP2 Hessian; deprecated post 5.0)
   Lucas Lang             : DCDCAS
   Marvin Lechner         : AUTO-CI (C++ implementation), FIC-MRCC
   Spencer Leger          : CASSCF response
   Dagmar Lenk            : GEPOL surface, SMD, ORCA-2-JSON
   Dimitrios Liakos       : Extrapolation schemes; Compound Job, initial MDCI parallelization
   Dimitrios Manganas     : Further ROCIS development; embedding schemes. LFT, Crystal Embedding
   Dimitrios Pantazis     : SARC Basis sets
   Anastasios Papadopoulos: AUTO-CI, single reference methods and gradients
   Taras Petrenko         : pre 6.0 DFT Hessian and TD-DFT gradient, (ASA, deprecated), ECA, 1-Electron XAS/XES, NRVS
   Peter Pinski           : DLPNO-MP2, DLPNO-MP2 Gradient
   Christoph Reimann      : Effective Core Potentials
   Marius Retegan         : Local ZFS, SOC
   Christoph Riplinger    : Optimizer, TS searches, QM/MM, DLPNO-CCSD(T), (RO)-DLPNO pert. Triples
   Michael Roemelt        : Original ROCIS implementation
   Masaaki Saitow         : Open-shell DLPNO-CCSD energy and density
   Barbara Sandhoefer     : DKH picture change effects
   Kantharuban Sivalingam : CASSCF convergence/infrastructure, NEVPT2 and variants, FIC-MRCI
   Bernardo de Souza      : ESD, SOC TD-DFT
   Georgi Stoychev        : AutoAux, RI-MP2 NMR, DLPNO-MP2 response, X2C
   Van Anh Tran           : RI-MP2 g-tensors
   Willem Van den Heuvel  : Paramagnetic NMR
   Zikuan Wang            : NOTCH, Electric field optimization 
   Frank Wennmohs         : Technical directorship and infrastructure
   Hang Xu                : AUTO-CI-Response properties 


 We gratefully acknowledge several colleagues who have allowed us to
 interface, adapt or use parts of their codes:
   Stefan Grimme, W. Hujo, H. Kruse, P. Pracht,  : VdW corrections, initial TS optimization,
                  C. Bannwarth, S. Ehlert,         DFT functionals, gCP, sTDA/sTD-DF
                  L. Wittmann, M. Mueller
   Ed Valeev, F. Pavosevic, A. Kumar             : LibInt (2-el integral package), F12 methods
   Garnet Chan, S. Sharma, J. Yang, R. Olivares  : DMRG
   Ulf Ekstrom                                   : XCFun DFT Library
   Mihaly Kallay                                 : mrcc  (arbitrary order and MRCC methods)
   Frank Weinhold                                : gennbo (NPA and NBO analysis)
   Simon Mueller                                 : openCOSMO-RS
   Christopher J. Cramer and Donald G. Truhlar   : smd solvation model
   Lars Goerigk                                  : TD-DFT with DH, B97 family of functionals
   V. Asgeirsson, H. Jonsson                     : NEB implementation
   FAccTs GmbH                                   : IRC, NEB, NEB-TS, DLPNO-Multilevel, CI-OPT
                                                   MM, QMMM, 2- and 3-layer-ONIOM, Crystal-QMMM,
                                                   LR-CPCM, SF, NACMEs, symmetry and pop. for TD-DFT,
                                                   nearIR, NL-DFT gradient (VV10), updates on ESD,
                                                   ML-optimized integration grids, MBIS, APM,
                                                   GOAT, DOCKER, SOLVATOR, interface openCOSMO-RS
   S Lehtola, MJT Oliveira, MAL Marques          : LibXC Library
   Liviu Ungur et al                             : ANISO software


 Your calculation uses the libint2 library for the computation of 2-el integrals
 For citations please refer to: http://libint.valeyev.net

 Your ORCA version has been built with support for libXC version: 6.2.2
 For citations please refer to: https://libxc.gitlab.io

 This ORCA versions uses:
   CBLAS   interface :  Fast vector & matrix operations
   LAPACKE interface :  Fast linear algebra routines
   SCALAPACK package :  Parallel linear algebra routines
   Shared memory     :  Shared parallel matrices
   BLAS/LAPACK       :  OpenBLAS 0.3.27  USE64BITINT DYNAMIC_ARCH NO_AFFINITY Sandybridge SINGLE_THREADED
        Core in use  :  Sandybridge
   Copyright (c) 2011-2014, The OpenBLAS Project


NOTE: MaxCore=3500 MB was set to SCF,MP2,MDCI,CIPSI,MRCI and CIS
      => If you want to overwrite this, your respective input block should be placed after the MaxCore statement
Your calculation utilizes the atom-pairwise dispersion correction
with the Becke-Johnson damping scheme (D3BJ)


Your calculation utilizes the SMD solvation module
Please cite in your paper:
A.V. Marenich, C.J. Cramer, D.G. Truhlar J. Phys. Chem. B, 113, (2009), 6378 

Warning: RI is on but no J-basis has been assigned. Assigning Def2/J (nothing to worry about!)
================================================================================

----- Orbital basis set information -----
Your calculation utilizes the basis: aug-cc-pVTZ 
    H, B-Ne : Obtained from the ccRepo (grant-hill.group.shef.ac.uk/ccrepo) Feb. 2017
              R. A. Kendall, T. H. Dunning, Jr., R. J. Harrison, J. Chem. Phys. 96, 6796 (1992)
         He : Obtained from the ccRepo (grant-hill.group.shef.ac.uk/ccrepo) Feb. 2017
              D. E. Woon, T. H. Dunning, Jr., J. Chem. Phys. 100, 2975 (1994)
  Li-Be, Na : Obtained from the ccRepo (grant-hill.group.shef.ac.uk/ccrepo) Feb. 2017
              B. P. Prascher, D. E. Woon, K. A. Peterson, T. H. Dunning, Jr., A. K. Wilson, Theor. Chem. Acc. 128, 69 (2011)
         Mg : Obtained from the Peterson Research Group Website (tyr0.chem.wsu.edu/~kipeters) Feb. 2017
              B. P. Prascher, D. E. Woon, K. A. Peterson, T. H. Dunning, Jr., A. K. Wilson, Theor. Chem. Acc. 128, 69 (2011)
      Al-Ar : Obtained from the ccRepo (grant-hill.group.shef.ac.uk/ccrepo) Feb. 2017
              D. E. Woon, T. H. Dunning, Jr., J. Chem. Phys. 98, 1358 (1993)
      Sc-Zn : Obtained from the ccRepo (grant-hill.group.shef.ac.uk/ccrepo) Feb. 2017
              N. B. Balabanov, K. A. Peterson, J. Chem. Phys. 123, 064107 (2005)
              N. B. Balabanov, K. A. Peterson, J. Chem. Phys. 125, 074110 (2006)
      Ga-Kr : Obtained from the ccRepo (grant-hill.group.shef.ac.uk/ccrepo) Feb. 2017
              A. K. Wilson, D. E. Woon, K. A. Peterson, T. H. Dunning, Jr., J. Chem. Phys. 110, 7667 (1999)
     Ag, Au : Obtained from the Peterson Research Group Website (tyr0.chem.wsu.edu/~kipeters) Feb. 2017
              K. A. Peterson, C. Puzzarini, Theor. Chem. Acc. 114, 283 (2005)

----- AuxJ basis set information -----
Your calculation utilizes the auxiliary basis: def2/J
   F. Weigend, Phys. Chem. Chem. Phys. 8, 1057 (2006).

================================================================================
                                        WARNINGS
                       Please study these warnings very carefully!
================================================================================

Using LibXC functional ID 497 : Re-regularized SCAN exchange by Furness et al
[ 1]  J. W. Furness, A. D. Kaplan, J. Ning, J. P. Perdew, and J. Sun.,  J. Phys. Chem. Lett. 11, 8208-8215 (2020)
[ 2]  J. W. Furness, A. D. Kaplan, J. Ning, J. P. Perdew, and J. Sun.,  J. Phys. Chem. Lett. 11, 9248-9248 (2020)
Using LibXC functional ID 498 : Re-regularized SCAN correlation by Furness et al
[ 1]  J. W. Furness, A. D. Kaplan, J. Ning, J. P. Perdew, and J. Sun.,  J. Phys. Chem. Lett. 11, 8208-8215 (2020)
[ 2]  J. W. Furness, A. D. Kaplan, J. Ning, J. P. Perdew, and J. Sun.,  J. Phys. Chem. Lett. 11, 9248-9248 (2020)
Using LibXC functional ID 497 : Re-regularized SCAN exchange by Furness et al
[ 1]  J. W. Furness, A. D. Kaplan, J. Ning, J. P. Perdew, and J. Sun.,  J. Phys. Chem. Lett. 11, 8208-8215 (2020)
[ 2]  J. W. Furness, A. D. Kaplan, J. Ning, J. P. Perdew, and J. Sun.,  J. Phys. Chem. Lett. 11, 9248-9248 (2020)
Using LibXC functional ID 498 : Re-regularized SCAN correlation by Furness et al
[ 1]  J. W. Furness, A. D. Kaplan, J. Ning, J. P. Perdew, and J. Sun.,  J. Phys. Chem. Lett. 11, 8208-8215 (2020)
[ 2]  J. W. Furness, A. D. Kaplan, J. Ning, J. P. Perdew, and J. Sun.,  J. Phys. Chem. Lett. 11, 9248-9248 (2020)

================================================================================
                                       INPUT FILE
================================================================================
NAME = cs_rporg_w10_ox_solv_04.inp
|  1> !r2SCANh aug-cc-pVTZ d3 TightSCF SlowConv RIJCOSX defgrid2
|  2> 
|  3> %pal
|  4> nprocs 15
|  5> end
|  6> 
|  7> %scf
|  8> MaxIter 1500
|  9> end
| 10> 
| 11> %maxcore 3500
| 12> 
| 13> !CPCM
| 14> %cpcm smd true
| 15> SMDsolvent "WATER"
| 16> surfacetype gepol_ses
| 17> rsolv 1.40
| 18> end
| 19> 
| 20> * xyz 0 1
| 21> C           0.05740703362366     -0.03818478987782     -0.05305252362433
| 22> C           0.04752787284548      1.43042672917474      0.09288134793546
| 23> C           0.00865823360556      2.06419843064535      1.28313969477442
| 24> C          -0.02631367755515      1.27331877582174      2.55115567713606
| 25> C          -0.01924382659142     -0.21029957823671      2.44828393846160
| 26> C           0.02139111377803     -0.84476466741681      1.19738932390815
| 27> C           0.02778920782920     -2.23769356254970      1.12126987378335
| 28> C          -0.00634981044020     -2.99663523812184      2.28791660064124
| 29> C          -0.04698344076028     -2.36584188207955      3.53454063211562
| 30> C          -0.05333228207351     -0.97623991811648      3.61522849103236
| 31> H           0.07423269005991      1.98647405476100     -0.84970518486997
| 32> H          -0.08462573760684     -0.45717520913165      4.57653406994510
| 33> H          -0.07388405763115     -2.96530465276422      4.44922462797787
| 34> H          -0.00147351819034     -4.08899982107002      2.22872595641621
| 35> H           0.05990452710164     -2.70205720690776      0.13238845062488
| 36> C          -0.00206079517557      3.54702899649423      1.43475658835013
| 37> H          -0.90223963443982      3.87118144099815      1.98551534688661
| 38> H           0.85990766484548      3.87826240212472      2.03977796655726
| 39> H           0.02634952855796      4.05066472850984      0.45627956358589
| 40> O          -0.05966185780097      1.83961965072649      3.62552534412724
| 41> O           0.09300076601833     -0.55701475298369     -1.15202852476517
| 42> *
| 43> 
| 44>                          ****END OF INPUT****
================================================================================

                       ****************************
                       * Single Point Calculation *
                       ****************************

---------------------------------
CARTESIAN COORDINATES (ANGSTROEM)
---------------------------------
  C      0.057407   -0.038185   -0.053053
  C      0.047528    1.430427    0.092881
  C      0.008658    2.064198    1.283140
  C     -0.026314    1.273319    2.551156
  C     -0.019244   -0.210300    2.448284
  C      0.021391   -0.844765    1.197389
  C      0.027789   -2.237694    1.121270
  C     -0.006350   -2.996635    2.287917
  C     -0.046983   -2.365842    3.534541
  C     -0.053332   -0.976240    3.615228
  H      0.074233    1.986474   -0.849705
  H     -0.084626   -0.457175    4.576534
  H     -0.073884   -2.965305    4.449225
  H     -0.001474   -4.089000    2.228726
  H      0.059905   -2.702057    0.132388
  C     -0.002061    3.547029    1.434757
  H     -0.902240    3.871181    1.985515
  H      0.859908    3.878262    2.039778
  H      0.026350    4.050665    0.456280
  O     -0.059662    1.839620    3.625525
  O      0.093001   -0.557015   -1.152029

----------------------------
CARTESIAN COORDINATES (A.U.)
----------------------------
  NO LB      ZA    FRAG     MASS         X           Y           Z
   0 C     6.0000    0    12.011    0.108484   -0.072159   -0.100255
   1 C     6.0000    0    12.011    0.089815    2.703115    0.175520
   2 C     6.0000    0    12.011    0.016362    3.900770    2.424783
   3 C     6.0000    0    12.011   -0.049726    2.406224    4.820986
   4 C     6.0000    0    12.011   -0.036366   -0.397409    4.626586
   5 C     6.0000    0    12.011    0.040423   -1.596374    2.262738
   6 C     6.0000    0    12.011    0.052514   -4.228628    2.118893
   7 C     6.0000    0    12.011   -0.011999   -5.662820    4.323536
   8 C     6.0000    0    12.011   -0.088786   -4.470793    6.679314
   9 C     6.0000    0    12.011   -0.100783   -1.844826    6.831792
  10 H     1.0000    0     1.008    0.140279    3.753892   -1.605710
  11 H     1.0000    0     1.008   -0.159919   -0.863936    8.648396
  12 H     1.0000    0     1.008   -0.139621   -5.603614    8.407816
  13 H     1.0000    0     1.008   -0.002785   -7.727090    4.211682
  14 H     1.0000    0     1.008    0.113203   -5.106148    0.250178
  15 C     6.0000    0    12.011   -0.003894    6.702913    2.711297
  16 H     1.0000    0     1.008   -1.704986    7.315473    3.752080
  17 H     1.0000    0     1.008    1.624990    7.328854    3.854622
  18 H     1.0000    0     1.008    0.049793    7.654647    0.862243
  19 O     8.0000    0    15.999   -0.112745    3.476377    6.851250
  20 O     8.0000    0    15.999    0.175746   -1.052605   -2.177018

--------------------------------
INTERNAL COORDINATES (ANGSTROEM)
--------------------------------
 C      0   0   0     0.000000000000     0.00000000     0.00000000
 C      1   0   0     1.475877395511     0.00000000     0.00000000
 C      2   1   0     1.349033858233   123.70509924     0.00000000
 C      3   2   1     1.494850559256   120.03566143     0.04634496
 C      4   3   2     1.487197363469   117.97003668   359.88824192
 C      5   4   3     1.403187259237   120.85542915     0.10776432
 C      6   5   4     1.395021868356   120.01702555   179.98112412
 C      7   6   5     1.392200605077   119.89968521     0.00000000
 C      8   7   6     1.397720582159   120.13840410     0.00000000
 C      9   8   7     1.391957059903   120.15700997     0.00000000
 H      2   1   3     1.094701396446   114.84347640   180.01080093
 H     10   9   8     1.092939096437   121.68428336   180.00801962
 H      9   8   7     1.093949756118   119.94398028   179.99109319
 H      8   7   6     1.093977921473   119.92625035   179.99241730
 H      7   6   5     1.092955377406   118.27710140   180.00592819
 C      3   2   1     1.490600237157   123.86921143   180.02837043
 H     16   3   2     1.103961937769   110.40810756   121.55835929
 H     16   3   2     1.103972854360   110.40189676   238.40501304
 H     16   3   2     1.100851209314   111.37792619   359.96247276
 O      4   3   2     1.214939901145   120.27474225   179.90657698
 O      1   2   3     1.215812360311   120.94451030   179.99719531

---------------------------
INTERNAL COORDINATES (A.U.)
---------------------------
 C      0   0   0     0.000000000000     0.00000000     0.00000000
 C      1   0   0     2.789004084761     0.00000000     0.00000000
 C      2   1   0     2.549304537448   123.70509924     0.00000000
 C      3   2   1     2.824858168133   120.03566143     0.04634496
 C      4   3   2     2.810395724046   117.97003668   359.88824192
 C      5   4   3     2.651639634566   120.85542915     0.10776432
 C      6   5   4     2.636209282024   120.01702555   179.98112412
 C      7   6   5     2.630877867075   119.89968521     0.00000000
 C      8   7   6     2.641309112025   120.13840410     0.00000000
 C      9   8   7     2.630417633394   120.15700997     0.00000000
 H      2   1   3     2.068685837704   114.84347640   180.01080093
 H     10   9   8     2.065355573322   121.68428336   180.00801962
 H      9   8   7     2.067265443334   119.94398028   179.99109319
 H      8   7   6     2.067318668140   119.92625035   179.99241730
 H      7   6   5     2.065386339894   118.27710140   180.00592819
 C      3   2   1     2.816826223384   123.86921143   180.02837043
 H     16   3   2     2.086185724656   110.40810756   121.55835929
 H     16   3   2     2.086206354024   110.40189676   238.40501304
 H     16   3   2     2.080307299800   111.37792619   359.96247276
 O      4   3   2     2.295903682337   120.27474225   179.90657698
 O      1   2   3     2.297552391225   120.94451030   179.99719531

---------------------
BASIS SET INFORMATION
---------------------
There are 3 groups of distinct atoms

 Group   1 Type C   : 19s6p3d2f contracted to 5s4p3d2f pattern {88111/3111/111/11}
 Group   2 Type H   : 6s3p2d contracted to 4s3p2d pattern {3111/111/11}
 Group   3 Type O   : 19s6p3d2f contracted to 5s4p3d2f pattern {88111/3111/111/11}

Atom   0C    basis set group =>   1
Atom   1C    basis set group =>   1
Atom   2C    basis set group =>   1
Atom   3C    basis set group =>   1
Atom   4C    basis set group =>   1
Atom   5C    basis set group =>   1
Atom   6C    basis set group =>   1
Atom   7C    basis set group =>   1
Atom   8C    basis set group =>   1
Atom   9C    basis set group =>   1
Atom  10H    basis set group =>   2
Atom  11H    basis set group =>   2
Atom  12H    basis set group =>   2
Atom  13H    basis set group =>   2
Atom  14H    basis set group =>   2
Atom  15C    basis set group =>   1
Atom  16H    basis set group =>   2
Atom  17H    basis set group =>   2
Atom  18H    basis set group =>   2
Atom  19O    basis set group =>   3
Atom  20O    basis set group =>   3
---------------------------------
AUXILIARY/J BASIS SET INFORMATION
---------------------------------
There are 3 groups of distinct atoms

 Group   1 Type C   : 12s5p4d2f1g contracted to 6s4p3d1f1g pattern {711111/2111/211/2/1}
 Group   2 Type H   : 5s2p1d contracted to 3s1p1d pattern {311/2/1}
 Group   3 Type O   : 12s5p4d2f1g contracted to 6s4p3d1f1g pattern {711111/2111/211/2/1}

Atom   0C    basis set group =>   1
Atom   1C    basis set group =>   1
Atom   2C    basis set group =>   1
Atom   3C    basis set group =>   1
Atom   4C    basis set group =>   1
Atom   5C    basis set group =>   1
Atom   6C    basis set group =>   1
Atom   7C    basis set group =>   1
Atom   8C    basis set group =>   1
Atom   9C    basis set group =>   1
Atom  10H    basis set group =>   2
Atom  11H    basis set group =>   2
Atom  12H    basis set group =>   2
Atom  13H    basis set group =>   2
Atom  14H    basis set group =>   2
Atom  15C    basis set group =>   1
Atom  16H    basis set group =>   2
Atom  17H    basis set group =>   2
Atom  18H    basis set group =>   2
Atom  19O    basis set group =>   3
Atom  20O    basis set group =>   3


           ************************************************************
           *        Program running with 15 parallel MPI-processes    *
           *              working on a common directory               *
           ************************************************************
------------------------------------------------------------------------------
                             ORCA STARTUP CALCULATIONS
                           -- RI-GTO INTEGRALS CHOSEN --
------------------------------------------------------------------------------
------------------------------------------------------------------------------
                   ___                                                        
                  /   \      - P O W E R E D   B Y -                         
                 /     \                                                     
                 |  |  |   _    _      __       _____    __    __             
                 |  |  |  | |  | |    /  \     |  _  \  |  |  /  |          
                  \  \/   | |  | |   /    \    | | | |  |  | /  /          
                 / \  \   | |__| |  /  /\  \   | |_| |  |  |/  /          
                |  |  |   |  __  | /  /__\  \  |    /   |      \           
                |  |  |   | |  | | |   __   |  |    \   |  |\   \          
                \     /   | |  | | |  |  |  |  | |\  \  |  | \   \       
                 \___/    |_|  |_| |__|  |__|  |_| \__\ |__|  \__/        
                                                                              
                      - O R C A' S   B I G   F R I E N D -                    
                                      &                                       
                       - I N T E G R A L  F E E D E R -                       
                                                                              
 v1 FN, 2020, v2 2021, v3 2022-2024                                           
------------------------------------------------------------------------------


----------------------
SHARK INTEGRAL PACKAGE
----------------------

Number of atoms                             ...     21
Number of basis functions                   ...    860
Number of shells                            ...    332
Maximum angular momentum                    ...      3
Integral batch strategy                     ... SHARK/LIBINT Hybrid
RI-J (if used) integral strategy            ... SPLIT-RIJ (Revised 2003 algorithm where possible)
Printlevel                                  ...      1
Contraction scheme used                     ... PARTIAL GENERAL contraction
Prescreening option                         ... SCHWARTZ
   Thresh                                   ... 2.500e-11
   Tcut                                     ... 2.500e-12
   Tpresel                                  ... 2.500e-12 
Coulomb Range Separation                    ... NOT USED
Exchange Range Separation                   ... NOT USED
Multipole approximations                    ... NOT USED
Finite Nucleus Model                        ... NOT USED
CABS basis                                  ... NOT available
Auxiliary Coulomb fitting basis             ... AVAILABLE
   # of basis functions in Aux-J            ...    725
   # of shells in Aux-J                     ...    235
   Maximum angular momentum in Aux-J        ...      4
Auxiliary J/K fitting basis                 ... NOT available
Auxiliary Correlation fitting basis         ... NOT available
Auxiliary 'external' fitting basis          ... NOT available

Checking pre-screening integrals            ... done (  0.1 sec) Dimension = 332
Save PGC pre-screening integrals            ... done (  0.1 sec) Dimension = 332
Calculate PGC overlap integrals             ... done (  0.2 sec) Dimension = 254
Calculating pre-screening integrals (ORCA)  ... done (  0.3 sec) Dimension = 254
Check shell pair data                       ... done (  0.1 sec)
Shell pair information
Shell pair cut-off parameter TPreSel        ...   2.5e-12
Total number of shell pairs                 ...     55278
Shell pairs after pre-screening             ...     43779
Total number of primitive shell pairs       ...     70188
Primitive shell pairs kept                  ...     51540
          la=0 lb=0:   9752 shell pairs
          la=1 lb=0:  11019 shell pairs
          la=1 lb=1:   2693 shell pairs
          la=2 lb=0:   7796 shell pairs
          la=2 lb=1:   3801 shell pairs
          la=2 lb=2:   1385 shell pairs
          la=3 lb=0:   3817 shell pairs
          la=3 lb=1:   1846 shell pairs
          la=3 lb=2:   1331 shell pairs
          la=3 lb=3:    339 shell pairs

Calculating one electron integrals          ... done (  0.1 sec)
Calculating RI/J V-Matrix + Cholesky decomp.... done (  0.1 sec)
Calculating Nuclear repulsion               ... done (  0.0 sec) ENN=    722.429549209838 Eh

Diagonalization of the overlap matrix:
Smallest eigenvalue                        ... 3.492e-07
Time for diagonalization                   ...    0.201 sec
Threshold for overlap eigenvalues          ... 1.000e-07
Number of eigenvalues below threshold      ... 0

IMPORTANT:
Smallest eigenvalue of S below the DiffSThresh (1.000e-06) while
Thresh>1e-12 and/or TCut>1e-13! In order to avoid SCF convergence issues,
Thresh will be set to at least 1e-12 and TCut to at least 1e-13.
This can be turned off by adding %SCF DiffSThresh -1 END to the input.

Time for construction of square roots      ...    0.138 sec
Total time needed                          ...    0.433 sec

-------------------
DFT GRID GENERATION
-------------------

General Integration Accuracy     IntAcc      ... 4.388
Radial Grid Type                 RadialGrid  ... OptM3 with GC (2021)
Angular Grid (max. ang.)         AngularGrid ... 4 (Lebedev-302)
Angular grid pruning method      GridPruning ... 4 (adaptive)
Weight generation scheme         WeightScheme... mBecke (2022)
Basis function cutoff            BFCut       ... 1.0000e-11
Integration weight cutoff        WCut        ... 1.0000e-14
Partially contracted basis set               ... off
Rotationally invariant grid construction     ... off
Angular grids for H and He will be reduced by one unit
Diffuse basis detected: some atoms will have their outermost
                        angular grid increased by 1.

Total number of grid points                  ...   108477
Total number of batches                      ...     1705
Average number of points per batch           ...       63
Average number of grid points per atom       ...     5166

---------------------
SHARK GRID GENERATION
---------------------

General Integration Accuracy     IntAcc      ... 4.388
Radial Grid Type                 RadialGrid  ... OptM3 with GC (2021)
Angular Grid (max. ang.)         AngularGrid ... 4 (Lebedev-302)
Angular grid pruning method      GridPruning ... 4 (adaptive)
Weight generation scheme         WeightScheme... mBecke (2022)
Basis function cutoff            BFCut       ... 1.0000e-11
Integration weight cutoff        WCut        ... 1.0000e-14
Partially contracted basis set               ... off
Rotationally invariant grid construction     ... off
Angular grids for H and He will be reduced by one unit
Diffuse basis detected: some atoms will have their outermost
                        angular grid increased by 1.
Steep s-basis detected: some atoms will have their radial
                        grid points doubled.

Total number of grid points                  ...   190256
Total number of batches                      ...     2983
Average number of points per batch           ...       63
Average number of grid points per atom       ...     9060

--------------------
COSX GRID GENERATION
--------------------

GRIDX 1
-------
General Integration Accuracy     IntAcc      ... 3.816
Radial Grid Type                 RadialGrid  ... OptM3 with GC (2021)
Angular Grid (max. ang.)         AngularGrid ... 1 (Lebedev-50)
Angular grid pruning method      GridPruning ... 4 (adaptive)
Weight generation scheme         WeightScheme... mBecke (2022)
Basis function cutoff            BFCut       ... 1.0000e-11
Integration weight cutoff        WCut        ... 1.0000e-14
Partially contracted basis set               ... on
Rotationally invariant grid construction     ... off
Angular grids for H and He will be reduced by one unit
Diffuse basis detected: some atoms will have their outermost
                        angular grid increased by 1.

Total number of grid points                  ...    13638
Total number of batches                      ...      117
Average number of points per batch           ...      116
Average number of grid points per atom       ...      649
UseSFitting                                  ... on

GRIDX 2
-------
General Integration Accuracy     IntAcc      ... 4.020
Radial Grid Type                 RadialGrid  ... OptM3 with GC (2021)
Angular Grid (max. ang.)         AngularGrid ... 2 (Lebedev-110)
Angular grid pruning method      GridPruning ... 4 (adaptive)
Weight generation scheme         WeightScheme... mBecke (2022)
Basis function cutoff            BFCut       ... 1.0000e-11
Integration weight cutoff        WCut        ... 1.0000e-14
Partially contracted basis set               ... on
Rotationally invariant grid construction     ... off
Angular grids for H and He will be reduced by one unit
Diffuse basis detected: some atoms will have their outermost
                        angular grid increased by 1.

Total number of grid points                  ...    33571
Total number of batches                      ...      274
Average number of points per batch           ...      122
Average number of grid points per atom       ...     1599
UseSFitting                                  ... on

GRIDX 3
-------
General Integration Accuracy     IntAcc      ... 4.338
Radial Grid Type                 RadialGrid  ... OptM3 with GC (2021)
Angular Grid (max. ang.)         AngularGrid ... 3 (Lebedev-194)
Angular grid pruning method      GridPruning ... 4 (adaptive)
Weight generation scheme         WeightScheme... mBecke (2022)
Basis function cutoff            BFCut       ... 1.0000e-11
Integration weight cutoff        WCut        ... 1.0000e-14
Partially contracted basis set               ... on
Rotationally invariant grid construction     ... off
Angular grids for H and He will be reduced by one unit
Diffuse basis detected: some atoms will have their outermost
                        angular grid increased by 1.

Total number of grid points                  ...    74245
Total number of batches                      ...      589
Average number of points per batch           ...      126
Average number of grid points per atom       ...     3535
UseSFitting                                  ... on
Initializing property integral containers    ... done (  0.1 sec)

SHARK setup successfully completed in   9.0 seconds

Maximum memory used throughout the entire STARTUP-calculation: 87.9 MB


           ************************************************************
           *        Program running with 15 parallel MPI-processes    *
           *              working on a common directory               *
           ************************************************************
-------------------------------------------------------------------------------
                                 ORCA GUESS
                   Start orbitals & Density for SCF / CASSCF
-------------------------------------------------------------------------------

------------
SCF SETTINGS
------------
Hamiltonian:
 Density Functional     Method          .... DFT(GTOs)
  Functional kind                       .... Exchange
  Functional name                       .... Re-regularized SCAN exchange by Furness et al
  Functional family                     .... MGGA
  Functional refs                              
    [ 0] J. W. Furness, A. D. Kaplan, J. Ning, J. P. Perdew, and J. Sun.,  J. Phys. Chem. Lett. 11, 8208-8215 (2020), doi: 10.1021/acs.jpclett.0c02405
    [ 1] J. W. Furness, A. D. Kaplan, J. Ning, J. P. Perdew, and J. Sun.,  J. Phys. Chem. Lett. 11, 9248-9248 (2020), doi: 10.1021/acs.jpclett.0c03077
  Functional external parameters        .... 6
    Parameter  0 _c1        =  6.670000e-01 : c1 parameter        
    Parameter  1 _c2        =  8.000000e-01 : c2 parameter        
    Parameter  2 _d         =  1.240000e+00 : d parameter         
    Parameter  3 _k1        =  6.500000e-02 : k1 parameter        
    Parameter  4 _eta       =  1.000000e-03 : eta parameter       
    Parameter  5 _dp2       =  3.610000e-01 : dp2 parameter       
  Functional kind                       .... Correlation
  Functional name                       .... Re-regularized SCAN correlation by Furness et al
  Functional family                     .... MGGA
  Functional refs                              
    [ 0] J. W. Furness, A. D. Kaplan, J. Ning, J. P. Perdew, and J. Sun.,  J. Phys. Chem. Lett. 11, 8208-8215 (2020), doi: 10.1021/acs.jpclett.0c02405
    [ 1] J. W. Furness, A. D. Kaplan, J. Ning, J. P. Perdew, and J. Sun.,  J. Phys. Chem. Lett. 11, 9248-9248 (2020), doi: 10.1021/acs.jpclett.0c03077
  Functional external parameters        .... 1
    Parameter  0 _eta       =  1.000000e-03 : Regularization parameter
 Gradients option       PostSCFGGA      .... off
 Hybrid DFT is turned on
   Fraction HF Exchange ScalHFX         ....  0.100000
   Scaling of DF-GGA-X  ScalDFX         ....  0.900000
   Scaling of DF-GGA-C  ScalDFC         ....  1.000000
   Scaling of DF-LDA-C  ScalLDAC        ....  1.000000
   Perturbative correction              ....  0.000000
   NL short-range parameter             .... 11.900000
 RI-approximation to the Coulomb term is turned on
   Number of AuxJ basis functions       .... 725
   RIJ-COSX (HFX calculated with COS-X)).... on


General Settings:
 Integral files         IntName         .... cs_rporg_w10_ox_solv_04
 Hartree-Fock type      HFTyp           .... RHF
 Total Charge           Charge          ....    0
 Multiplicity           Mult            ....    1
 Number of Electrons    NEL             ....   90
 Basis Dimension        Dim             ....  782
 Nuclear Repulsion      ENuc            ....    722.4295492098 Eh

Convergence Acceleration:
 AO-DIIS                CNVDIIS         .... on
   Start iteration      DIISMaxIt       ....     0
   Startup error        DIISStart       ....  0.200000
   # of expansion vecs  DIISMaxEq       ....     5
   Bias factor          DIISBfac        ....   1.050
   Max. coefficient     DIISMaxC        ....  10.000
 MO-DIIS                CNVKDIIS        .... off
 Trust-Rad. Augm. Hess. CNVTRAH         .... auto
   Auto Start mean grad. ratio tolernc. ....  1.125000
   Auto Start start iteration           ....    50
   Auto Start num. interpolation iter.  ....    10
   Max. Number of Micro iterations      ....    24
   Max. Number of Macro iterations      .... Maxiter - #DIIS iter
   Number of Davidson start vectors     ....     2
   Converg. threshold    (grad. norm)   ....   1.000e-05
   Grad. Scal. Fac. for Micro threshold ....   0.100
   Minimum threshold for Micro iter.    ....   1.000e-02
   NR start threshold (gradient norm)   ....   1.000e-04
   Initial trust radius                 ....   0.400
   Minimum AH scaling param. (alpha)    ....   1.000
   Maximum AH scaling param. (alpha)    .... 1000.000
   Quad. conv. algorithm                .... NR
   White noise on init. David. guess    .... on
   Maximum white noise                  ....   0.010
   Pseudo random numbers                .... off
   Inactive MOs                         .... canonical
   Orbital update algorithm             .... Taylor
   Preconditioner                       .... Diag
   Full preconditioner red. dimension   ....   250
 SOSCF                  CNVSOSCF        .... on
   Start iteration      SOSCFMaxIt      ....   150
   Startup grad/error   SOSCFStart      ....  0.001000
   Hessian update       SOSCFHessUp     .... L-BFGS
 Level Shifting         CNVShift        .... on
   Level shift para.    LevelShift      ....    0.2500
   Turn off err/grad.   ShiftErr        ....    0.0000
 Zerner damping         CNVZerner       .... off
 Static damping         CNVDamp         .... on
   Fraction old density DampFac         ....    0.8500
   Max. Damping (<1)    DampMax         ....    0.9800
   Min. Damping (>=0)   DampMin         ....    0.0000
   Turn off err/grad.   DampErr         ....    0.0300

SCF Procedure:
 Maximum # iterations   MaxIter         ....  1500
 SCF integral mode      SCFMode         .... Direct
   Integral package                     .... SHARK and LIBINT hybrid scheme
 Reset frequency        DirectResetFreq ....    20
 Integral Threshold     Thresh          ....  1.000e-12 Eh
 Primitive CutOff       TCut            ....  1.000e-13 Eh

Convergence Tolerance:
 Convergence Check Mode ConvCheckMode   .... Total+1el-Energy
 Convergence forced     ConvForced      .... 0
 Energy Change          TolE            ....  1.000e-08 Eh
 1-El. energy change                    ....  1.000e-05 Eh
 Orbital Gradient       TolG            ....  1.000e-05
 Orbital Rotation angle TolX            ....  1.000e-05
 DIIS Error             TolErr          ....  5.000e-07

------------------------------
INITIAL GUESS: MODEL POTENTIAL
------------------------------
Loading Hartree-Fock densities                     ... done
Calculating cut-offs                               ... done
Initializing the effective Hamiltonian             ... done
Setting up the integral package (SHARK)            ... done
Starting the Coulomb interaction                   ... done (   0.5 sec)
Making the grid                                    ... done (   0.4 sec)
Mapping shells                                     ... done
Starting the XC term evaluation                    ... done (   0.4 sec)
  promolecular density results
     # of electrons  =     89.994068409
     EX              =    -74.884728893
     EC              =     -3.009888072
     EX+EC           =    -77.894616966
Transforming the Hamiltonian                       ... done (   0.2 sec)
Diagonalizing the Hamiltonian                      ... done (   0.2 sec)
Back transforming the eigenvectors                 ... done (   0.2 sec)
Now organizing SCF variables                       ... done
                      ------------------
                      INITIAL GUESS DONE (   2.4 sec)
                      ------------------
             **** ENERGY FILE WAS UPDATED (cs_rporg_w10_ox_solv_04.en.tmp) ****
Finished Guess after   4.9 sec
Maximum memory used throughout the entire GUESS-calculation: 65.9 MB


           ************************************************************
           *        Program running with 15 parallel MPI-processes    *
           *              working on a common directory               *
           ************************************************************

-------------------------------------------------------------------------------------------
                                      ORCA LEAN-SCF
                              memory conserving SCF solver
-------------------------------------------------------------------------------------------

--------------------
CPCM SOLVATION MODEL
--------------------
CPCM parameters:
  Epsilon                                         ...      78.3550
  Refrac                                          ...       1.3328
  Rsolv                                           ...       1.4000
  Surface type                                    ...    GEPOL SES
  Discretization scheme                           ... Constant num. charges
  Epsilon function type                           ...         CPCM
Solvent:                                          ... WATER
SMD-CDS solvent descriptors:
  Soln                                            ...       1.3328
  Soln25                                          ...       1.3323
  Sola                                            ...       0.0000
  Solb                                            ...       0.0000
  Solg                                            ...       0.0000
  Solc                                            ...       0.0000
  Solh                                            ...       0.0000
Radii:
  Scheme                                          ... Element-dependent radii
  Radius for C  used is    3.4960 Bohr (=   1.8500 Ang.)
  Radius for H  used is    2.2677 Bohr (=   1.2000 Ang.)
  Radius for O  used is    2.8724 Bohr (=   1.5200 Ang.)
Calculating surface                               ...        done! (  0.0s)
Cavity surface points                             ...          724
Cavity Volume                                     ...    1169.6973
Cavity Surface-area                               ...     665.6381
Calculating surface distance matrix               ...        done! (  0.0s)
Performing Cholesky decomposition & store         ...        done! (  0.0s)
Overall time for CPCM initialization              ...                 0.1s

----------------------------------------D-I-I-S--------------------------------------------
Iteration    Energy (Eh)           Delta-E    RMSDP     MaxDP     DIISErr   Damp  Time(sec)
-------------------------------------------------------------------------------------------
               ***  Starting incremental Fock matrix formation  ***
    1    -574.0335938187200782     0.00e+00  1.76e-03  8.78e-02  2.63e-01  0.850  16.2
Warning: op=0 Small HOMO/LUMO gap (   0.095) - skipping pre-diagonalization
         Will do a full diagonalization
    2    -574.1088438292057390    -7.53e-02  1.65e-03  9.26e-02  1.86e-01  0.850  13.0
                               ***Turning on AO-DIIS***
    3    -574.1561474869571384    -4.73e-02  1.04e-03  5.81e-02  1.19e-01  0.850  11.1
    4    -574.1863741530370362    -3.02e-02  8.14e-04  3.97e-02  9.70e-02  0.850  12.0
    5    -574.2084245323288769    -2.21e-02  6.76e-04  3.12e-02  8.44e-02  0.850  12.1
    6    -574.2261668523605067    -1.77e-02  5.74e-04  2.69e-02  7.29e-02  0.850  11.0
    7    -574.2409812723182085    -1.48e-02  4.89e-04  2.31e-02  6.09e-02  0.850  10.9
    8    -574.2532978095306362    -1.23e-02  4.05e-04  1.92e-02  4.93e-02  0.850  11.0
    9    -574.2633395021883871    -1.00e-02  3.39e-04  1.61e-02  4.11e-02  0.850  11.5
   10    -574.2716005012163123    -8.26e-03  2.89e-04  1.35e-02  3.52e-02  0.850  11.8
   11    -574.2784877024122352    -6.89e-03  2.47e-04  1.16e-02  3.00e-02  0.850  10.8
   12    -574.2842662504068585    -5.78e-03  2.10e-04  9.88e-03  2.52e-02  0.850  11.3
   13    -574.2891121534267995    -4.85e-03  1.18e-03  5.53e-02  2.08e-02  0.000  11.0
   14    -574.3153410029264023    -2.62e-02  6.02e-05  3.33e-03  2.20e-03  0.000  11.3
                              *** Initializing SOSCF ***
---------------------------------------S-O-S-C-F--------------------------------------
Iteration    Energy (Eh)           Delta-E    RMSDP     MaxDP     MaxGrad    Time(sec)
--------------------------------------------------------------------------------------
   15    -574.3153529626898717    -1.20e-05  2.47e-05  1.54e-03  9.86e-04    12.4
               *** Restarting incremental Fock matrix formation ***
   16    -574.3153550298412711    -2.07e-06  4.11e-04  1.93e-02  4.65e-05    16.5
   17    -574.3153549253969459     1.04e-07  7.33e-05  3.92e-03  1.18e-04    14.4
   18    -574.3153551948961422    -2.69e-07  8.75e-05  4.18e-03  1.33e-05    13.3
   19    -574.3153551867359283     8.16e-09  7.34e-06  3.25e-04  1.42e-05    12.9
                 **** Energy Check signals convergence ****

               *****************************************************
               *                     SUCCESS                       *
               *           SCF CONVERGED AFTER  19 CYCLES          *
               *****************************************************

Recomputing exchange energy using gridx3       ... done (   17.133 sec)
Old exchange energy                            :     -7.631537035 Eh
New exchange energy                            :     -7.631559871 Eh
Exchange energy change after final integration :     -0.000022836 Eh
Total energy after final integration           :   -574.315378023 Eh

SMD CDS free energy correction energy :                 5.35014     Kcal/mol
Total Energy after SMD CDS correction =              -574.306852027 Eh
             **** ENERGY FILE WAS UPDATED (cs_rporg_w10_ox_solv_04.en.tmp) ****

----------------
TOTAL SCF ENERGY
----------------

Total Energy       :       -574.30685202657094 Eh          -15627.68394 eV

Components:
Nuclear Repulsion  :        722.42954920983777 Eh           19658.30744 eV
Electronic Energy  :      -1296.72333407212295 Eh          -35285.63581 eV
One Electron Energy:      -2211.84289761405807 Eh          -60187.30511 eV
Two Electron Energy:        915.11956354193512 Eh           24901.66930 eV
CPCM Dielectric    :         -0.02157032445071 Eh              -0.58696 eV
SMD CDS (Gcds)     :          0.00852599648171 Eh               0.23200 eV

Virial components:
Potential Energy   :      -1145.40462105671827 Eh          -31168.04429 eV
Kinetic Energy     :        571.09776903014733 Eh           15540.36035 eV
Virial Ratio       :          2.00561914819221

DFT components:
N(Alpha)           :       45.000018185776 electrons
N(Beta)            :       45.000018185776 electrons
N(Total)           :       90.000036371551 electrons
E(X)               :      -68.970980954475 Eh       
E(C)               :       -2.942455107561 Eh       
E(XC)              :      -71.913436062036 Eh       

CPCM Solvation Model Properties:
Surface-charge          :         -0.05087167029360
Corrected charge        :         -0.00000000000000
Outlying charge corr.   :          0.00018015385999 Eh               0.00490 eV
Free-energy (cav+disp)  :          0.00852599648171 Eh               0.23200 eV

---------------
SCF CONVERGENCE
---------------

  Last Energy change         ...   -8.1602e-09  Tolerance :   1.0000e-08
  Last MAX-Density change    ...    3.2486e-04  Tolerance :   1.0000e-07
  Last RMS-Density change    ...    7.3361e-06  Tolerance :   5.0000e-09
  Last DIIS Error            ...    9.8618e-04  Tolerance :   5.0000e-07
  Last Orbital Gradient      ...    1.4236e-05  Tolerance :   1.0000e-05
  Last Orbital Rotation      ...    4.5678e-05  Tolerance :   1.0000e-05


----------------
ORBITAL ENERGIES
----------------

  NO   OCC          E(Eh)            E(eV) 
   0   2.0000     -19.128410      -520.5105 
   1   2.0000     -19.125432      -520.4295 
   2   2.0000     -10.264898      -279.3221 
   3   2.0000     -10.263037      -279.2714 
   4   2.0000     -10.201764      -277.6041 
   5   2.0000     -10.187920      -277.2274 
   6   2.0000     -10.187040      -277.2034 
   7   2.0000     -10.182251      -277.0731 
   8   2.0000     -10.178866      -276.9810 
   9   2.0000     -10.178664      -276.9755 
  10   2.0000     -10.178191      -276.9627 
  11   2.0000     -10.177810      -276.9523 
  12   2.0000     -10.156237      -276.3653 
  13   2.0000      -1.071736       -29.1634 
  14   2.0000      -1.068099       -29.0645 
  15   2.0000      -0.884328       -24.0638 
  16   2.0000      -0.839017       -22.8308 
  17   2.0000      -0.776884       -21.1401 
  18   2.0000      -0.770354       -20.9624 
  19   2.0000      -0.719133       -19.5686 
  20   2.0000      -0.674289       -18.3483 
  21   2.0000      -0.634650       -17.2697 
  22   2.0000      -0.609430       -16.5834 
  23   2.0000      -0.574283       -15.6270 
  24   2.0000      -0.530189       -14.4272 
  25   2.0000      -0.513391       -13.9701 
  26   2.0000      -0.487310       -13.2604 
  27   2.0000      -0.459314       -12.4986 
  28   2.0000      -0.452205       -12.3051 
  29   2.0000      -0.448994       -12.2177 
  30   2.0000      -0.438945       -11.9443 
  31   2.0000      -0.431137       -11.7318 
  32   2.0000      -0.416026       -11.3206 
  33   2.0000      -0.409554       -11.1445 
  34   2.0000      -0.396913       -10.8005 
  35   2.0000      -0.395572       -10.7641 
  36   2.0000      -0.376348       -10.2409 
  37   2.0000      -0.367148        -9.9906 
  38   2.0000      -0.358758        -9.7623 
  39   2.0000      -0.346796        -9.4368 
  40   2.0000      -0.288903        -7.8615 
  41   2.0000      -0.274918        -7.4809 
  42   2.0000      -0.269066        -7.3217 
  43   2.0000      -0.266508        -7.2520 
  44   2.0000      -0.259988        -7.0746 
  45   0.0000      -0.134420        -3.6578 
  46   0.0000      -0.062121        -1.6904 
  47   0.0000      -0.036329        -0.9886 
  48   0.0000       0.008713         0.2371 
  49   0.0000       0.020528         0.5586 
  50   0.0000       0.021467         0.5842 
  51   0.0000       0.024506         0.6668 
  52   0.0000       0.037791         1.0284 
  53   0.0000       0.038398         1.0449 
  54   0.0000       0.038818         1.0563 
  55   0.0000       0.048883         1.3302 
*Only the first 10 virtual orbitals were printed.

                    ********************************
                    * MULLIKEN POPULATION ANALYSIS *
                    ********************************

-----------------------
MULLIKEN ATOMIC CHARGES
-----------------------
   0 C :    1.370502
   1 C :   -0.669702
   2 C :    0.371194
   3 C :    0.949075
   4 C :    1.522530
   5 C :    1.171000
   6 C :   -1.214128
   7 C :   -0.402088
   8 C :   -0.398199
   9 C :   -1.446237
  10 H :    0.143186
  11 H :    0.011246
  12 H :    0.630695
  13 H :    0.586844
  14 H :   -0.022315
  15 C :   -0.786070
  16 H :    0.229935
  17 H :    0.228155
  18 H :    0.171850
  19 O :   -1.223555
  20 O :   -1.223919
Sum of atomic charges:    0.0000000

--------------------------------
MULLIKEN REDUCED ORBITAL CHARGES
--------------------------------
  0 C s       :     3.382790  s :     3.382790
      pz      :     0.548154  p :     1.230001
      px      :     0.645877
      py      :     0.035969
      dz2     :    -0.067042  d :     0.049165
      dxz     :     0.019833
      dyz     :     0.045989
      dx2y2   :     0.027621
      dxy     :     0.022763
      f0      :    -0.023063  f :    -0.032457
      f+1     :     0.002519
      f-1     :    -0.001117
      f+2     :    -0.014680
      f-2     :     0.002199
      f+3     :     0.002185
      f-3     :    -0.000500

  1 C s       :     3.691088  s :     3.691088
      pz      :     0.993161  p :     2.852599
      px      :     0.974844
      py      :     0.884594
      dz2     :    -0.028044  d :     0.154857
      dxz     :     0.046152
      dyz     :     0.132566
      dx2y2   :    -0.013982
      dxy     :     0.018165
      f0      :    -0.018446  f :    -0.028842
      f+1     :     0.000176
      f-1     :     0.006026
      f+2     :    -0.012729
      f-2     :    -0.002022
      f+3     :    -0.001085
      f-3     :    -0.000762

  2 C s       :     3.288768  s :     3.288768
      pz      :     0.754788  p :     2.227235
      px      :     0.849290
      py      :     0.623158
      dz2     :     0.103103  d :     0.193845
      dxz     :     0.022435
      dyz     :     0.116282
      dx2y2   :    -0.027430
      dxy     :    -0.020546
      f0      :    -0.043914  f :    -0.081043
      f+1     :    -0.003469
      f-1     :    -0.010787
      f+2     :    -0.017167
      f-2     :    -0.000825
      f+3     :    -0.003777
      f-3     :    -0.001103

  3 C s       :     3.482849  s :     3.482849
      pz      :     0.420775  p :     1.547714
      px      :     0.671948
      py      :     0.454991
      dz2     :    -0.017782  d :     0.066540
      dxz     :     0.019907
      dyz     :     0.031583
      dx2y2   :     0.029058
      dxy     :     0.003775
      f0      :    -0.027906  f :    -0.046179
      f+1     :     0.002066
      f-1     :    -0.004817
      f+2     :    -0.017568
      f-2     :    -0.000473
      f+3     :     0.002886
      f-3     :    -0.000367

  4 C s       :     2.844350  s :     2.844350
      pz      :     0.538615  p :     1.798834
      px      :     0.997264
      py      :     0.262956
      dz2     :    -0.136541  d :    -0.041709
      dxz     :    -0.031969
      dyz     :     0.125418
      dx2y2   :     0.011182
      dxy     :    -0.009799
      f0      :    -0.058744  f :    -0.124005
      f+1     :    -0.000270
      f-1     :    -0.004698
      f+2     :    -0.049060
      f-2     :    -0.006871
      f+3     :    -0.001277
      f-3     :    -0.003086

  5 C s       :     3.221712  s :     3.221712
      pz      :     0.519297  p :     1.814292
      px      :     0.986948
      py      :     0.308047
      dz2     :     0.054082  d :    -0.077982
      dxz     :     0.002864
      dyz     :    -0.091561
      dx2y2   :    -0.014846
      dxy     :    -0.028521
      f0      :    -0.076226  f :    -0.129022
      f+1     :    -0.005467
      f-1     :    -0.012625
      f+2     :    -0.029850
      f-2     :    -0.001508
      f+3     :    -0.000280
      f-3     :    -0.003067

  6 C s       :     4.251169  s :     4.251169
      pz      :     0.771303  p :     2.776983
      px      :     0.934068
      py      :     1.071612
      dz2     :     0.018551  d :     0.206510
      dxz     :     0.010667
      dyz     :     0.156409
      dx2y2   :     0.011035
      dxy     :     0.009847
      f0      :    -0.010213  f :    -0.020534
      f+1     :     0.000677
      f-1     :    -0.000758
      f+2     :    -0.010465
      f-2     :    -0.000290
      f+3     :     0.001134
      f-3     :    -0.000619

  7 C s       :     3.644117  s :     3.644117
      pz      :     0.889042  p :     2.744210
      px      :     0.923053
      py      :     0.932115
      dz2     :     0.006949  d :     0.013460
      dxz     :     0.029616
      dyz     :    -0.017648
      dx2y2   :    -0.015834
      dxy     :     0.010377
      f0      :    -0.002544  f :     0.000302
      f+1     :     0.000645
      f-1     :    -0.000205
      f+2     :    -0.001807
      f-2     :     0.000713
      f+3     :     0.000520
      f-3     :     0.002980

  8 C s       :     3.633012  s :     3.633012
      pz      :     0.861263  p :     2.754347
      px      :     0.922780
      py      :     0.970304
      dz2     :    -0.050092  d :     0.010368
      dxz     :     0.017221
      dyz     :     0.027347
      dx2y2   :    -0.008325
      dxy     :     0.024216
      f0      :    -0.004926  f :     0.000472
      f+1     :     0.000794
      f-1     :     0.005813
      f+2     :    -0.002078
      f-2     :     0.000648
      f+3     :     0.000430
      f-3     :    -0.000210

  9 C s       :     4.411938  s :     4.411938
      pz      :     1.090465  p :     2.800466
      px      :     0.936327
      py      :     0.773674
      dz2     :     0.040066  d :     0.252329
      dxz     :     0.011763
      dyz     :     0.141350
      dx2y2   :     0.045113
      dxy     :     0.014036
      f0      :    -0.014288  f :    -0.018497
      f+1     :     0.000392
      f-1     :     0.003933
      f+2     :    -0.007546
      f-2     :     0.000650
      f+3     :     0.000349
      f-3     :    -0.001986

 10 H s       :     0.818402  s :     0.818402
      pz      :    -0.004444  p :     0.031665
      px      :     0.028889
      py      :     0.007219
      dz2     :     0.000024  d :     0.006747
      dxz     :     0.003124
      dyz     :     0.002923
      dx2y2   :    -0.000520
      dxy     :     0.001195

 11 H s       :     0.967134  s :     0.967134
      pz      :     0.015153  p :     0.013867
      px      :     0.021967
      py      :    -0.023253
      dz2     :     0.003762  d :     0.007752
      dxz     :     0.004529
      dyz     :    -0.001034
      dx2y2   :    -0.000514
      dxy     :     0.001009

 12 H s       :     0.374709  s :     0.374709
      pz      :    -0.009725  p :    -0.014096
      px      :     0.016960
      py      :    -0.021332
      dz2     :     0.000784  d :     0.008693
      dxz     :     0.003878
      dyz     :     0.001994
      dx2y2   :     0.000625
      dxy     :     0.001411

 13 H s       :     0.416257  s :     0.416257
      pz      :     0.005291  p :    -0.011950
      px      :     0.017177
      py      :    -0.034418
      dz2     :     0.001152  d :     0.008849
      dxz     :    -0.000214
      dyz     :     0.002268
      dx2y2   :     0.000084
      dxy     :     0.005558

 14 H s       :     0.999794  s :     0.999794
      pz      :    -0.031668  p :     0.015478
      px      :     0.020589
      py      :     0.026557
      dz2     :    -0.000836  d :     0.007043
      dxz     :     0.004548
      dyz     :     0.002561
      dx2y2   :    -0.000195
      dxy     :     0.000965

 15 C s       :     3.615676  s :     3.615676
      pz      :     1.113559  p :     3.130906
      px      :     1.127756
      py      :     0.889591
      dz2     :     0.013492  d :     0.031135
      dxz     :     0.023777
      dyz     :     0.012063
      dx2y2   :     0.001389
      dxy     :    -0.019587
      f0      :     0.004909  f :     0.008353
      f+1     :     0.000215
      f-1     :     0.002508
      f+2     :    -0.001705
      f-2     :    -0.000263
      f+3     :     0.004444
      f-3     :    -0.001754

 16 H s       :     0.720399  s :     0.720399
      pz      :     0.010343  p :     0.041363
      px      :     0.013409
      py      :     0.017611
      dz2     :     0.002261  d :     0.008303
      dxz     :     0.000220
      dyz     :     0.001707
      dx2y2   :     0.002142
      dxy     :     0.001973

 17 H s       :     0.721711  s :     0.721711
      pz      :     0.009677  p :     0.041809
      px      :     0.014341
      py      :     0.017791
      dz2     :     0.002472  d :     0.008325
      dxz     :    -0.000126
      dyz     :     0.001978
      dx2y2   :     0.002355
      dxy     :     0.001646

 18 H s       :     0.776042  s :     0.776042
      pz      :     0.011403  p :     0.042507
      px      :     0.015991
      py      :     0.015113
      dz2     :     0.000830  d :     0.009600
      dxz     :     0.003481
      dyz     :     0.001757
      dx2y2   :     0.002529
      dxy     :     0.001003

 19 O s       :     4.294867  s :     4.294867
      pz      :     1.562563  p :     4.868086
      px      :     1.420005
      py      :     1.885518
      dz2     :     0.012198  d :     0.054535
      dxz     :     0.017265
      dyz     :     0.015584
      dx2y2   :     0.002852
      dxy     :     0.006636
      f0      :     0.001927  f :     0.006067
      f+1     :     0.001119
      f-1     :     0.000805
      f+2     :     0.000870
      f-2     :     0.001044
      f+3     :     0.000129
      f-3     :     0.000173

 20 O s       :     4.284879  s :     4.284879
      pz      :     1.542320  p :     4.873974
      px      :     1.431162
      py      :     1.900492
      dz2     :     0.015120  d :     0.059284
      dxz     :     0.019705
      dyz     :     0.014425
      dx2y2   :     0.005080
      dxy     :     0.004954
      f0      :     0.001855  f :     0.005783
      f+1     :     0.001310
      f-1     :     0.000715
      f+2     :     0.000847
      f-2     :     0.000870
      f+3     :     0.000055
      f-3     :     0.000130



                     *******************************
                     * LOEWDIN POPULATION ANALYSIS *
                     *******************************

----------------------
LOEWDIN ATOMIC CHARGES
----------------------
   0 C :   -0.549787
   1 C :    0.252631
   2 C :   -0.099862
   3 C :   -0.517159
   4 C :   -0.116358
   5 C :   -0.122711
   6 C :    0.221168
   7 C :    0.228546
   8 C :    0.228654
   9 C :    0.221971
  10 H :   -0.163626
  11 H :   -0.173146
  12 H :   -0.158651
  13 H :   -0.158453
  14 H :   -0.172818
  15 C :    0.575423
  16 H :   -0.153049
  17 H :   -0.153194
  18 H :   -0.157623
  19 O :    0.500599
  20 O :    0.467445

-------------------------------
LOEWDIN REDUCED ORBITAL CHARGES
-------------------------------
  0 C s       :     2.489828  s :     2.489828
      pz      :     0.854240  p :     2.208858
      px      :     0.526154
      py      :     0.828464
      dz2     :     0.356576  d :     1.213285
      dxz     :     0.186420
      dyz     :     0.379239
      dx2y2   :     0.158318
      dxy     :     0.132732
      f0      :     0.190105  f :     0.637816
      f+1     :     0.063775
      f-1     :     0.134163
      f+2     :     0.114900
      f-2     :     0.066459
      f+3     :     0.034595
      f-3     :     0.033819

  1 C s       :     2.497893  s :     2.497893
      pz      :     0.866345  p :     2.276762
      px      :     0.594359
      py      :     0.816058
      dz2     :     0.174859  d :     0.654620
      dxz     :     0.059916
      dyz     :     0.229144
      dx2y2   :     0.117273
      dxy     :     0.073429
      f0      :     0.080696  f :     0.318094
      f+1     :     0.019889
      f-1     :     0.065351
      f+2     :     0.065419
      f-2     :     0.022305
      f+3     :     0.031061
      f-3     :     0.033373

  2 C s       :     2.479061  s :     2.479061
      pz      :     0.857061  p :     2.231857
      px      :     0.567425
      py      :     0.807371
      dz2     :     0.246194  d :     0.917203
      dxz     :     0.109151
      dyz     :     0.284614
      dx2y2   :     0.130324
      dxy     :     0.146921
      f0      :     0.145452  f :     0.471741
      f+1     :     0.045528
      f-1     :     0.073571
      f+2     :     0.090749
      f-2     :     0.036535
      f+3     :     0.050048
      f-3     :     0.029857

  3 C s       :     2.482896  s :     2.482896
      pz      :     0.849140  p :     2.196964
      px      :     0.522656
      py      :     0.825168
      dz2     :     0.350010  d :     1.197937
      dxz     :     0.174835
      dyz     :     0.380719
      dx2y2   :     0.153417
      dxy     :     0.138956
      f0      :     0.185043  f :     0.639362
      f+1     :     0.065767
      f-1     :     0.135779
      f+2     :     0.118610
      f-2     :     0.062383
      f+3     :     0.039165
      f-3     :     0.032615

  4 C s       :     2.461048  s :     2.461048
      pz      :     0.850068  p :     2.270521
      px      :     0.610337
      py      :     0.810117
      dz2     :     0.254059  d :     0.889523
      dxz     :     0.134171
      dyz     :     0.260120
      dx2y2   :     0.140806
      dxy     :     0.100368
      f0      :     0.138365  f :     0.495265
      f+1     :     0.029550
      f-1     :     0.085948
      f+2     :     0.094870
      f-2     :     0.070545
      f+3     :     0.036943
      f-3     :     0.039045

  5 C s       :     2.462223  s :     2.462223
      pz      :     0.820864  p :     2.270934
      px      :     0.608727
      py      :     0.841344
      dz2     :     0.222026  d :     0.893439
      dxz     :     0.114837
      dyz     :     0.296879
      dx2y2   :     0.137869
      dxy     :     0.121828
      f0      :     0.140099  f :     0.496115
      f+1     :     0.058255
      f-1     :     0.082301
      f+2     :     0.096394
      f-2     :     0.039257
      f+3     :     0.040634
      f-3     :     0.039176

  6 C s       :     2.483030  s :     2.483030
      pz      :     0.842558  p :     2.258134
      px      :     0.574867
      py      :     0.840709
      dz2     :     0.171661  d :     0.693687
      dxz     :     0.058174
      dyz     :     0.246133
      dx2y2   :     0.116798
      dxy     :     0.100920
      f0      :     0.085182  f :     0.343981
      f+1     :     0.027652
      f-1     :     0.059169
      f+2     :     0.072812
      f-2     :     0.027334
      f+3     :     0.037476
      f-3     :     0.034357

  7 C s       :     2.493461  s :     2.493461
      pz      :     0.852634  p :     2.268641
      px      :     0.582285
      py      :     0.833722
      dz2     :     0.261766  d :     0.677942
      dxz     :     0.110995
      dyz     :     0.173806
      dx2y2   :     0.094216
      dxy     :     0.037158
      f0      :     0.111235  f :     0.331411
      f+1     :     0.025626
      f-1     :     0.062249
      f+2     :     0.055117
      f-2     :     0.055050
      f+3     :     0.005823
      f-3     :     0.016311

  8 C s       :     2.493289  s :     2.493289
      pz      :     0.839807  p :     2.269361
      px      :     0.583478
      py      :     0.846076
      dz2     :     0.148535  d :     0.677436
      dxz     :     0.060698
      dyz     :     0.271884
      dx2y2   :     0.109347
      dxy     :     0.086972
      f0      :     0.086854  f :     0.331260
      f+1     :     0.033648
      f-1     :     0.054401
      f+2     :     0.072051
      f-2     :     0.018113
      f+3     :     0.034443
      f-3     :     0.031750

  9 C s       :     2.482741  s :     2.482741
      pz      :     0.831156  p :     2.255911
      px      :     0.573966
      py      :     0.850789
      dz2     :     0.159649  d :     0.694751
      dxz     :     0.052996
      dyz     :     0.245633
      dx2y2   :     0.129675
      dxy     :     0.106798
      f0      :     0.084178  f :     0.344626
      f+1     :     0.025917
      f-1     :     0.057303
      f+2     :     0.073588
      f-2     :     0.031704
      f+3     :     0.035191
      f-3     :     0.036745

 10 H s       :     0.643659  s :     0.643659
      pz      :     0.126548  p :     0.298361
      px      :     0.071518
      py      :     0.100295
      dz2     :     0.073121  d :     0.221606
      dxz     :     0.048462
      dyz     :     0.058059
      dx2y2   :     0.028504
      dxy     :     0.013459

 11 H s       :     0.643610  s :     0.643610
      pz      :     0.125582  p :     0.306600
      px      :     0.073053
      py      :     0.107965
      dz2     :     0.072504  d :     0.222937
      dxz     :     0.045283
      dyz     :     0.059065
      dx2y2   :     0.029308
      dxy     :     0.016777

 12 H s       :     0.657530  s :     0.657530
      pz      :     0.121564  p :     0.292054
      px      :     0.075618
      py      :     0.094872
      dz2     :     0.071104  d :     0.209067
      dxz     :     0.040957
      dyz     :     0.050744
      dx2y2   :     0.026718
      dxy     :     0.019544

 13 H s       :     0.657610  s :     0.657610
      pz      :     0.075277  p :     0.291919
      px      :     0.075364
      py      :     0.141277
      dz2     :     0.017097  d :     0.208924
      dxz     :     0.003034
      dyz     :     0.080790
      dx2y2   :     0.050684
      dxy     :     0.057319

 14 H s       :     0.644343  s :     0.644343
      pz      :     0.139431  p :     0.306167
      px      :     0.073237
      py      :     0.093500
      dz2     :     0.069834  d :     0.222308
      dxz     :     0.048644
      dyz     :     0.066915
      dx2y2   :     0.023453
      dxy     :     0.013461

 15 C s       :     2.450243  s :     2.450243
      pz      :     0.779164  p :     2.283577
      px      :     0.768568
      py      :     0.735845
      dz2     :     0.069747  d :     0.504021
      dxz     :     0.073052
      dyz     :     0.148005
      dx2y2   :     0.119193
      dxy     :     0.094025
      f0      :     0.027284  f :     0.186736
      f+1     :     0.003544
      f-1     :     0.032989
      f+2     :     0.043364
      f-2     :     0.012159
      f+3     :     0.036872
      f-3     :     0.030524

 16 H s       :     0.613029  s :     0.613029
      pz      :     0.103309  p :     0.314038
      px      :     0.129100
      py      :     0.081629
      dz2     :     0.050077  d :     0.225981
      dxz     :     0.049186
      dyz     :     0.023839
      dx2y2   :     0.061851
      dxy     :     0.041028

 17 H s       :     0.613034  s :     0.613034
      pz      :     0.106383  p :     0.314134
      px      :     0.125890
      py      :     0.081861
      dz2     :     0.055625  d :     0.226026
      dxz     :     0.044870
      dyz     :     0.027064
      dx2y2   :     0.060983
      dxy     :     0.037484

 18 H s       :     0.621365  s :     0.621365
      pz      :     0.136847  p :     0.310480
      px      :     0.084558
      py      :     0.089075
      dz2     :     0.062802  d :     0.225778
      dxz     :     0.074569
      dyz     :     0.049714
      dx2y2   :     0.028056
      dxy     :     0.010638

 19 O s       :     3.169113  s :     3.169113
      pz      :     1.430016  p :     4.018630
      px      :     1.138888
      py      :     1.449725
      dz2     :     0.088769  d :     0.232418
      dxz     :     0.027964
      dyz     :     0.077501
      dx2y2   :     0.026208
      dxy     :     0.011975
      f0      :     0.028494  f :     0.079241
      f+1     :     0.008578
      f-1     :     0.018927
      f+2     :     0.012755
      f-2     :     0.008009
      f+3     :     0.000749
      f-3     :     0.001729

 20 O s       :     3.184859  s :     3.184859
      pz      :     1.429494  p :     4.038020
      px      :     1.151302
      py      :     1.457225
      dz2     :     0.087643  d :     0.231003
      dxz     :     0.031033
      dyz     :     0.079599
      dx2y2   :     0.023187
      dxy     :     0.009542
      f0      :     0.028735  f :     0.078672
      f+1     :     0.009788
      f-1     :     0.019777
      f+2     :     0.011623
      f-2     :     0.006993
      f+3     :     0.000462
      f-3     :     0.001294



                      *****************************
                      * MAYER POPULATION ANALYSIS *
                      *****************************

  NA   - Mulliken gross atomic population
  ZA   - Total nuclear charge
  QA   - Mulliken gross atomic charge
  VA   - Mayer's total valence
  BVA  - Mayer's bonded valence
  FA   - Mayer's free valence

  ATOM       NA         ZA         QA         VA         BVA        FA
  0 C      4.6295     6.0000     1.3705     1.0115     1.0115     0.0000
  1 C      6.6697     6.0000    -0.6697     2.9098     2.9098    -0.0000
  2 C      5.6288     6.0000     0.3712     3.2727     3.2727     0.0000
  3 C      5.0509     6.0000     0.9491     2.2003     2.2003     0.0000
  4 C      4.4775     6.0000     1.5225     0.5746     0.5746    -0.0000
  5 C      4.8290     6.0000     1.1710     1.4432     1.4432    -0.0000
  6 C      7.2141     6.0000    -1.2141     2.1780     2.1780    -0.0000
  7 C      6.4021     6.0000    -0.4021     2.4560     2.4560     0.0000
  8 C      6.3982     6.0000    -0.3982     2.4152     2.4152     0.0000
  9 C      7.4462     6.0000    -1.4462     2.1256     2.1256    -0.0000
 10 H      0.8568     1.0000     0.1432     1.1466     1.1466     0.0000
 11 H      0.9888     1.0000     0.0112     1.2860     1.2860    -0.0000
 12 H      0.3693     1.0000     0.6307     0.3666     0.3666     0.0000
 13 H      0.4132     1.0000     0.5868     0.4404     0.4404    -0.0000
 14 H      1.0223     1.0000    -0.0223     1.2968     1.2968     0.0000
 15 C      6.7861     6.0000    -0.7861     3.4662     3.4662    -0.0000
 16 H      0.7701     1.0000     0.2299     0.9843     0.9843    -0.0000
 17 H      0.7718     1.0000     0.2282     0.9871     0.9871    -0.0000
 18 H      0.8282     1.0000     0.1718     1.0343     1.0343    -0.0000
 19 O      9.2236     8.0000    -1.2236     1.0021     1.0021    -0.0000
 20 O      9.2239     8.0000    -1.2239     1.0261     1.0261     0.0000

  Mayer bond orders larger than 0.100000
B(  0-C ,  1-C ) :   0.5264 B(  0-C ,  5-C ) :   0.2654 B(  0-C ,  6-C ) :   0.5300 
B(  0-C ,  8-C ) :   0.1269 B(  0-C ,  9-C ) :  -0.1699 B(  0-C , 10-H ) :  -0.2513 
B(  0-C , 20-O ) :  -0.1282 B(  1-C ,  2-C ) :   1.4834 B(  1-C ,  3-C ) :  -0.1030 
B(  1-C ,  4-C ) :  -0.2197 B(  1-C ,  5-C ) :   0.3683 B(  1-C , 10-H ) :   0.8686 
B(  1-C , 15-C ) :  -0.3315 B(  1-C , 20-O ) :   0.2251 B(  2-C ,  3-C ) :   0.5419 
B(  2-C ,  4-C ) :   0.5310 B(  2-C ,  5-C ) :  -0.2612 B(  2-C , 15-C ) :   0.5181 
B(  2-C , 19-O ) :   0.1186 B(  2-C , 20-O ) :   0.1459 B(  3-C ,  4-C ) :   0.4379 
B(  3-C ,  5-C ) :   0.1198 B(  3-C ,  6-C ) :  -0.1892 B(  3-C ,  9-C ) :   0.6382 
B(  3-C , 15-C ) :   0.2864 B(  3-C , 19-O ) :   0.1710 B(  4-C ,  5-C ) :   1.1612 
B(  4-C ,  6-C ) :  -0.6704 B(  4-C ,  7-C ) :  -0.2543 B(  4-C ,  9-C ) :  -0.5054 
B(  4-C , 11-H ) :  -0.1351 B(  5-C ,  8-C ) :  -0.1535 B(  5-C ,  9-C ) :  -0.3923 
B(  5-C , 10-H ) :   0.1397 B(  5-C , 14-H ) :  -0.1306 B(  5-C , 20-O ) :   0.1541 
B(  6-C ,  7-C ) :   1.0428 B(  6-C , 10-H ) :   0.1064 B(  6-C , 13-H ) :  -0.1528 
B(  6-C , 14-H ) :   1.2993 B(  7-C ,  8-C ) :   1.0832 B(  7-C , 13-H ) :   0.3952 
B(  8-C ,  9-C ) :   1.0990 B(  8-C , 12-H ) :   0.3225 B(  9-C , 11-H ) :   1.2078 
B(  9-C , 12-H ) :  -0.1633 B(  9-C , 19-O ) :   0.1120 B( 10-H , 14-H ) :   0.1000 
B( 10-H , 20-O ) :   0.1235 B( 11-H , 19-O ) :   0.2775 B( 14-H , 20-O ) :   0.2726 
B( 15-C , 16-H ) :   0.9585 B( 15-C , 17-H ) :   0.9602 B( 15-C , 18-H ) :   1.0423 


-------
TIMINGS
-------

Total SCF time: 0 days 0 hours 4 min 17 sec 

Total time                  ....     257.401 sec
Sum of individual times     ....     255.576 sec  ( 99.3%)

SCF preparation             ....       2.523 sec  (  1.0%)
Fock matrix formation       ....     213.418 sec  ( 82.9%)
  Startup                   ....       4.764 sec  (  2.2% of F)
  Split-RI-J                ....      18.588 sec  (  8.7% of F)
  Chain of spheres X        ....     113.172 sec  ( 53.0% of F)
  XC integration            ....      60.770 sec  ( 28.5% of F)
    XC Preparation          ....       0.000 sec  (  0.0% of XC)
    Basis function eval.    ....       3.993 sec  (  6.6% of XC)
    Density eval.           ....      20.898 sec  ( 34.4% of XC)
    XC-Functional eval.     ....       0.591 sec  (  1.0% of XC)
    XC-Potential eval.      ....      26.689 sec  ( 43.9% of XC)
  CPCM terms                ....       7.682 sec  (  3.6% of F)
Diagonalization             ....       0.000 sec  (  0.0%)
Density matrix formation    ....       9.426 sec  (  3.7%)
Total Energy calculation    ....       4.876 sec  (  1.9%)
Population analysis         ....       1.116 sec  (  0.4%)
Orbital Transformation      ....       2.038 sec  (  0.8%)
Orbital Orthonormalization  ....       0.000 sec  (  0.0%)
DIIS solution               ....      18.990 sec  (  7.4%)
SOSCF solution              ....       3.188 sec  (  1.2%)
Finished LeanSCF after 258.0 sec

Maximum memory used throughout the entire LEANSCF-calculation: 122.4 MB


-------------------------------------------------------------------------------
                          DFT DISPERSION CORRECTION                            
                                                                               
                              DFTD3 V3.1  Rev 1                                
                          USING Becke-Johnson damping                          
-------------------------------------------------------------------------------
The R2SCANh functional is recognized
Active option DFTDOPT                   ...         4   

molecular C6(AA) [au] = 5700.991034 


            DFT-D V3
 parameters
 s6 scaling factor         :     1.0000 
 a1 scaling factor         :     0.4709 
 s8 scaling factor         :     1.1236 
 a2 scaling factor         :     5.9157 
 ad hoc parameters k1-k3   :    16.0000     1.3333    -4.0000 

 Edisp/kcal,au: -5.205148026049  -0.008294930493 
 E6   /kcal   :  -3.708898666 
 E8   /kcal   :  -1.496249360 
 % E8         :  28.745567898 

-------------------------   ----------------
Dispersion correction           -0.008294930
-------------------------   ----------------


-------------------------   --------------------
FINAL SINGLE POINT ENERGY      -574.315146957064
-------------------------   --------------------



           ************************************************************
           *        Program running with 15 parallel MPI-processes    *
           *              working on a common directory               *
           ************************************************************

------------------------------------------------------------------------------
                              ORCA PROPERTY CALCULATIONS
------------------------------------------------------------------------------

GBWName                                 ... cs_rporg_w10_ox_solv_04.gbw
Number of atoms                         ...     21
Number of basis functions               ...    860
Max core memory                         ...   3500 MB

Electric properties:
Dipole moment                           ... YES
Quadrupole moment                       ...  NO
Static polarizability (Dipole/Dipole)   ...  NO
Static polarizability (Dipole/Quad.)    ...  NO
Static polarizability (Quad./Quad.)     ...  NO
Static polarizability (Velocity)        ...  NO

Atomic electric properties:
Dipole moment                           ...  NO
Quadrupole moment                       ...  NO
Static polarizability                   ...  NO

Choice of electric origin               ... Center of mass
Position of electric origin             ...     0.006510     0.086164     3.172783

General magnetic properties:
Magnetizability                         ...  NO

EPR properties:
g-Tensor (aka g-matrix)                 ...  NO
Zero-Field splitting spin-orbit         ...  NO
Zero-field splitting spin-spin          ...  NO
Hyperfine couplings                     ...  NO (   0 nuclei)
Quadrupole couplings                    ...  NO (   0 nuclei)
Contact density                         ...  NO (   0 nuclei)

NMR properties:
Chemical shifts                         ...  NO (   0 nuclei)
Spin-rotation constants                 ...  NO (   0 nuclei)
Spin-spin couplings                     ...  NO (   0 nuclei,    0 pairs)

Choice of magnetic origin               ... GIAO
Position of magnetic origin             ...     0.000000     0.000000     0.000000

Properties with geometric perturbations:
SCF Hessian                             ...  NO
IR spectrum                             ...  NO
VCD spectrum                            ...  NO
X-ray spectroscopy properties:
SCF XES/XAS/RIXS spectra                ...  NO


-------------
DIPOLE MOMENT
-------------

Method             : SCF
Type of density    : Electron Density
Multiplicity       :   1
Irrep              :   0
Energy             :  -574.3068520265709367 Eh
Relativity type    : 
Basis              : AO
                                X                 Y                 Z
Electronic contribution:      0.044619877      -3.294597547      -0.905984573
Nuclear contribution   :     -0.064708602       3.027549454       1.475829711
                        -----------------------------------------
Total Dipole Moment    :     -0.020088725      -0.267048093       0.569845138
                        -----------------------------------------
Magnitude (a.u.)       :      0.629636182
Magnitude (Debye)      :      1.600407988



--------------------
Rotational spectrum 
--------------------
 
Rotational constants in cm-1:             0.042977             0.025752             0.016151 
Rotational constants in MHz :          1288.412736           772.037278           484.209235 

Dipole components along the rotational axes: 
x,y,z [a.u.] :    -0.362924     0.514506     0.003433 
x,y,z [Debye]:    -0.922479     1.307770     0.008726 

 

Dipole moment calculation done in   0.3 sec 

Maximum memory used throughout the entire PROP-calculation: 67.8 MB

--------------------------------
SUGGESTED CITATIONS FOR THIS RUN
--------------------------------

Below you find a list of papers that are relevant to this ORCA run
We neither can nor want to force you to cite these papers, but we appreciate if you do
You receive ORCA, which is the product of decades of hard work by many enthusiastic individuals, for free
The only thing we kindly ask in return is that you cite our papers,
We deeply appreciate it, if you show your appreciation for ORCA by not just citing the generic ORCA reference.

Please note that relegating all ORCA citations to the supporting information does *not* help us.
SI sections are not indexed - citations you put there will not count into any citation statistics
But we need these citations in order to attract the funding resources that allow us to do what we are doing

Therefore, if you are a happy ORCA user, please consider citing a few of the papers listed below in the main body of your paper

In addition to the list printed below, the program has created the file cs_rporg_w10_ox_solv_04.bibtex that contains the list in bibtex format
You can import this file easily into all common literature databanks and citation aid programs


List of essential papers. We consider these as the minimum necessary citations

  1. Neese,F.
     Software update: the ORCA program system, version 5.0
     WIRES Comput. Molec. Sci., 2022 12(1)e1606
     doi.org/10.1002/wcms.1606

List of papers to cite with high priority. The work reported in these papers was absolutely
necessary for this run to complete.
Our perspective: the developers of density functionals and basis sets usually get cited in chemistry papers
Good! But without the algorithms to do something with them, the functionals or basis sets would not do anything.
Hence, in our opinion, the algorithm design and method developments papers are equally worthy of getting cited

  1. Neese,F.
     An improvement of the resolution of the identity approximation for the formation of the Coulomb matrix
     J. Comp. Chem., 2003 24(14)1740-1747
     doi.org/10.1002/jcc.10318
  2. Neese,F.; Wennmohs,F.; Hansen,A.; Becker,U.
     Efficient, approximate and parallel Hartree-Fock and hybrid DFT calculations. A 'chain-of-spheres' algorithm for the Hartree-Fock exchange
     Chem. Phys., 2009 356(1-3)98-109
     doi.org/10.1016/j.chemphys.2008.10.036
  3. Garcia-Rates,M.; Neese,F.
     Effect of the Solute Cavity on the Solvation Energy and its Derivatives within the Framework of the Gaussian Charge Scheme
     J. Comput. Chem., 2020 41 922-939
     doi.org/10.1002/jcc.26139
  4. Helmich-Paris,B.; de Souza,B.; Neese,F.; Izsák,R.
     An improved chain of spheres for exchange algorithm
     J. Chem. Phys., 2021 155 104109
     doi.org/doi: 10.1063/5.0058766.
  5. Neese,F.
     The SHARK Integral Generation and Digestion System
     J. Comp. Chem., 2022  1-16
     doi.org/10.1002/jcc.26942
  6. Lehtola,S.; Steigemann,C.; Oliveira,M.; Marques,M.
     Recent developments in Libxc - A comprehensive library of functionals for density functional theory
     Software X, 2018 7 
     doi.org/10.1016/j.softx.2017.11.002
  7. Grimme,S.; Antony,J.; Ehrlich,S.; Krieg,H.
     A consistent and accurate ab initio parametrization of density functional dispersion correction (DFT-D) for the 94 elements H-Pu
     J. Chem. Phys., 2010 132 154104-XXXX
     doi.org/10.1063/1.3382344
  8. Grimme,S.; Ehrlich,S.; Goerigk,L.
     Effect of the damping function in dispersion corrected density functional theory
     J. Comput. Chem., 2011 32(7)1456-1465
     doi.org/10.1002/jcc.21759
  9. Bursch,M.; Neugebauer,H.; Ehlert,S.; Grimme,S.
     Dispersion corrected r2SCAN based global hybrid functionals: r2SCANh, r2SCAN0, and r2SCAN50
     J. Phys. Chem., 2022 156(13)134105
     doi.org/10.1063/5.0086040

List of suggested additional citations. These are papers that are important in the 'surrounding' of 
of this run, or papers that preceded the highly important papers. If you like your results we are grateful for a citation.

  1. Izsak,R.; Neese,F.
     An overlap fitted chain of spheres exchange method
     J. Chem. Phys., 2011 135 144105
     doi.org/10.1063/1.3646921
  2. Izsak,R.; Hansen,A.; Neese,F.
     The resolution of identity and chain of spheres approximations for the LPNO-CCSD singles Fock term
     Molec. Phys., 2012 110 2413-2417
     doi.org/10.1080/00268976.2012.687466
  3. Neese,F.
     The ORCA program system
     WIRES Comput. Molec. Sci., 2012 2(1)73-78
     doi.org/10.1002/wcms.81
  4. Izsak,R.; Neese,F.; Klopper,W.
     Robust fitting techniques in the chain of spheres approximation to the Fock exchange: The role of the complementary space
     J. Chem. Phys., 2013 139 
     doi.org/10.1063/1.4819264
  5. Neese,F.
     Software update: the ORCA program system, version 4.0
     WIRES Comput. Molec. Sci., 2018 8(1)1-6
     doi.org/10.1002/wcms.1327
  6. Neese,F.; Wennmohs,F.; Becker,U.; Riplinger,C.
     The ORCA quantum chemistry program package
     J. Chem. Phys., 2020 152 Art. No. L224108
     doi.org/10.1063/5.0004608
  7. Wittmann,L.; Neugebauer,H.; Grimme,S.; Bursch,M.
     Dispersion-corrected r2SCAN based double-hybrid functionals
     J. Chem. Phys., 2023 159(22)224103
     doi.org/10.1063/5.0174988

List of optional additional citations

  1. Neese,F.
     Approximate second-order SCF convergence for spin unrestricted wavefunctions
     Chem. Phys. Lett., 2000 325(1-3)93-98
     doi.org/10.1016/s0009-2614(00)00662-x

Timings for individual modules:

Sum of individual times          ...      278.649 sec (=   4.644 min)
Startup calculation              ...       10.694 sec (=   0.178 min)   3.8 %
SCF iterations                   ...      265.466 sec (=   4.424 min)  95.3 %
Property calculations            ...        2.489 sec (=   0.041 min)   0.9 %
                             ****ORCA TERMINATED NORMALLY****
TOTAL RUN TIME: 0 days 0 hours 4 minutes 42 seconds 450 msec
