 vasp.5.4.4.18Apr17-6-g9f103f2a35 (build Nov 09 2017 14:00:25) complex          
  
 executed on             LinuxIFC date 2024.09.30  08:04:05
 running on   48 total cores
 distrk:  each k-point on   48 cores,    1 groups
 distr:  one band on NCORES_PER_BAND=  24 cores,    2 groups


--------------------------------------------------------------------------------------------------------


 INCAR:
 POTCAR:    PAW_PBE C 08Apr2002                   
 POTCAR:    PAW_PBE N 08Apr2002                   
 POTCAR:    PAW_PBE H 15Jun2001                   

 ----------------------------------------------------------------------------- 
|                                                                             |
|           W    W    AA    RRRRR   N    N  II  N    N   GGGG   !!!           |
|           W    W   A  A   R    R  NN   N  II  NN   N  G    G  !!!           |
|           W    W  A    A  R    R  N N  N  II  N N  N  G       !!!           |
|           W WW W  AAAAAA  RRRRR   N  N N  II  N  N N  G  GGG   !            |
|           WW  WW  A    A  R   R   N   NN  II  N   NN  G    G                |
|           W    W  A    A  R    R  N    N  II  N    N   GGGG   !!!           |
|                                                                             |
|      For optimal performance we recommend to set                            |
|        NCORE= 4 - approx SQRT( number of cores)                             |
|      NCORE specifies how many cores store one orbital (NPAR=cpu/NCORE).     |
|      This setting can  greatly improve the performance of VASP for DFT.     |
|      The default,   NCORE=1            might be grossly inefficient         |
|      on modern multi-core architectures or massively parallel machines.     |
|      Do your own testing !!!!                                               |
|      Unfortunately you need to use the default for GW and RPA calculations. |
|      (for HF NCORE is supported but not extensively tested yet)             |
|                                                                             |
 ----------------------------------------------------------------------------- 

 POTCAR:    PAW_PBE C 08Apr2002                   
   VRHFIN =C: s2p2                                                              
   LEXCH  = PE                                                                  
   EATOM  =   147.1560 eV,   10.8157 Ry                                         
                                                                                
   TITEL  = PAW_PBE C 08Apr2002                                                 
   LULTRA =        F    use ultrasoft PP ?                                      
   IUNSCR =        1    unscreen: 0-lin 1-nonlin 2-no                           
   RPACOR =    1.200    partial core radius                                     
   POMASS =   12.011; ZVAL   =    4.000    mass and valenz                      
   RCORE  =    1.500    outmost cutoff radius                                   
   RWIGS  =    1.630; RWIGS  =    0.863    wigner-seitz radius (au A)           
   ENMAX  =  400.000; ENMIN  =  300.000 eV                                      
   ICORE  =        2    local potential                                         
   LCOR   =        T    correct aug charges                                     
   LPAW   =        T    paw PP                                                  
   EAUG   =  644.873                                                            
   DEXC   =    0.000                                                            
   RMAX   =    1.529    core radius for proj-oper                               
   RAUG   =    1.300    factor for augmentation sphere                          
   RDEP   =    1.501    radius for radial grids                                 
   RDEPT  =    1.300    core radius for aug-charge                              
                                                                                
   Atomic configuration                                                         
    4 entries                                                                   
     n  l   j            E        occ.                                          
     1  0  0.50      -273.3789   2.0000                                         
     2  0  0.50       -13.7508   2.0000                                         
     2  1  0.50        -5.2854   2.0000                                         
     3  2  1.50        -5.4423   0.0000                                         
   Description                                                                  
     l       E           TYP  RCUT    TYP  RCUT                                 
     0    -13.7508458     23  1.200                                             
     0     -8.2022199     23  1.200                                             
     1     -5.2854383     23  1.500                                             
     1     34.0145650     23  1.500                                             
     2     -5.4423304      7  1.500                                             
  local pseudopotential read in
  partial core-charges read in
  partial kinetic energy density read in
  atomic valenz-charges read in
  non local Contribution for L=           0  read in
    real space projection operators read in
  non local Contribution for L=           0  read in
    real space projection operators read in
  non local Contribution for L=           1  read in
    real space projection operators read in
  non local Contribution for L=           1  read in
    real space projection operators read in
    PAW grid and wavefunctions read in
 
   number of l-projection  operators is LMAX  =           4
   number of lm-projection operators is LMMAX =           8
 
 POTCAR:    PAW_PBE N 08Apr2002                   
   VRHFIN =N: s2p3                                                              
   LEXCH  = PE                                                                  
   EATOM  =   264.5486 eV,   19.4438 Ry                                         
                                                                                
   TITEL  = PAW_PBE N 08Apr2002                                                 
   LULTRA =        F    use ultrasoft PP ?                                      
   IUNSCR =        1    unscreen: 0-lin 1-nonlin 2-no                           
   RPACOR =    1.200    partial core radius                                     
   POMASS =   14.001; ZVAL   =    5.000    mass and valenz                      
   RCORE  =    1.500    outmost cutoff radius                                   
   RWIGS  =    1.400; RWIGS  =    0.741    wigner-seitz radius (au A)           
   ENMAX  =  400.000; ENMIN  =  300.000 eV                                      
   ICORE  =        2    local potential                                         
   LCOR   =        T    correct aug charges                                     
   LPAW   =        T    paw PP                                                  
   EAUG   =  627.112                                                            
   DEXC   =    0.000                                                            
   RMAX   =    1.529    core radius for proj-oper                               
   RAUG   =    1.300    factor for augmentation sphere                          
   RDEP   =    1.514    radius for radial grids                                 
   RDEPT  =    1.338    core radius for aug-charge                              
                                                                                
   Atomic configuration                                                         
    4 entries                                                                   
     n  l   j            E        occ.                                          
     1  0  0.50      -384.7179   2.0000                                         
     2  0  0.50       -18.5828   2.0000                                         
     2  1  0.50        -7.0898   3.0000                                         
     3  2  1.50        -6.8029   0.0000                                         
   Description                                                                  
     l       E           TYP  RCUT    TYP  RCUT                                 
     0    -18.5828119     23  1.200                                             
     0    -13.5018863     23  1.200                                             
     1     -7.0897853     23  1.500                                             
     1      9.5240782     23  1.500                                             
     2     -6.8029130      7  1.500                                             
  local pseudopotential read in
  partial core-charges read in
  partial kinetic energy density read in
  atomic valenz-charges read in
  non local Contribution for L=           0  read in
    real space projection operators read in
  non local Contribution for L=           0  read in
    real space projection operators read in
  non local Contribution for L=           1  read in
    real space projection operators read in
  non local Contribution for L=           1  read in
    real space projection operators read in
    PAW grid and wavefunctions read in
 
   number of l-projection  operators is LMAX  =           4
   number of lm-projection operators is LMMAX =           8
 
 POTCAR:    PAW_PBE H 15Jun2001                   
   VRHFIN =H: ultrasoft test                                                    
   LEXCH  = PE                                                                  
   EATOM  =    12.4884 eV,    0.9179 Ry                                         
                                                                                
   TITEL  = PAW_PBE H 15Jun2001                                                 
   LULTRA =        F    use ultrasoft PP ?                                      
   IUNSCR =        0    unscreen: 0-lin 1-nonlin 2-no                           
   RPACOR =    0.000    partial core radius                                     
   POMASS =    1.000; ZVAL   =    1.000    mass and valenz                      
   RCORE  =    1.100    outmost cutoff radius                                   
   RWIGS  =    0.700; RWIGS  =    0.370    wigner-seitz radius (au A)           
   ENMAX  =  250.000; ENMIN  =  200.000 eV                                      
   RCLOC  =    0.701    cutoff for local pot                                    
   LCOR   =        T    correct aug charges                                     
   LPAW   =        T    paw PP                                                  
   EAUG   =  400.000                                                            
   RMAX   =    1.123    core radius for proj-oper                               
   RAUG   =    1.200    factor for augmentation sphere                          
   RDEP   =    1.112    radius for radial grids                                 
   RDEPT  =    0.926    core radius for aug-charge                              
                                                                                
   Atomic configuration                                                         
    2 entries                                                                   
     n  l   j            E        occ.                                          
     1  0  0.50        -6.4927   1.0000                                         
     2  1  0.50        -3.4015   0.0000                                         
   Description                                                                  
     l       E           TYP  RCUT    TYP  RCUT                                 
     0     -6.4927494     23  1.100                                             
     0      6.8029130     23  1.100                                             
     1     -4.0817478     23  1.100                                             
  local pseudopotential read in
  atomic valenz-charges read in
  non local Contribution for L=           0  read in
    real space projection operators read in
  non local Contribution for L=           0  read in
    real space projection operators read in
  non local Contribution for L=           1  read in
    real space projection operators read in
    PAW grid and wavefunctions read in
 
   number of l-projection  operators is LMAX  =           3
   number of lm-projection operators is LMMAX =           5
 
 Optimization of the real space projectors (new method)

 maximal supplied QI-value         = 25.13
 optimisation between [QCUT,QGAM] = [ 11.31, 22.87] = [ 35.82,146.48] Ry 
 Optimized for a Real-space Cutoff    1.03 Angstroem

   l    n(q)    QCUT    max X(q) W(low)/X(q) W(high)/X(q)  e(spline) 
   0      7    11.310   115.676    0.20E-03    0.90E-03    0.20E-06
   0      7    11.310    87.132    0.20E-03    0.89E-03    0.19E-06
   1      6    11.310     4.429    0.16E-03    0.28E-03    0.12E-06
   1      6    11.310     2.733    0.12E-03    0.21E-03    0.99E-07
 Optimization of the real space projectors (new method)

 maximal supplied QI-value         = 25.13
 optimisation between [QCUT,QGAM] = [ 11.31, 22.87] = [ 35.82,146.48] Ry 
 Optimized for a Real-space Cutoff    1.43 Angstroem

   l    n(q)    QCUT    max X(q) W(low)/X(q) W(high)/X(q)  e(spline) 
   0     10    11.310    79.467    0.42E-04    0.81E-04    0.60E-06
   0     10    11.310    66.151    0.40E-04    0.81E-04    0.60E-06
   1      9    11.310    17.416    0.14E-03    0.88E-04    0.14E-05
   1      9    11.310    12.382    0.15E-03    0.93E-04    0.14E-05
 Optimization of the real space projectors (new method)

 maximal supplied QI-value         = 34.20
 optimisation between [QCUT,QGAM] = [ 11.29, 22.57] = [ 35.68,142.71] Ry 
 Optimized for a Real-space Cutoff    1.20 Angstroem

   l    n(q)    QCUT    max X(q) W(low)/X(q) W(high)/X(q)  e(spline) 
   0      8    11.287    19.460    0.22E-03    0.50E-03    0.19E-06
   0      8    11.287    12.209    0.21E-03    0.48E-03    0.18E-06
   1      8    11.287     4.655    0.21E-03    0.11E-04    0.26E-06
  PAW_PBE C 08Apr2002                   :
 energy of atom  1       EATOM= -147.1560
 kinetic energy error for atom=    0.0076 (will be added to EATOM!!)
  PAW_PBE N 08Apr2002                   :
 energy of atom  2       EATOM= -264.5486
 kinetic energy error for atom=    0.0138 (will be added to EATOM!!)
  PAW_PBE H 15Jun2001                   :
 energy of atom  3       EATOM=  -12.4884
 kinetic energy error for atom=    0.0020 (will be added to EATOM!!)
 
 
 POSCAR: C N H                                   
  positions in direct lattice
  velocities in cartesian coordinates
 exchange correlation table for  LEXCH =        8
   RHO(1)=    0.500       N(1)  =     2000
   RHO(2)=  100.500       N(2)  =     4000
 


--------------------------------------------------------------------------------------------------------


 ion  position               nearest neighbor table
   1  0.529  0.468  0.500-  17 1.09   2 1.38   9 1.42
   2  0.559  0.486  0.500-  16 1.09   1 1.38   3 1.42
   3  0.558  0.521  0.500-  15 1.09   4 1.38   2 1.42
   4  0.528  0.539  0.500-  14 1.09   3 1.38   5 1.42
   5  0.497  0.521  0.500-  10 1.37   4 1.42   9 1.44
   6  0.440  0.522  0.500-  13 1.09  10 1.33   7 1.42
   7  0.438  0.486  0.500-  12 1.09   8 1.38   6 1.42
   8  0.467  0.468  0.500-  11 1.09   7 1.38   9 1.42
   9  0.498  0.485  0.500-   8 1.42   1 1.42   5 1.44
  10  0.468  0.539  0.500-   6 1.33   5 1.37
  11  0.466  0.441  0.500-   8 1.09
  12  0.413  0.474  0.500-   7 1.09
  13  0.417  0.536  0.500-   6 1.09
  14  0.527  0.566  0.500-   4 1.09
  15  0.582  0.535  0.500-   3 1.09
  16  0.583  0.473  0.500-   2 1.09
  17  0.530  0.441  0.500-   1 1.09
 
  LATTYP: Found a simple cubic cell.
 ALAT       =    40.0000000000
  
  Lattice vectors:
  
 A1 = (  40.0000000000,   0.0000000000,   0.0000000000)
 A2 = (   0.0000000000,  40.0000000000,   0.0000000000)
 A3 = (   0.0000000000,   0.0000000000,  40.0000000000)


Analysis of symmetry for initial positions (statically):
=====================================================================
 Subroutine PRICEL returns:
 Original cell was already a primitive cell.
 

 Routine SETGRP: Setting up the symmetry group for a 
 simple cubic supercell.


 Subroutine GETGRP returns: Found  2 space group operations
 (whereof  2 operations were pure point group operations)
 out of a pool of 48 trial point group operations.


The static configuration has the point symmetry C_1h.


Analysis of symmetry for dynamics (positions and initial velocities):
=====================================================================
 Subroutine PRICEL returns:
 Original cell was already a primitive cell.
 

 Routine SETGRP: Setting up the symmetry group for a 
 simple cubic supercell.


 Subroutine GETGRP returns: Found  2 space group operations
 (whereof  2 operations were pure point group operations)
 out of a pool of 48 trial point group operations.


The dynamic configuration has the point symmetry C_1h.


Analysis of constrained symmetry for selective dynamics:
=====================================================================
 Subroutine PRICEL returns:
 Original cell was already a primitive cell.
 

 Routine SETGRP: Setting up the symmetry group for a 
 simple cubic supercell.


 Subroutine GETGRP returns: Found  2 space group operations
 (whereof  2 operations were pure point group operations)
 out of a pool of 48 trial point group operations.


The constrained configuration has the point symmetry C_1h.


Analysis of structural, dynamic, and magnetic symmetry:
=====================================================================
 Subroutine PRICEL returns:
 Original cell was already a primitive cell.
 

 Routine SETGRP: Setting up the symmetry group for a 
 simple cubic supercell.


 Subroutine GETGRP returns: Found  2 space group operations
 (whereof  2 operations were pure point group operations)
 out of a pool of 48 trial point group operations.


The magnetic configuration has the point symmetry C_1h.


 Subroutine INISYM returns: Found  2 space group operations
 (whereof  2 operations are pure point group operations),
 and found     1 'primitive' translations

 
 
 KPOINTS: K-Point Grid                            

Automatic generation of k-mesh.
Space group operators:
 irot       det(A)        alpha          n_x          n_y          n_z        tau_x        tau_y        tau_z
    1     1.000000     0.000000     1.000000     0.000000     0.000000     0.000000     0.000000     0.000000
    2    -1.000000   180.000000     0.000000     0.000000     1.000000     0.000000     0.000000     0.000000
 
 Subroutine IBZKPT returns following result:
 ===========================================
 
 Found      1 irreducible k-points:
 
 Following reciprocal coordinates:
            Coordinates               Weight
  0.000000  0.000000  0.000000      1.000000
 
 Following cartesian coordinates:
            Coordinates               Weight
  0.000000  0.000000  0.000000      1.000000
 


--------------------------------------------------------------------------------------------------------




 Dimension of arrays:
   k-points           NKPTS =      1   k-points in BZ     NKDIM =      1   number of bands    NBANDS=     42
   number of dos      NEDOS =    301   number of ions     NIONS =     17
   non local maximal  LDIM  =      4   non local SUM 2l+1 LMDIM =      8
   total plane-waves  NPLWV = ******
   max r-space proj   IRMAX =   4928   max aug-charges    IRDMAX=   5085
   dimension x,y,z NGX =   294 NGY =  294 NGZ =  294
   dimension x,y,z NGXF=   588 NGYF=  588 NGZF=  588
   support grid    NGXF=   588 NGYF=  588 NGZF=  588
   ions per type =               9   1   7
   NGX,Y,Z   is equivalent  to a cutoff of  12.22, 12.22, 12.22 a.u.
   NGXF,Y,Z  is equivalent  to a cutoff of  24.44, 24.44, 24.44 a.u.

 SYSTEM =  103_red                                 
 POSCAR =  C N H                                   

 Startparameter for this run:
   NWRITE =      2    write-flag & timer
   PREC   = accura    normal or accurate (medium, high low for compatibility)
   ISTART =      0    job   : 0-new  1-cont  2-samecut
   ICHARG =      2    charge: 1-file 2-atom 10-const
   ISPIN  =      2    spin polarized calculation?
   LNONCOLLINEAR =      F non collinear calculations
   LSORBIT =      F    spin-orbit coupling
   INIWAV =      1    electr: 0-lowe 1-rand  2-diag
   LASPH  =      F    aspherical Exc in radial PAW
   METAGGA=      F    non-selfconsistent MetaGGA calc.

 Electronic Relaxation 1
   ENCUT  =  500.0 eV  36.75 Ry    6.06 a.u.  72.93 72.93 72.93*2*pi/ulx,y,z
   ENINI  =  500.0     initial cutoff
   ENAUG  =  644.9 eV  augmentation charge cutoff
   NELM   =    100;   NELMIN=  2; NELMDL= -5     # of ELM steps 
   EDIFF  = 0.1E-04   stopping-criterion for ELM
   LREAL  =      T    real-space projection
   NLSPLINE    = F    spline interpolate recip. space projectors
   LCOMPAT=      F    compatible to vasp.4.4
   GGA_COMPAT  = T    GGA compatible to vasp.4.4-vasp.4.6
   LMAXPAW     = -100 max onsite density
   LMAXMIX     =    2 max onsite mixed and CHGCAR
   VOSKOWN=      0    Vosko Wilk Nusair interpolation
   ROPT   =   -0.00025  -0.00025  -0.00025
 Ionic relaxation
   EDIFFG = -.2E-01   stopping-criterion for IOM
   NSW    =    500    number of steps for IOM
   NBLOCK =      1;   KBLOCK =    500    inner block; outer block 
   IBRION =      2    ionic relax: 0-MD 1-quasi-New 2-CG
   NFREE  =      1    steps in history (QN), initial steepest desc. (CG)
   ISIF   =      2    stress and relaxation
   IWAVPR =     11    prediction:  0-non 1-charg 2-wave 3-comb
   ISYM   =      2    0-nonsym 1-usesym 2-fastsym
   LCORR  =      T    Harris-Foulkes like correction to forces

   POTIM  = 0.5000    time-step for ionic-motion
   TEIN   =    0.0    initial temperature
   TEBEG  =    0.0;   TEEND  =   0.0 temperature during run
   SMASS  =  -3.00    Nose mass-parameter (am)
   estimated Nose-frequenzy (Omega)   =  0.10E-29 period in steps =****** mass=  -0.366E-25a.u.
   SCALEE = 1.0000    scale energy and forces
   NPACO  =    256;   APACO  = 16.0  distance and # of slots for P.C.
   PSTRESS=    0.0 pullay stress

  Mass of Ions in am
   POMASS =  12.01 14.00  1.00
  Ionic Valenz
   ZVAL   =   4.00  5.00  1.00
  Atomic Wigner-Seitz radii
   RWIGS  =  -1.00 -1.00 -1.00
  virtual crystal weights 
   VCA    =   1.00  1.00  1.00
   NELECT =      47.0000    total number of electrons
   NUPDOWN=      -1.0000    fix difference up-down

 DOS related values:
   EMIN   =  10.00;   EMAX   =-10.00  energy-range for DOS
   EFERMI =   0.00
   ISMEAR =     0;   SIGMA  =   0.05  broadening in eV -4-tet -1-fermi 0-gaus

 Electronic relaxation 2 (details)
   IALGO  =     68    algorithm
   LDIAG  =      T    sub-space diagonalisation (order eigenvalues)
   LSUBROT=      F    optimize rotation matrix (better conditioning)
   TURBO    =      0    0=normal 1=particle mesh
   IRESTART =      0    0=no restart 2=restart with 2 vectors
   NREBOOT  =      0    no. of reboots
   NMIN     =      0    reboot dimension
   EREF     =   0.00    reference energy to select bands
   IMIX   =      4    mixing-type and parameters
     AMIX     =   0.40;   BMIX     =  1.00
     AMIX_MAG =   1.60;   BMIX_MAG =  1.00
     AMIN     =   0.10
     WC   =   100.;   INIMIX=   1;  MIXPRE=   1;  MAXMIX= -45

 Intra band minimization:
   WEIMIN = 0.0010     energy-eigenvalue tresh-hold
   EBREAK =  0.60E-07  absolut break condition
   DEPER  =   0.30     relativ break condition  

   TIME   =   0.40     timestep for ELM

  volume/ion in A,a.u.               =    3764.71     25405.49
  Fermi-wavevector in a.u.,A,eV,Ry     =   0.147700  0.279113  0.296815  0.021815
  Thomas-Fermi vector in A             =   0.819491
 
 Write flags
   LWAVE        =      T    write WAVECAR
   LDOWNSAMPLE  =      F    k-point downsampling of WAVECAR
   LCHARG       =      F    write CHGCAR
   LVTOT        =      F    write LOCPOT, total local potential
   LVHAR        =      F    write LOCPOT, Hartree potential only
   LELF         =      F    write electronic localiz. function (ELF)
   LORBIT       =      0    0 simple, 1 ext, 2 COOP (PROOUT), +10 PAW based schemes


 Dipole corrections
   LMONO  =      F    monopole corrections only (constant potential shift)
   LDIPOL =      F    correct potential (dipole corrections)
   IDIPOL =      0    1-x, 2-y, 3-z, 4-all directions 
   EPSILON=  1.0000000 bulk dielectric constant

 Exchange correlation treatment:
   GGA     =    --    GGA type
   LEXCH   =     8    internal setting for exchange type
   VOSKOWN=      0    Vosko Wilk Nusair interpolation
   LHFCALC =     F    Hartree Fock is set to
   LHFONE  =     F    Hartree Fock one center treatment
   AEXX    =    0.0000 exact exchange contribution

 Linear response parameters
   LEPSILON=     F    determine dielectric tensor
   LRPA    =     F    only Hartree local field effects (RPA)
   LNABLA  =     F    use nabla operator in PAW spheres
   LVEL    =     F    velocity operator in full k-point grid
   LINTERFAST=   F  fast interpolation
   KINTER  =     0    interpolate to denser k-point grid
   CSHIFT  =0.1000    complex shift for real part using Kramers Kronig
   OMEGAMAX=  -1.0    maximum frequency
   DEG_THRESHOLD= 0.2000000E-02 threshold for treating states as degnerate
   RTIME   =   -0.100 relaxation time in fs
  (WPLASMAI=    0.000 imaginary part of plasma frequency in eV, 0.658/RTIME)
   DFIELD  = 0.0000000 0.0000000 0.0000000 field for delta impulse in time
 
 Orbital magnetization related:
   ORBITALMAG=     F  switch on orbital magnetization
   LCHIMAG   =     F  perturbation theory with respect to B field
   DQ        =  0.001000  dq finite difference perturbation B field
   LLRAUG    =     F  two centre corrections for induced B field

 Solvation model:
   LSOL    =     T         switch on solvation model
   EB_K    = 35.688000     relative permittivity of the bulk solvent
   SIGMA_K =  0.600000     width of the dielectric cavity
   NC_K    =  0.002500     cutoff charge density
   TAU     =  0.000000     cavity surface tension
   LAMBDA_D_K    =  3.040000     Debye length in Angstroms
   LRHOB     =     F     write boundcharge  density
   LRHOION     =     F     write ioniccharge density



--------------------------------------------------------------------------------------------------------


 conjugate gradient relaxation of ions
   using selective dynamics as specified on POSCAR
 charge density and potential will be updated during run
 spin polarized calculation
 RMM-DIIS sequential band-by-band and
  variant of blocked Davidson during initial phase
 perform sub-space diagonalisation
    before iterative eigenvector-optimisation
 modified Broyden-mixing scheme, WC =      100.0
 initial mixing is a Kerker type mixing with AMIX =  0.4000 and BMIX =      1.0000
 Hartree-type preconditioning will be used
 using additional bands           18
 real space projection scheme for non local part
 use partial core corrections
 calculate Harris-corrections to forces 
   (improved forces if not selfconsistent)
 use gradient corrections 
 use of overlap-Matrix (Vanderbilt PP)
 Gauss-broadening in eV      SIGMA  =   0.05


--------------------------------------------------------------------------------------------------------


  energy-cutoff  :      500.00
  volume of cell :    64000.00
      direct lattice vectors                 reciprocal lattice vectors
    40.000000000  0.000000000  0.000000000     0.025000000  0.000000000  0.000000000
     0.000000000 40.000000000  0.000000000     0.000000000  0.025000000  0.000000000
     0.000000000  0.000000000 40.000000000     0.000000000  0.000000000  0.025000000

  length of vectors
    40.000000000 40.000000000 40.000000000     0.025000000  0.025000000  0.025000000


 
 k-points in units of 2pi/SCALE and weight: K-Point Grid                            
   0.00000000  0.00000000  0.00000000       1.000
 
 k-points in reciprocal lattice and weights: K-Point Grid                            
   0.00000000  0.00000000  0.00000000       1.000
 
 position of ions in fractional coordinates (direct lattice) 
   0.52930263  0.46806337  0.50000000
   0.55880578  0.48600105  0.50000000
   0.55820378  0.52145115  0.50000000
   0.52817744  0.53851947  0.50000000
   0.49739949  0.52080931  0.50000000
   0.43971154  0.52159646  0.50000000
   0.43765847  0.48620882  0.50000000
   0.46686089  0.46789247  0.50000000
   0.49801343  0.48488666  0.50000000
   0.46813273  0.53865366  0.50000000
   0.46640119  0.44059227  0.50000000
   0.41322324  0.47412936  0.50000000
   0.41669921  0.53639865  0.50000000
   0.52733318  0.56579278  0.50000000
   0.58171532  0.53528029  0.50000000
   0.58275491  0.47296095  0.50000000
   0.52960779  0.44076227  0.50000000
 
 position of ions in cartesian coordinates  (Angst):
  21.17210516 18.72253470 20.00000000
  22.35223107 19.44004194 20.00000000
  22.32815113 20.85804607 20.00000000
  21.12709752 21.54077897 20.00000000
  19.89597952 20.83237236 20.00000000
  17.58846147 20.86385857 20.00000000
  17.50633868 19.44835288 20.00000000
  18.67443564 18.71569870 20.00000000
  19.92053719 19.39546646 20.00000000
  18.72530912 21.54614653 20.00000000
  18.65604773 17.62369094 20.00000000
  16.52892953 18.96517444 20.00000000
  16.66796824 21.45594587 20.00000000
  21.09332725 22.63171122 20.00000000
  23.26861271 21.41121156 20.00000000
  23.31019652 18.91843810 20.00000000
  21.18431151 17.63049069 20.00000000
 


--------------------------------------------------------------------------------------------------------


 k-point  1 :   0.0000 0.0000 0.0000  plane waves: 1624525

 maximum and minimum number of plane-waves per node :     67702    67669

 maximum number of plane-waves:   1624525
 maximum index in each direction: 
   IXMAX=   72   IYMAX=   72   IZMAX=   72
   IXMIN=  -72   IYMIN=  -72   IZMIN=  -72


 real space projection operators:
  total allocation   :       2061.04 KBytes
  max/ min on nodes  :         93.36         76.05


 parallel 3D FFT for wavefunctions:
    minimum data exchange during FFTs selected (reduces bandwidth)
 parallel 3D FFT for charge:
    minimum data exchange during FFTs selected (reduces bandwidth)


 total amount of memory used by VASP MPI-rank0   746090. kBytes
=======================================================================

   base      :      30000. kBytes
   nonlr-proj:       1525. kBytes
   fftplans  :     182426. kBytes
   grid      :     486647. kBytes
   one-center:          6. kBytes
   wavefun   :      45486. kBytes
 
     INWAV:  cpu time    0.0000: real time    0.0011
 Broyden mixing: mesh for mixing (old mesh)
   NGX =145   NGY =145   NGZ =145
  (NGX  =588   NGY  =588   NGZ  =588)
  gives a total of ****** points

 initial charge density was supplied:
 charge density of overlapping atoms calculated
 number of electron      48.0000000 magnetization      17.0000000
 keeping initial charge density in first step


--------------------------------------------------------------------------------------------------------


 Maximum index for non-local projection operator          231
 Maximum index for augmentation-charges          269 (set IRDMAX)


--------------------------------------------------------------------------------------------------------


 First call to EWALD:  gamma=   0.044
 Maximum number of real-space cells 3x 3x 3
 Maximum number of reciprocal cells 3x 3x 3

    FEWALD:  cpu time    0.0031: real time    0.0031


--------------------------------------- Iteration      1(   1)  ---------------------------------------


    POTLOK:  cpu time  188.5731: real time  188.8262
    SETDIJ:  cpu time    0.1006: real time    0.1009
     EDDAV:  cpu time   18.2098: real time   18.2484
       DOS:  cpu time    0.0004: real time    0.0004
    --------------------------------------------
      LOOP:  cpu time  206.8839: real time  207.1758

 eigenvalue-minimisations  :   200
 total energy-change (2. order) : 0.4730329E+03  (-0.5804863E+03)
 number of electron      48.0000000 magnetization      17.0000000
 augmentation part       48.0000000 magnetization      17.0000000

 Free energy of the ion-electron system (eV)
  ---------------------------------------------------
  alpha Z        PSCENC =         0.16757436
  Ewald energy   TEWEN  =      5007.02479390
  -Hartree energ DENC   =     -6119.75469711
  -exchange      EXHF   =         0.00000000
  -V(xc)+E(xc)   XCENC  =       156.42526884
  PAW double counting   =      1192.90075366    -1199.18915996
  entropy T*S    EENTRO =        -0.08736324
  eigenvalues    EBANDS =      -232.62009535
  atomic energy  EATOM  =      1676.27565366
  Solvation  Ediel_sol  =        -8.10984120
  ---------------------------------------------------
  free energy    TOTEN  =       473.03288757 eV

  energy without entropy =      473.12025081  energy(sigma->0) =      473.07656919


--------------------------------------------------------------------------------------------------------




--------------------------------------- Iteration      1(   2)  ---------------------------------------


     EDDAV:  cpu time   25.7187: real time   25.7808
       DOS:  cpu time    0.0003: real time    0.0003
    --------------------------------------------
      LOOP:  cpu time   25.7190: real time   25.7811

 eigenvalue-minimisations  :   310
 total energy-change (2. order) :-0.2681134E+03  (-0.2455311E+03)
 number of electron      48.0000000 magnetization      17.0000000
 augmentation part       48.0000000 magnetization      17.0000000

 Free energy of the ion-electron system (eV)
  ---------------------------------------------------
  alpha Z        PSCENC =         0.16757436
  Ewald energy   TEWEN  =      5007.02479390
  -Hartree energ DENC   =     -6119.75469711
  -exchange      EXHF   =         0.00000000
  -V(xc)+E(xc)   XCENC  =       156.42526884
  PAW double counting   =      1192.90075366    -1199.18915996
  entropy T*S    EENTRO =        -0.00913705
  eigenvalues    EBANDS =      -500.81170708
  atomic energy  EATOM  =      1676.27565366
  Solvation  Ediel_sol  =        -8.10984120
  ---------------------------------------------------
  free energy    TOTEN  =       204.91950203 eV

  energy without entropy =      204.92863908  energy(sigma->0) =      204.92407055


--------------------------------------------------------------------------------------------------------




--------------------------------------- Iteration      1(   3)  ---------------------------------------


     EDDAV:  cpu time   21.3927: real time   21.4373
       DOS:  cpu time    0.0002: real time    0.0001
    --------------------------------------------
      LOOP:  cpu time   21.3929: real time   21.4374

 eigenvalue-minimisations  :   246
 total energy-change (2. order) :-0.2376995E+03  (-0.2270034E+03)
 number of electron      48.0000000 magnetization      17.0000000
 augmentation part       48.0000000 magnetization      17.0000000

 Free energy of the ion-electron system (eV)
  ---------------------------------------------------
  alpha Z        PSCENC =         0.16757436
  Ewald energy   TEWEN  =      5007.02479390
  -Hartree energ DENC   =     -6119.75469711
  -exchange      EXHF   =         0.00000000
  -V(xc)+E(xc)   XCENC  =       156.42526884
  PAW double counting   =      1192.90075366    -1199.18915996
  entropy T*S    EENTRO =        -0.00000000
  eigenvalues    EBANDS =      -738.52032971
  atomic energy  EATOM  =      1676.27565366
  Solvation  Ediel_sol  =        -8.10984120
  ---------------------------------------------------
  free energy    TOTEN  =       -32.77998356 eV

  energy without entropy =      -32.77998356  energy(sigma->0) =      -32.77998356


--------------------------------------------------------------------------------------------------------




--------------------------------------- Iteration      1(   4)  ---------------------------------------


     EDDAV:  cpu time   20.4976: real time   20.5447
       DOS:  cpu time    0.0002: real time    0.0002
    --------------------------------------------
      LOOP:  cpu time   20.4978: real time   20.5449

 eigenvalue-minimisations  :   234
 total energy-change (2. order) :-0.6475747E+02  (-0.6461229E+02)
 number of electron      48.0000000 magnetization      17.0000000
 augmentation part       48.0000000 magnetization      17.0000000

 Free energy of the ion-electron system (eV)
  ---------------------------------------------------
  alpha Z        PSCENC =         0.16757436
  Ewald energy   TEWEN  =      5007.02479390
  -Hartree energ DENC   =     -6119.75469711
  -exchange      EXHF   =         0.00000000
  -V(xc)+E(xc)   XCENC  =       156.42526884
  PAW double counting   =      1192.90075366    -1199.18915996
  entropy T*S    EENTRO =        -0.00000200
  eigenvalues    EBANDS =      -803.27779737
  atomic energy  EATOM  =      1676.27565366
  Solvation  Ediel_sol  =        -8.10984120
  ---------------------------------------------------
  free energy    TOTEN  =       -97.53745322 eV

  energy without entropy =      -97.53745122  energy(sigma->0) =      -97.53745222


--------------------------------------------------------------------------------------------------------




--------------------------------------- Iteration      1(   5)  ---------------------------------------


     EDDAV:  cpu time   19.5190: real time   19.5595
       DOS:  cpu time    0.0003: real time    0.0003
    CHARGE:  cpu time    6.4704: real time    6.4819
    MIXING:  cpu time    0.1462: real time    0.1463
    --------------------------------------------
      LOOP:  cpu time   26.1359: real time   26.1880

 eigenvalue-minimisations  :   220
 total energy-change (2. order) :-0.2579999E+01  (-0.2565965E+01)
 number of electron      46.9999994 magnetization      16.3835555
 augmentation part        1.2881927 magnetization      15.4681885

 Broyden mixing:
  rms(total) = 0.25999E+01    rms(broyden)= 0.25994E+01
  rms(prec ) = 0.26221E+01
  weight for this iteration     100.00

 Free energy of the ion-electron system (eV)
  ---------------------------------------------------
  alpha Z        PSCENC =         0.16757436
  Ewald energy   TEWEN  =      5007.02479390
  -Hartree energ DENC   =     -6119.75469711
  -exchange      EXHF   =         0.00000000
  -V(xc)+E(xc)   XCENC  =       156.42526884
  PAW double counting   =      1192.90075366    -1199.18915996
  entropy T*S    EENTRO =        -0.00000821
  eigenvalues    EBANDS =      -805.85779039
  atomic energy  EATOM  =      1676.27565366
  Solvation  Ediel_sol  =        -8.10984120
  ---------------------------------------------------
  free energy    TOTEN  =      -100.11745245 eV

  energy without entropy =     -100.11744424  energy(sigma->0) =     -100.11744834


--------------------------------------------------------------------------------------------------------




--------------------------------------- Iteration      1(   6)  ---------------------------------------


    POTLOK:  cpu time  182.4155: real time  182.5448
    SETDIJ:  cpu time    0.0486: real time    0.0486
    EDDIAG:  cpu time    3.6038: real time    3.6108
  RMM-DIIS:  cpu time   13.3173: real time   13.3529
    ORTHCH:  cpu time    0.1325: real time    0.1328
       DOS:  cpu time    0.0002: real time    0.0002
    CHARGE:  cpu time    6.4515: real time    6.4654
    MIXING:  cpu time    0.1637: real time    0.1640
    --------------------------------------------
      LOOP:  cpu time  206.1331: real time  206.3194

 eigenvalue-minimisations  :   168
 total energy-change (2. order) : 0.4401964E+02  (-0.8658666E+01)
 number of electron      46.9999993 magnetization      15.7175799
 augmentation part        1.2779523 magnetization      14.7167734

 Broyden mixing:
  rms(total) = 0.12939E+01    rms(broyden)= 0.12938E+01
  rms(prec ) = 0.13116E+01
  weight for this iteration     100.00

 eigenvalues of (default mixing * dielectric matrix)
  average eigenvalue GAMMA=   0.9484
  0.9484

 Free energy of the ion-electron system (eV)
  ---------------------------------------------------
  alpha Z        PSCENC =         0.16757436
  Ewald energy   TEWEN  =      5007.02479390
  -Hartree energ DENC   =     -6182.46629668
  -exchange      EXHF   =         0.00000000
  -V(xc)+E(xc)   XCENC  =       198.92264555
  PAW double counting   =      2110.74277090    -2117.99657352
  entropy T*S    EENTRO =        -0.00000000
  eigenvalues    EBANDS =      -720.16137647
  atomic energy  EATOM  =      1676.27565366
  Solvation  Ediel_sol  =       -28.60700112
  ---------------------------------------------------
  free energy    TOTEN  =       -56.09780943 eV

  energy without entropy =      -56.09780943  energy(sigma->0) =      -56.09780943


--------------------------------------------------------------------------------------------------------




--------------------------------------- Iteration      1(   7)  ---------------------------------------


    POTLOK:  cpu time  180.0133: real time  180.2599
    SETDIJ:  cpu time    0.0491: real time    0.0492
    EDDIAG:  cpu time    3.6246: real time    3.6322
  RMM-DIIS:  cpu time   13.2388: real time   13.2662
    ORTHCH:  cpu time    0.1339: real time    0.1342
       DOS:  cpu time    0.0003: real time    0.0003
    CHARGE:  cpu time    6.4547: real time    6.4687
    MIXING:  cpu time    0.1741: real time    0.1744
    --------------------------------------------
      LOOP:  cpu time  203.6888: real time  203.9849

 eigenvalue-minimisations  :   168
 total energy-change (2. order) :-0.2764963E+02  (-0.2447256E+01)
 number of electron      46.9999993 magnetization      14.9373754
 augmentation part        1.2202028 magnetization      13.9413039

 Broyden mixing:
  rms(total) = 0.76843E+00    rms(broyden)= 0.76836E+00
  rms(prec ) = 0.77527E+00
  weight for this iteration     100.00

 eigenvalues of (default mixing * dielectric matrix)
  average eigenvalue GAMMA=   1.0927
  0.8040  1.3813

 Free energy of the ion-electron system (eV)
  ---------------------------------------------------
  alpha Z        PSCENC =         0.16757436
  Ewald energy   TEWEN  =      5007.02479390
  -Hartree energ DENC   =     -6227.89694327
  -exchange      EXHF   =         0.00000000
  -V(xc)+E(xc)   XCENC  =       179.01828184
  PAW double counting   =      2962.45627352    -2970.20645272
  entropy T*S    EENTRO =        -0.00000000
  eigenvalues    EBANDS =      -660.69374323
  atomic energy  EATOM  =      1676.27565366
  Solvation  Ediel_sol  =       -49.89287612
  ---------------------------------------------------
  free energy    TOTEN  =       -83.74743806 eV

  energy without entropy =      -83.74743806  energy(sigma->0) =      -83.74743806


--------------------------------------------------------------------------------------------------------




--------------------------------------- Iteration      1(   8)  ---------------------------------------


    POTLOK:  cpu time  182.4566: real time  182.5931
    SETDIJ:  cpu time    0.0465: real time    0.0464
    EDDIAG:  cpu time    3.6225: real time    3.6297
  RMM-DIIS:  cpu time   13.2654: real time   13.2917
    ORTHCH:  cpu time    0.1369: real time    0.1372
       DOS:  cpu time    0.0003: real time    0.0003
    CHARGE:  cpu time    6.4758: real time    6.4895
    MIXING:  cpu time    0.1830: real time    0.1830
    --------------------------------------------
      LOOP:  cpu time  206.1869: real time  206.3709

 eigenvalue-minimisations  :   168
 total energy-change (2. order) :-0.7305429E+01  (-0.5343050E+00)
 number of electron      46.9999993 magnetization      14.0726220
 augmentation part        1.1945043 magnetization      13.0882208

 Broyden mixing:
  rms(total) = 0.44689E+00    rms(broyden)= 0.44686E+00
  rms(prec ) = 0.45111E+00
  weight for this iteration     100.00

 eigenvalues of (default mixing * dielectric matrix)
  average eigenvalue GAMMA=   1.2562
  2.0129  1.0551  0.7007

 Free energy of the ion-electron system (eV)
  ---------------------------------------------------
  alpha Z        PSCENC =         0.16757436
  Ewald energy   TEWEN  =      5007.02479390
  -Hartree energ DENC   =     -6243.05358712
  -exchange      EXHF   =         0.00000000
  -V(xc)+E(xc)   XCENC  =       174.57515672
  PAW double counting   =      3709.35792814    -3717.23695942
  entropy T*S    EENTRO =        -0.00000018
  eigenvalues    EBANDS =      -626.75233310
  atomic energy  EATOM  =      1676.27565366
  Solvation  Ediel_sol  =       -71.41109428
  ---------------------------------------------------
  free energy    TOTEN  =       -91.05286733 eV

  energy without entropy =      -91.05286715  energy(sigma->0) =      -91.05286724


--------------------------------------------------------------------------------------------------------




--------------------------------------- Iteration      1(   9)  ---------------------------------------


    POTLOK:  cpu time  182.4450: real time  182.6051
    SETDIJ:  cpu time    0.0519: real time    0.0520
    EDDIAG:  cpu time    3.6258: real time    3.6331
  RMM-DIIS:  cpu time   13.2258: real time   13.2526
    ORTHCH:  cpu time    0.1316: real time    0.1319
       DOS:  cpu time    0.0003: real time    0.0003
    CHARGE:  cpu time    6.4590: real time    6.4733
    MIXING:  cpu time    0.1972: real time    0.1975
    --------------------------------------------
      LOOP:  cpu time  206.1366: real time  206.3456

 eigenvalue-minimisations  :   168
 total energy-change (2. order) :-0.8093104E+01  (-0.3108027E+00)
 number of electron      46.9999993 magnetization      13.3103570
 augmentation part        1.1838635 magnetization      12.3373581

 Broyden mixing:
  rms(total) = 0.26634E+00    rms(broyden)= 0.26632E+00
  rms(prec ) = 0.27028E+00
  weight for this iteration     100.00

 eigenvalues of (default mixing * dielectric matrix)
  average eigenvalue GAMMA=   1.3103
  2.2850  1.4499  0.8538  0.6524

 Free energy of the ion-electron system (eV)
  ---------------------------------------------------
  alpha Z        PSCENC =         0.16757436
  Ewald energy   TEWEN  =      5007.02479390
  -Hartree energ DENC   =     -6237.47988018
  -exchange      EXHF   =         0.00000000
  -V(xc)+E(xc)   XCENC  =       168.66026706
  PAW double counting   =      4167.17864480    -4174.99351616
  entropy T*S    EENTRO =        -0.00000492
  eigenvalues    EBANDS =      -616.95838245
  atomic energy  EATOM  =      1676.27565366
  Solvation  Ediel_sol  =       -89.02112178
  ---------------------------------------------------
  free energy    TOTEN  =       -99.14597172 eV

  energy without entropy =      -99.14596680  energy(sigma->0) =      -99.14596926


--------------------------------------------------------------------------------------------------------




--------------------------------------- Iteration      1(  10)  ---------------------------------------


    POTLOK:  cpu time  175.7098: real time  175.8633
    SETDIJ:  cpu time    0.0491: real time    0.0491
    EDDIAG:  cpu time    3.5998: real time    3.6062
  RMM-DIIS:  cpu time   13.2729: real time   13.2989
    ORTHCH:  cpu time    0.1306: real time    0.1309
       DOS:  cpu time    0.0004: real time    0.0004
    CHARGE:  cpu time    6.4526: real time    6.4689
    MIXING:  cpu time    0.2022: real time    0.2024
    --------------------------------------------
      LOOP:  cpu time  199.4174: real time  199.6202

 eigenvalue-minimisations  :   168
 total energy-change (2. order) :-0.3383348E+01  (-0.1023177E+00)
 number of electron      46.9999993 magnetization      12.5043372
 augmentation part        1.1797865 magnetization      11.5421527

 Broyden mixing:
  rms(total) = 0.18929E+00    rms(broyden)= 0.18928E+00
  rms(prec ) = 0.19284E+00
  weight for this iteration     100.00

 eigenvalues of (default mixing * dielectric matrix)
  average eigenvalue GAMMA=   1.2973
  2.4082  1.7378  0.9010  0.8119  0.6278

 Free energy of the ion-electron system (eV)
  ---------------------------------------------------
  alpha Z        PSCENC =         0.16757436
  Ewald energy   TEWEN  =      5007.02479390
  -Hartree energ DENC   =     -6224.98128064
  -exchange      EXHF   =         0.00000000
  -V(xc)+E(xc)   XCENC  =       165.84925758
  PAW double counting   =      4297.67322878    -4305.40419797
  entropy T*S    EENTRO =        -0.00008632
  eigenvalues    EBANDS =      -620.21827396
  atomic energy  EATOM  =      1676.27565366
  Solvation  Ediel_sol  =       -98.91598955
  ---------------------------------------------------
  free energy    TOTEN  =      -102.52932018 eV

  energy without entropy =     -102.52923386  energy(sigma->0) =     -102.52927702


--------------------------------------------------------------------------------------------------------




--------------------------------------- Iteration      1(  11)  ---------------------------------------


    POTLOK:  cpu time  171.3038: real time  171.4492
    SETDIJ:  cpu time    0.0490: real time    0.0490
    EDDIAG:  cpu time    3.6069: real time    3.6142
  RMM-DIIS:  cpu time   13.2267: real time   13.2541
    ORTHCH:  cpu time    0.1339: real time    0.1342
       DOS:  cpu time    0.0003: real time    0.0003
    CHARGE:  cpu time    6.4276: real time    6.4537
    MIXING:  cpu time    0.2200: real time    0.2203
    --------------------------------------------
      LOOP:  cpu time  194.9683: real time  195.1750

 eigenvalue-minimisations  :   168
 total energy-change (2. order) :-0.1933991E+01  (-0.4890597E-01)
 number of electron      46.9999992 magnetization      11.1991313
 augmentation part        1.1780115 magnetization      10.2438103

 Broyden mixing:
  rms(total) = 0.14799E+00    rms(broyden)= 0.14798E+00
  rms(prec ) = 0.15097E+00
  weight for this iteration     100.00

 eigenvalues of (default mixing * dielectric matrix)
  average eigenvalue GAMMA=   1.4075
  2.4118  2.4118  1.2670  0.9752  0.7558  0.6236

 Free energy of the ion-electron system (eV)
  ---------------------------------------------------
  alpha Z        PSCENC =         0.16757436
  Ewald energy   TEWEN  =      5007.02479390
  -Hartree energ DENC   =     -6211.87708936
  -exchange      EXHF   =         0.00000000
  -V(xc)+E(xc)   XCENC  =       164.07639509
  PAW double counting   =      4301.85268029    -4309.53925761
  entropy T*S    EENTRO =        -0.00023744
  eigenvalues    EBANDS =      -625.88819165
  atomic energy  EATOM  =      1676.27565366
  Solvation  Ediel_sol  =      -106.55563258
  ---------------------------------------------------
  free energy    TOTEN  =      -104.46331134 eV

  energy without entropy =     -104.46307390  energy(sigma->0) =     -104.46319262


--------------------------------------------------------------------------------------------------------




--------------------------------------- Iteration      1(  12)  ---------------------------------------


    POTLOK:  cpu time  173.4817: real time  173.6846
    SETDIJ:  cpu time    0.0496: real time    0.0497
    EDDIAG:  cpu time    3.5928: real time    3.5989
  RMM-DIIS:  cpu time   13.1842: real time   13.2136
    ORTHCH:  cpu time    0.1306: real time    0.1309
       DOS:  cpu time    0.0004: real time    0.0004
    CHARGE:  cpu time    6.4383: real time    6.4522
    MIXING:  cpu time    0.2227: real time    0.2230
    --------------------------------------------
      LOOP:  cpu time  197.1002: real time  197.3532

 eigenvalue-minimisations  :   168
 total energy-change (2. order) :-0.1963315E+01  (-0.5862992E-01)
 number of electron      46.9999992 magnetization       9.7760359
 augmentation part        1.1779282 magnetization       8.8272627

 Broyden mixing:
  rms(total) = 0.99507E-01    rms(broyden)= 0.99503E-01
  rms(prec ) = 0.10167E+00
  weight for this iteration     100.00

 eigenvalues of (default mixing * dielectric matrix)
  average eigenvalue GAMMA=   1.5789
  3.9249  2.3397  1.6295  0.9159  0.8429  0.7738  0.6259

 Free energy of the ion-electron system (eV)
  ---------------------------------------------------
  alpha Z        PSCENC =         0.16757436
  Ewald energy   TEWEN  =      5007.02479390
  -Hartree energ DENC   =     -6193.85397918
  -exchange      EXHF   =         0.00000000
  -V(xc)+E(xc)   XCENC  =       162.18860629
  PAW double counting   =      4261.63783684    -4269.30822249
  entropy T*S    EENTRO =        -0.00016762
  eigenvalues    EBANDS =      -633.05641982
  atomic energy  EATOM  =      1676.27565366
  Solvation  Ediel_sol  =      -117.50230265
  ---------------------------------------------------
  free energy    TOTEN  =      -106.42662672 eV

  energy without entropy =     -106.42645911  energy(sigma->0) =     -106.42654292


--------------------------------------------------------------------------------------------------------




--------------------------------------- Iteration      1(  13)  ---------------------------------------


    POTLOK:  cpu time  173.3519: real time  173.5764
    SETDIJ:  cpu time    0.0486: real time    0.0487
    EDDIAG:  cpu time    3.6106: real time    3.6179
  RMM-DIIS:  cpu time   13.3099: real time   13.3377
    ORTHCH:  cpu time    0.1312: real time    0.1315
       DOS:  cpu time    0.0005: real time    0.0005
    CHARGE:  cpu time    6.4349: real time    6.4487
    MIXING:  cpu time    0.2470: real time    0.2472
    --------------------------------------------
      LOOP:  cpu time  197.1347: real time  197.4086

 eigenvalue-minimisations  :   168
 total energy-change (2. order) :-0.1133336E+01  (-0.4291275E-01)
 number of electron      46.9999992 magnetization       8.9021578
 augmentation part        1.1771056 magnetization       7.9584129

 Broyden mixing:
  rms(total) = 0.63461E-01    rms(broyden)= 0.63457E-01
  rms(prec ) = 0.64740E-01
  weight for this iteration     100.00

 eigenvalues of (default mixing * dielectric matrix)
  average eigenvalue GAMMA=   1.7525
  5.6856  2.0785  2.0785  1.0020  1.0020  0.8637  0.6217  0.6881

 Free energy of the ion-electron system (eV)
  ---------------------------------------------------
  alpha Z        PSCENC =         0.16757436
  Ewald energy   TEWEN  =      5007.02479390
  -Hartree energ DENC   =     -6177.71993267
  -exchange      EXHF   =         0.00000000
  -V(xc)+E(xc)   XCENC  =       161.03293384
  PAW double counting   =      4226.90430604    -4234.58720177
  entropy T*S    EENTRO =        -0.00018102
  eigenvalues    EBANDS =      -638.02114313
  atomic energy  EATOM  =      1676.27565366
  Solvation  Ediel_sol  =      -128.63676568
  ---------------------------------------------------
  free energy    TOTEN  =      -107.55996247 eV

  energy without entropy =     -107.55978145  energy(sigma->0) =     -107.55987196


--------------------------------------------------------------------------------------------------------




--------------------------------------- Iteration      1(  14)  ---------------------------------------


    POTLOK:  cpu time  168.9964: real time  169.1940
    SETDIJ:  cpu time    0.0497: real time    0.0498
    EDDIAG:  cpu time    3.5872: real time    3.5943
  RMM-DIIS:  cpu time   13.1870: real time   13.2132
    ORTHCH:  cpu time    0.1288: real time    0.1291
       DOS:  cpu time    0.0006: real time    0.0006
    CHARGE:  cpu time    6.4320: real time    6.4463
    MIXING:  cpu time    0.2478: real time    0.2482
    --------------------------------------------
      LOOP:  cpu time  192.6296: real time  192.8755

 eigenvalue-minimisations  :   169
 total energy-change (2. order) :-0.4183644E+00  (-0.1113229E-01)
 number of electron      46.9999992 magnetization       8.0695697
 augmentation part        1.1755676 magnetization       7.1290962

 Broyden mixing:
  rms(total) = 0.48205E-01    rms(broyden)= 0.48201E-01
  rms(prec ) = 0.48917E-01
  weight for this iteration     100.00

 eigenvalues of (default mixing * dielectric matrix)
  average eigenvalue GAMMA=   1.7993
  6.6131  2.1328  2.1328  1.3513  0.9368  0.9368  0.8017  0.6685  0.6202

 Free energy of the ion-electron system (eV)
  ---------------------------------------------------
  alpha Z        PSCENC =         0.16757436
  Ewald energy   TEWEN  =      5007.02479390
  -Hartree energ DENC   =     -6170.27730041
  -exchange      EXHF   =         0.00000000
  -V(xc)+E(xc)   XCENC  =       160.59128788
  PAW double counting   =      4216.63861315    -4224.33360527
  entropy T*S    EENTRO =        -0.00044897
  eigenvalues    EBANDS =      -639.53552345
  atomic energy  EATOM  =      1676.27565366
  Solvation  Ediel_sol  =      -134.52937171
  ---------------------------------------------------
  free energy    TOTEN  =      -107.97832686 eV

  energy without entropy =     -107.97787789  energy(sigma->0) =     -107.97810238


--------------------------------------------------------------------------------------------------------




--------------------------------------- Iteration      1(  15)  ---------------------------------------


    POTLOK:  cpu time  164.5903: real time  164.7749
    SETDIJ:  cpu time    0.0488: real time    0.0488
    EDDIAG:  cpu time    3.6173: real time    3.6242
  RMM-DIIS:  cpu time   13.1475: real time   13.1737
    ORTHCH:  cpu time    0.1312: real time    0.1315
       DOS:  cpu time    0.0003: real time    0.0003
    CHARGE:  cpu time    6.4361: real time    6.4492
    MIXING:  cpu time    0.2636: real time    0.2639
    --------------------------------------------
      LOOP:  cpu time  188.2351: real time  188.4665

 eigenvalue-minimisations  :   169
 total energy-change (2. order) :-0.3378953E+00  (-0.2855864E-02)
 number of electron      46.9999992 magnetization       7.1808910
 augmentation part        1.1757947 magnetization       6.2421680

 Broyden mixing:
  rms(total) = 0.37467E-01    rms(broyden)= 0.37465E-01
  rms(prec ) = 0.37816E-01
  weight for this iteration     100.00

 eigenvalues of (default mixing * dielectric matrix)
  average eigenvalue GAMMA=   1.8695
  7.3354  2.3648  2.3648  1.7116  0.9703  0.9703  0.9553  0.7516  0.6244  0.6468

 Free energy of the ion-electron system (eV)
  ---------------------------------------------------
  alpha Z        PSCENC =         0.16757436
  Ewald energy   TEWEN  =      5007.02479390
  -Hartree energ DENC   =     -6164.30414706
  -exchange      EXHF   =         0.00000000
  -V(xc)+E(xc)   XCENC  =       160.20646048
  PAW double counting   =      4210.21125144    -4217.90868863
  entropy T*S    EENTRO =        -0.00035851
  eigenvalues    EBANDS =      -640.79627173
  atomic energy  EATOM  =      1676.27565366
  Solvation  Ediel_sol  =      -139.19249003
  ---------------------------------------------------
  free energy    TOTEN  =      -108.31622212 eV

  energy without entropy =     -108.31586362  energy(sigma->0) =     -108.31604287


--------------------------------------------------------------------------------------------------------




--------------------------------------- Iteration      1(  16)  ---------------------------------------


    POTLOK:  cpu time  164.4954: real time  164.6469
    SETDIJ:  cpu time    0.0494: real time    0.0495
    EDDIAG:  cpu time    3.6085: real time    3.6160
  RMM-DIIS:  cpu time   13.1700: real time   13.1977
    ORTHCH:  cpu time    0.1317: real time    0.1321
       DOS:  cpu time    0.0003: real time    0.0003
    CHARGE:  cpu time    6.4401: real time    6.4543
    MIXING:  cpu time    0.2784: real time    0.2788
    --------------------------------------------
      LOOP:  cpu time  188.1739: real time  188.3755

 eigenvalue-minimisations  :   168
 total energy-change (2. order) :-0.1591506E+00  (-0.7110654E-03)
 number of electron      46.9999992 magnetization       6.3325196
 augmentation part        1.1758686 magnetization       5.3941844

 Broyden mixing:
  rms(total) = 0.28225E-01    rms(broyden)= 0.28224E-01
  rms(prec ) = 0.28337E-01
  weight for this iteration     100.00

 eigenvalues of (default mixing * dielectric matrix)
  average eigenvalue GAMMA=   2.0003
  8.4014  3.4901  2.2276  1.9457  1.1759  0.9528  0.9528  0.8513  0.7399  0.6249
  0.6404

 Free energy of the ion-electron system (eV)
  ---------------------------------------------------
  alpha Z        PSCENC =         0.16757436
  Ewald energy   TEWEN  =      5007.02479390
  -Hartree energ DENC   =     -6159.95680276
  -exchange      EXHF   =         0.00000000
  -V(xc)+E(xc)   XCENC  =       160.02899042
  PAW double counting   =      4216.00478907    -4223.70223854
  entropy T*S    EENTRO =        -0.00021243
  eigenvalues    EBANDS =      -641.06598228
  atomic energy  EATOM  =      1676.27565366
  Solvation  Ediel_sol  =      -143.25193811
  ---------------------------------------------------
  free energy    TOTEN  =      -108.47537270 eV

  energy without entropy =     -108.47516028  energy(sigma->0) =     -108.47526649


--------------------------------------------------------------------------------------------------------




--------------------------------------- Iteration      1(  17)  ---------------------------------------


    POTLOK:  cpu time  160.0328: real time  160.1418
    SETDIJ:  cpu time    0.0472: real time    0.0472
    EDDIAG:  cpu time    3.6021: real time    3.6089
  RMM-DIIS:  cpu time   13.3997: real time   13.4262
    ORTHCH:  cpu time    0.1325: real time    0.1327
       DOS:  cpu time    0.0003: real time    0.0003
    CHARGE:  cpu time    6.4279: real time    6.4414
    MIXING:  cpu time    0.3012: real time    0.3017
    --------------------------------------------
      LOOP:  cpu time  183.9436: real time  184.1002

 eigenvalue-minimisations  :   170
 total energy-change (2. order) :-0.9910302E-01  (-0.1829888E-03)
 number of electron      46.9999992 magnetization       5.6642812
 augmentation part        1.1758149 magnetization       4.7260699

 Broyden mixing:
  rms(total) = 0.22960E-01    rms(broyden)= 0.22960E-01
  rms(prec ) = 0.23001E-01
  weight for this iteration     100.00

 eigenvalues of (default mixing * dielectric matrix)
  average eigenvalue GAMMA=   2.0367
  8.9858  4.0254  2.1182  2.1182  1.3425  0.9896  0.9896  0.9821  0.8855  0.7383
  0.6235  0.6414

 Free energy of the ion-electron system (eV)
  ---------------------------------------------------
  alpha Z        PSCENC =         0.16757436
  Ewald energy   TEWEN  =      5007.02479390
  -Hartree energ DENC   =     -6156.74755645
  -exchange      EXHF   =         0.00000000
  -V(xc)+E(xc)   XCENC  =       159.91351332
  PAW double counting   =      4220.72127093    -4228.41721930
  entropy T*S    EENTRO =        -0.00024135
  eigenvalues    EBANDS =      -641.11635296
  atomic energy  EATOM  =      1676.27565366
  Solvation  Ediel_sol  =      -146.39591183
  ---------------------------------------------------
  free energy    TOTEN  =      -108.57447572 eV

  energy without entropy =     -108.57423437  energy(sigma->0) =     -108.57435505


--------------------------------------------------------------------------------------------------------




--------------------------------------- Iteration      1(  18)  ---------------------------------------


    POTLOK:  cpu time  160.0790: real time  160.2100
    SETDIJ:  cpu time    0.0487: real time    0.0487
    EDDIAG:  cpu time    3.6095: real time    3.6161
  RMM-DIIS:  cpu time   13.1784: real time   13.2044
    ORTHCH:  cpu time    0.1333: real time    0.1336
       DOS:  cpu time    0.0003: real time    0.0003
    CHARGE:  cpu time    6.4373: real time    6.4510
    MIXING:  cpu time    0.3164: real time    0.3167
    --------------------------------------------
      LOOP:  cpu time  183.8030: real time  183.9809

 eigenvalue-minimisations  :   168
 total energy-change (2. order) :-0.4029017E-01  (-0.7169342E-04)
 number of electron      46.9999992 magnetization       4.8498908
 augmentation part        1.1759550 magnetization       3.9116801

 Broyden mixing:
  rms(total) = 0.19454E-01    rms(broyden)= 0.19454E-01
  rms(prec ) = 0.19473E-01
  weight for this iteration     100.00

 eigenvalues of (default mixing * dielectric matrix)
  average eigenvalue GAMMA=   2.1048
  9.6495  4.7325  2.2669  2.2669  1.7647  0.9677  0.9677  1.0076  0.8887  0.8671
  0.7225  0.6241  0.6359

 Free energy of the ion-electron system (eV)
  ---------------------------------------------------
  alpha Z        PSCENC =         0.16757436
  Ewald energy   TEWEN  =      5007.02479390
  -Hartree energ DENC   =     -6155.52571092
  -exchange      EXHF   =         0.00000000
  -V(xc)+E(xc)   XCENC  =       159.86406898
  PAW double counting   =      4223.32545472    -4231.02019406
  entropy T*S    EENTRO =        -0.00021015
  eigenvalues    EBANDS =      -640.95288141
  atomic energy  EATOM  =      1676.27565366
  Solvation  Ediel_sol  =      -147.77331496
  ---------------------------------------------------
  free energy    TOTEN  =      -108.61476589 eV

  energy without entropy =     -108.61455574  energy(sigma->0) =     -108.61466082


--------------------------------------------------------------------------------------------------------




--------------------------------------- Iteration      1(  19)  ---------------------------------------


    POTLOK:  cpu time  157.8694: real time  158.0038
    SETDIJ:  cpu time    0.0481: real time    0.0480
    EDDIAG:  cpu time    3.6097: real time    3.6170
  RMM-DIIS:  cpu time   13.2310: real time   13.2570
    ORTHCH:  cpu time    0.1366: real time    0.1369
       DOS:  cpu time    0.0004: real time    0.0004
    CHARGE:  cpu time    6.4372: real time    6.4506
    MIXING:  cpu time    0.3371: real time    0.3376
    --------------------------------------------
      LOOP:  cpu time  181.6694: real time  181.8511

 eigenvalue-minimisations  :   167
 total energy-change (2. order) :-0.2078021E-01  (-0.2995599E-04)
 number of electron      46.9999992 magnetization       4.0716286
 augmentation part        1.1760094 magnetization       3.1333615

 Broyden mixing:
  rms(total) = 0.16275E-01    rms(broyden)= 0.16275E-01
  rms(prec ) = 0.16308E-01
  weight for this iteration     100.00

 eigenvalues of (default mixing * dielectric matrix)
  average eigenvalue GAMMA=   2.1484
 10.1754  5.2977  2.4585  2.4585  1.8913  1.2214  1.0043  1.0043  0.8959  0.8959
  0.7973  0.7202  0.6236  0.6339

 Free energy of the ion-electron system (eV)
  ---------------------------------------------------
  alpha Z        PSCENC =         0.16757436
  Ewald energy   TEWEN  =      5007.02479390
  -Hartree energ DENC   =     -6154.66056405
  -exchange      EXHF   =         0.00000000
  -V(xc)+E(xc)   XCENC  =       159.84168950
  PAW double counting   =      4226.28374597    -4233.97790041
  entropy T*S    EENTRO =        -0.00019517
  eigenvalues    EBANDS =      -640.68255797
  atomic energy  EATOM  =      1676.27565366
  Solvation  Ediel_sol  =      -148.90778589
  ---------------------------------------------------
  free energy    TOTEN  =      -108.63554610 eV

  energy without entropy =     -108.63535093  energy(sigma->0) =     -108.63544852


--------------------------------------------------------------------------------------------------------




--------------------------------------- Iteration      1(  20)  ---------------------------------------


    POTLOK:  cpu time  153.3210: real time  153.5267
    SETDIJ:  cpu time    0.0475: real time    0.0475
    EDDIAG:  cpu time    3.6002: real time    3.6075
  RMM-DIIS:  cpu time   13.2619: real time   13.2885
    ORTHCH:  cpu time    0.1298: real time    0.1301
       DOS:  cpu time    0.0004: real time    0.0004
    CHARGE:  cpu time    6.4392: real time    6.4533
    MIXING:  cpu time    0.3517: real time    0.3523
    --------------------------------------------
      LOOP:  cpu time  177.1517: real time  177.4063

 eigenvalue-minimisations  :   168
 total energy-change (2. order) :-0.6279556E-02  (-0.3280526E-04)
 number of electron      46.9999992 magnetization       3.1419769
 augmentation part        1.1759711 magnetization       2.2037839

 Broyden mixing:
  rms(total) = 0.13474E-01    rms(broyden)= 0.13474E-01
  rms(prec ) = 0.13517E-01
  weight for this iteration     100.00

 eigenvalues of (default mixing * dielectric matrix)
  average eigenvalue GAMMA=   2.2133
 10.7838  6.0309  3.2233  2.1250  2.1250  1.4648  0.9919  0.9919  0.9590  0.9590
  0.8609  0.7402  0.6933  0.6203  0.6305

 Free energy of the ion-electron system (eV)
  ---------------------------------------------------
  alpha Z        PSCENC =         0.16757436
  Ewald energy   TEWEN  =      5007.02479390
  -Hartree energ DENC   =     -6154.44320621
  -exchange      EXHF   =         0.00000000
  -V(xc)+E(xc)   XCENC  =       159.83629547
  PAW double counting   =      4224.16847032    -4231.86340980
  entropy T*S    EENTRO =        -0.00023409
  eigenvalues    EBANDS =      -640.64920336
  atomic energy  EATOM  =      1676.27565366
  Solvation  Ediel_sol  =      -149.15855991
  ---------------------------------------------------
  free energy    TOTEN  =      -108.64182566 eV

  energy without entropy =     -108.64159157  energy(sigma->0) =     -108.64170861


--------------------------------------------------------------------------------------------------------




--------------------------------------- Iteration      1(  21)  ---------------------------------------


    POTLOK:  cpu time  153.4333: real time  153.5707
    SETDIJ:  cpu time    0.0463: real time    0.0462
    EDDIAG:  cpu time    3.6060: real time    3.6130
  RMM-DIIS:  cpu time   13.3022: real time   13.3285
    ORTHCH:  cpu time    0.1333: real time    0.1336
       DOS:  cpu time    0.0004: real time    0.0004
    CHARGE:  cpu time    6.4362: real time    6.4499
    MIXING:  cpu time    0.3689: real time    0.3693
    --------------------------------------------
      LOOP:  cpu time  177.3265: real time  177.5116

 eigenvalue-minimisations  :   167
 total energy-change (2. order) :-0.5746126E-02  (-0.6508691E-04)
 number of electron      46.9999992 magnetization       2.2363291
 augmentation part        1.1759296 magnetization       1.2982046

 Broyden mixing:
  rms(total) = 0.10257E-01    rms(broyden)= 0.10257E-01
  rms(prec ) = 0.10322E-01
  weight for this iteration     100.00

 eigenvalues of (default mixing * dielectric matrix)
  average eigenvalue GAMMA=   2.3574
 11.8927  7.1151  3.8982  2.2676  2.2676  1.7729  1.1333  1.0069  1.0069  0.9307
  0.9307  0.8240  0.7483  0.6788  0.6184  0.6264

 Free energy of the ion-electron system (eV)
  ---------------------------------------------------
  alpha Z        PSCENC =         0.16757436
  Ewald energy   TEWEN  =      5007.02479390
  -Hartree energ DENC   =     -6154.54038850
  -exchange      EXHF   =         0.00000000
  -V(xc)+E(xc)   XCENC  =       159.83509874
  PAW double counting   =      4221.97250511    -4229.66843396
  entropy T*S    EENTRO =        -0.00025083
  eigenvalues    EBANDS =      -640.64496328
  atomic energy  EATOM  =      1676.27565366
  Solvation  Ediel_sol  =      -149.06916098
  ---------------------------------------------------
  free energy    TOTEN  =      -108.64757178 eV

  energy without entropy =     -108.64732095  energy(sigma->0) =     -108.64744637


--------------------------------------------------------------------------------------------------------




--------------------------------------- Iteration      1(  22)  ---------------------------------------


    POTLOK:  cpu time  153.4253: real time  153.5429
    SETDIJ:  cpu time    0.0496: real time    0.0496
    EDDIAG:  cpu time    3.6095: real time    3.6167
  RMM-DIIS:  cpu time   13.3035: real time   13.3300
    ORTHCH:  cpu time    0.1329: real time    0.1332
       DOS:  cpu time    0.0003: real time    0.0003
    CHARGE:  cpu time    6.4392: real time    6.4527
    MIXING:  cpu time    0.4070: real time    0.4077
    --------------------------------------------
      LOOP:  cpu time  177.3673: real time  177.5331

 eigenvalue-minimisations  :   166
 total energy-change (2. order) :-0.2669975E-03  (-0.6183013E-04)
 number of electron      46.9999992 magnetization       1.5751776
 augmentation part        1.1759535 magnetization       0.6371007

 Broyden mixing:
  rms(total) = 0.68739E-02    rms(broyden)= 0.68738E-02
  rms(prec ) = 0.69411E-02
  weight for this iteration     100.00

 eigenvalues of (default mixing * dielectric matrix)
  average eigenvalue GAMMA=   2.5426
 14.1771  8.2495  4.4952  2.4090  2.4090  1.9204  1.3177  1.0011  1.0011  0.9520
  0.9520  0.9110  0.7554  0.7554  0.6759  0.6176  0.6243

 Free energy of the ion-electron system (eV)
  ---------------------------------------------------
  alpha Z        PSCENC =         0.16757436
  Ewald energy   TEWEN  =      5007.02479390
  -Hartree energ DENC   =     -6154.93510838
  -exchange      EXHF   =         0.00000000
  -V(xc)+E(xc)   XCENC  =       159.83868133
  PAW double counting   =      4220.61392114    -4228.31052144
  entropy T*S    EENTRO =        -0.00023487
  eigenvalues    EBANDS =      -640.68718719
  atomic energy  EATOM  =      1676.27565366
  Solvation  Ediel_sol  =      -148.63541127
  ---------------------------------------------------
  free energy    TOTEN  =      -108.64783878 eV

  energy without entropy =     -108.64760391  energy(sigma->0) =     -108.64772135


--------------------------------------------------------------------------------------------------------




--------------------------------------- Iteration      1(  23)  ---------------------------------------


    POTLOK:  cpu time  151.1934: real time  151.3705
    SETDIJ:  cpu time    0.0522: real time    0.0523
    EDDIAG:  cpu time    3.6087: real time    3.6161
  RMM-DIIS:  cpu time   12.4170: real time   12.4418
    ORTHCH:  cpu time    0.1303: real time    0.1306
       DOS:  cpu time    0.0004: real time    0.0004
    CHARGE:  cpu time    6.4300: real time    6.4440
    MIXING:  cpu time    0.4111: real time    0.4124
    --------------------------------------------
      LOOP:  cpu time  174.2431: real time  174.4681

 eigenvalue-minimisations  :   155
 total energy-change (2. order) :-0.1366058E-01  (-0.2275087E-04)
 number of electron      46.9999992 magnetization       1.2387463
 augmentation part        1.1759601 magnetization       0.3006714

 Broyden mixing:
  rms(total) = 0.42122E-02    rms(broyden)= 0.42122E-02
  rms(prec ) = 0.42720E-02
  weight for this iteration     100.00

 eigenvalues of (default mixing * dielectric matrix)
  average eigenvalue GAMMA=   2.8189
 18.6355  9.0671  5.0117  2.8543  2.1736  2.1736  1.6009  1.0059  1.0059  1.1037
  0.9493  0.9493  0.8557  0.7577  0.6984  0.6598  0.6129  0.6241

 Free energy of the ion-electron system (eV)
  ---------------------------------------------------
  alpha Z        PSCENC =         0.16757436
  Ewald energy   TEWEN  =      5007.02479390
  -Hartree energ DENC   =     -6155.36228692
  -exchange      EXHF   =         0.00000000
  -V(xc)+E(xc)   XCENC  =       159.82602675
  PAW double counting   =      4220.61478161    -4228.31073264
  entropy T*S    EENTRO =        -0.00022985
  eigenvalues    EBANDS =      -640.73663557
  atomic energy  EATOM  =      1676.27565366
  Solvation  Ediel_sol  =      -148.16044466
  ---------------------------------------------------
  free energy    TOTEN  =      -108.66149937 eV

  energy without entropy =     -108.66126951  energy(sigma->0) =     -108.66138444


--------------------------------------------------------------------------------------------------------




--------------------------------------- Iteration      1(  24)  ---------------------------------------


    POTLOK:  cpu time  148.8389: real time  149.0180
    SETDIJ:  cpu time    0.0467: real time    0.0468
    EDDIAG:  cpu time    3.6108: real time    3.6179
  RMM-DIIS:  cpu time   12.2056: real time   12.2300
    ORTHCH:  cpu time    0.1399: real time    0.1402
       DOS:  cpu time    0.0004: real time    0.0003
    CHARGE:  cpu time    6.4413: real time    6.4549
    MIXING:  cpu time    0.4390: real time    0.4396
    --------------------------------------------
      LOOP:  cpu time  171.7227: real time  171.9478

 eigenvalue-minimisations  :   153
 total energy-change (2. order) :-0.1020086E-01  (-0.1109964E-04)
 number of electron      46.9999992 magnetization       1.1013839
 augmentation part        1.1759443 magnetization       0.1633287

 Broyden mixing:
  rms(total) = 0.24725E-02    rms(broyden)= 0.24725E-02
  rms(prec ) = 0.25143E-02
  weight for this iteration     100.00

 eigenvalues of (default mixing * dielectric matrix)
  average eigenvalue GAMMA=   2.9744
 22.1780  9.3980  5.2985  3.1420  2.2380  2.2380  1.7424  1.2048  1.0075  1.0075
  0.9663  0.9663  0.9759  0.8235  0.7529  0.6884  0.6494  0.6116  0.6245

 Free energy of the ion-electron system (eV)
  ---------------------------------------------------
  alpha Z        PSCENC =         0.16757436
  Ewald energy   TEWEN  =      5007.02479390
  -Hartree energ DENC   =     -6155.65764544
  -exchange      EXHF   =         0.00000000
  -V(xc)+E(xc)   XCENC  =       159.81610253
  PAW double counting   =      4221.67756436    -4229.37273174
  entropy T*S    EENTRO =        -0.00023064
  eigenvalues    EBANDS =      -640.73678954
  atomic energy  EATOM  =      1676.27565366
  Solvation  Ediel_sol  =      -147.86599166
  ---------------------------------------------------
  free energy    TOTEN  =      -108.67170022 eV

  energy without entropy =     -108.67146958  energy(sigma->0) =     -108.67158490


--------------------------------------------------------------------------------------------------------




--------------------------------------- Iteration      1(  25)  ---------------------------------------


    POTLOK:  cpu time  144.5302: real time  144.6351
    SETDIJ:  cpu time    0.0502: real time    0.0503
    EDDIAG:  cpu time    3.5861: real time    3.5924
  RMM-DIIS:  cpu time   11.9530: real time   11.9772
    ORTHCH:  cpu time    0.1337: real time    0.1341
       DOS:  cpu time    0.0003: real time    0.0003
    CHARGE:  cpu time    6.4408: real time    6.4543
    MIXING:  cpu time    0.4614: real time    0.4622
    --------------------------------------------
      LOOP:  cpu time  167.1557: real time  167.3059

 eigenvalue-minimisations  :   148
 total energy-change (2. order) :-0.1194052E-01  (-0.9872397E-05)
 number of electron      46.9999992 magnetization       1.0486776
 augmentation part        1.1759241 magnetization       0.1106181

 Broyden mixing:
  rms(total) = 0.16014E-02    rms(broyden)= 0.16013E-02
  rms(prec ) = 0.16325E-02
  weight for this iteration     100.00

 eigenvalues of (default mixing * dielectric matrix)
  average eigenvalue GAMMA=   3.0182
 24.0178  9.5612  5.4748  3.3908  2.2955  2.2955  1.8830  1.4285  1.0088  1.0088
  1.0931  0.9611  0.9611  0.8903  0.7939  0.7405  0.6789  0.6423  0.6124  0.6248

 Free energy of the ion-electron system (eV)
  ---------------------------------------------------
  alpha Z        PSCENC =         0.16757436
  Ewald energy   TEWEN  =      5007.02479390
  -Hartree energ DENC   =     -6155.83212397
  -exchange      EXHF   =         0.00000000
  -V(xc)+E(xc)   XCENC  =       159.80532752
  PAW double counting   =      4222.71073905    -4230.40574797
  entropy T*S    EENTRO =        -0.00022977
  eigenvalues    EBANDS =      -640.71021007
  atomic energy  EATOM  =      1676.27565366
  Solvation  Ediel_sol  =      -147.71941744
  ---------------------------------------------------
  free energy    TOTEN  =      -108.68364075 eV

  energy without entropy =     -108.68341097  energy(sigma->0) =     -108.68352586


[...]


 Conjugate gradient step on ions:
 trial-energy change:   -0.000034  1 .order   -0.000027   -0.000091    0.000036
  (g-gl).g = 0.243E-03      g.g   = 0.199E-03  gl.gl    = 0.101E-02
 g(Force)  = 0.199E-03   g(Stress)= 0.000E+00 ortho     =-0.232E-04
 gamma     =   0.23986
 trial     =   0.46770
 opt step  =   0.33408  (harmonic =   0.33408) maximal distance =0.00040186
 next E    =  -108.954022   (d E  =  -0.00003)


--------------------------------------------------------------------------------------------------------


    WAVPRE:  cpu time    1.3507: real time    1.3665
    FEWALD:  cpu time    0.0003: real time    0.0003

 real space projection operators:
  total allocation   :       2062.14 KBytes
  max/ min on nodes  :         94.17         76.81

    ORTHCH:  cpu time    1.8596: real time    1.8628
     LOOP+:  cpu time  673.8105: real time  674.6525


--------------------------------------- Iteration     16(   1)  ---------------------------------------


    POTLOK:  cpu time  142.0183: real time  142.2272
    SETDIJ:  cpu time    0.0477: real time    0.0478
     EDDAV:  cpu time   19.9351: real time   19.9782
       DOS:  cpu time    0.0002: real time    0.0002
    CHARGE:  cpu time    6.4462: real time    6.4626
    MIXING:  cpu time    0.1532: real time    0.1534
    --------------------------------------------
      LOOP:  cpu time  168.6007: real time  168.8695

 eigenvalue-minimisations  :   224
 total energy-change (2. order) :-0.1450831E-04  (-0.4308150E-04)
 number of electron      46.9999994 magnetization       1.0000002
 augmentation part        1.1731385 magnetization       0.0612049

 Broyden mixing:
  rms(total) = 0.59147E-03    rms(broyden)= 0.59059E-03
  rms(prec ) = 0.60283E-03
  weight for this iteration     100.00

 Free energy of the ion-electron system (eV)
  ---------------------------------------------------
  alpha Z        PSCENC =         0.16757436
  Ewald energy   TEWEN  =      5002.49052998
  -Hartree energ DENC   =     -6151.90050970
  -exchange      EXHF   =         0.00000000
  -V(xc)+E(xc)   XCENC  =       159.71406741
  PAW double counting   =      4201.56574386    -4209.25181661
  entropy T*S    EENTRO =        -0.00000000
  eigenvalues    EBANDS =      -640.44408234
  atomic energy  EATOM  =      1676.27565366
  Solvation  Ediel_sol  =      -147.40035444
  ---------------------------------------------------
  free energy    TOTEN  =      -108.78319382 eV

  energy without entropy =     -108.78319382  energy(sigma->0) =     -108.78319382


--------------------------------------------------------------------------------------------------------




--------------------------------------- Iteration     16(   2)  ---------------------------------------


    POTLOK:  cpu time  131.0471: real time  131.1559
    SETDIJ:  cpu time    0.0497: real time    0.0498
    EDDIAG:  cpu time    3.5971: real time    3.6043
  RMM-DIIS:  cpu time    9.5261: real time    9.5452
    ORTHCH:  cpu time    0.1332: real time    0.1334
       DOS:  cpu time    0.0002: real time    0.0002
    --------------------------------------------
      LOOP:  cpu time  144.3533: real time  144.4889

 eigenvalue-minimisations  :   116
 total energy-change (2. order) :-0.4261205E-05  (-0.9924738E-06)
 number of electron      46.9999994 magnetization       1.0000002
 augmentation part        1.1731385 magnetization       0.0612049

 Free energy of the ion-electron system (eV)
  ---------------------------------------------------
  alpha Z        PSCENC =         0.16757436
  Ewald energy   TEWEN  =      5002.49052998
  -Hartree energ DENC   =     -6151.90454935
  -exchange      EXHF   =         0.00000000
  -V(xc)+E(xc)   XCENC  =       159.71412400
  PAW double counting   =      4201.50496692    -4209.19105742
  entropy T*S    EENTRO =        -0.00000000
  eigenvalues    EBANDS =      -640.44001618
  atomic energy  EATOM  =      1676.27565366
  Solvation  Ediel_sol  =      -147.40042405
  ---------------------------------------------------
  free energy    TOTEN  =      -108.78319808 eV

  energy without entropy =     -108.78319808  energy(sigma->0) =     -108.78319808


--------------------------------------------------------------------------------------------------------




 average (electrostatic) potential at core
  the test charge radii are     0.6991  0.7089  0.5201
  (the norm of the test charge is              1.0000)
       1 -60.6247       2 -60.1892       3 -60.1539       4 -60.5269       5 -60.8463
       6 -60.5523       7 -60.0041       8 -60.3600       9 -60.3143      10 -74.5088
      11 -43.0247      12 -42.8378      13 -42.7271      14 -43.0643      15 -42.8733
      16 -42.8901      17 -43.1293
 
 
 
 E-fermi :  -6.7458     XC(G=0):  -0.0441     alpha+bet : -0.0184


 spin component 1

 k-point     1 :       0.0000    0.0000    0.0000
  band No.  band energies     occupation 
      1     -24.6995      1.00000
      2     -22.3816      1.00000
      3     -21.1377      1.00000
      4     -19.7431      1.00000
      5     -19.5235      1.00000
      6     -17.0052      1.00000
      7     -16.5530      1.00000
      8     -15.9455      1.00000
      9     -13.9284      1.00000
     10     -13.6113      1.00000
     11     -13.3839      1.00000
     12     -12.0620      1.00000
     13     -11.6938      1.00000
     14     -11.4416      1.00000
     15     -11.4026      1.00000
     16     -10.7100      1.00000
     17     -10.5644      1.00000
     18      -9.7472      1.00000
     19      -9.6927      1.00000
     20      -9.3283      1.00000
     21      -8.8950      1.00000
     22      -7.4962      1.00000
     23      -7.2460      1.00000
     24      -7.0206      1.00000
     25      -3.8765      0.00000
     26      -2.4476      0.00000
     27      -2.0889      0.00000
     28      -0.4307      0.00000
     29      -0.1922      0.00000
     30      -0.1214      0.00000
     31      -0.0130      0.00000
     32      -0.0051      0.00000
     33       0.0623      0.00000
     34       0.0754      0.00000
     35       0.0805      0.00000
     36       0.0940      0.00000
     37       0.0998      0.00000
     38       0.1107      0.00000
     39       0.1329      0.00000
     40       0.1681      0.00000
     41       0.1697      0.00000
     42       0.1720      0.00000

 spin component 2

 k-point     1 :       0.0000    0.0000    0.0000
  band No.  band energies     occupation 
      1     -24.5925      1.00000
      2     -22.2104      1.00000
      3     -21.0006      1.00000
      4     -19.7018      1.00000
      5     -19.2460      1.00000
      6     -16.9136      1.00000
      7     -16.4691      1.00000
      8     -15.8289      1.00000
      9     -13.8440      1.00000
     10     -13.5424      1.00000
     11     -13.3306      1.00000
     12     -12.0457      1.00000
     13     -11.6179      1.00000
     14     -11.3765      1.00000
     15     -11.1612      1.00000
     16     -10.6542      1.00000
     17     -10.5359      1.00000
     18      -9.6538      1.00000
     19      -9.3715      1.00000
     20      -9.2740      1.00000
     21      -8.4807      1.00000
     22      -7.4228      1.00000
     23      -6.9525      1.00000
     24      -6.5390      0.00000
     25      -3.3810      0.00000
     26      -2.3128      0.00000
     27      -1.6437      0.00000
     28      -0.4041      0.00000
     29      -0.1124      0.00000
     30      -0.0043      0.00000
     31       0.0001      0.00000
     32       0.0648      0.00000
     33       0.0761      0.00000
     34       0.0816      0.00000
     35       0.0952      0.00000
     36       0.1020      0.00000
     37       0.1116      0.00000
     38       0.1296      0.00000
     39       0.1690      0.00000
     40       0.1709      0.00000
     41       0.1718      0.00000
     42       0.1738      0.00000


--------------------------------------------------------------------------------------------------------


 soft charge-density along one line, spin component           1
         0         1         2         3         4         5         6         7         8         9
 total charge-density along one line
 
 soft charge-density along one line, spin component           2
         0         1         2         3         4         5         6         7         8         9
 total charge-density along one line
 
 pseudopotential strength for first ion, spin component:           1
 10.394  13.826   0.002   0.000  -0.000  -0.008  -0.000   0.001
 13.826  18.391   0.003   0.000  -0.000  -0.011  -0.000   0.001
  0.002   0.003  -4.476  -0.000   0.000   8.752   0.000  -0.000
  0.000   0.000  -0.000  -4.507  -0.000   0.000   8.813   0.000
 -0.000  -0.000   0.000  -0.000  -4.479  -0.000   0.000   8.757
 -0.008  -0.011   8.752   0.000  -0.000 -19.255  -0.000   0.001
 -0.000  -0.000   0.000   8.813   0.000  -0.000 -19.377  -0.000
  0.001   0.001  -0.000   0.000   8.757   0.001  -0.000 -19.265
 pseudopotential strength for first ion, spin component:           2
 10.336  13.747   0.002   0.000  -0.000  -0.008  -0.000   0.001
 13.747  18.284   0.003   0.000  -0.000  -0.010  -0.000   0.001
  0.002   0.003  -4.476  -0.000  -0.000   8.761   0.000  -0.000
  0.000   0.000  -0.000  -4.449  -0.000   0.000   8.721   0.000
 -0.000  -0.000  -0.000  -0.000  -4.479  -0.000   0.000   8.767
 -0.008  -0.010   8.761   0.000  -0.000 -19.295  -0.000   0.000
 -0.000  -0.000   0.000   8.721   0.000  -0.000 -19.239  -0.000
  0.001   0.001  -0.000   0.000   8.767   0.000  -0.000 -19.306
 total augmentation occupancy for first ion, spin component:           1
  7.379  -3.114   0.196   0.000  -0.006   0.044   0.000  -0.001
 -3.114   1.364  -0.149   0.000   0.007  -0.027   0.000   0.001
  0.196  -0.149   1.795   0.000   0.011   0.145   0.000   0.001
  0.000   0.000   0.000   0.917   0.000   0.000   0.049   0.000
 -0.006   0.007   0.011   0.000   1.829   0.001   0.000   0.162
  0.044  -0.027   0.145   0.000   0.001   0.013   0.000   0.000
  0.000   0.000   0.000   0.049   0.000   0.000   0.003   0.000
 -0.001   0.001   0.001   0.000   0.162   0.000   0.000   0.016
 total augmentation occupancy for first ion, spin component:           2
  0.023  -0.002   0.002   0.000   0.005   0.000   0.000   0.001
 -0.002  -0.001  -0.003   0.000  -0.005  -0.000   0.000  -0.001
  0.002  -0.003   0.008   0.000  -0.001   0.000   0.000   0.000
  0.000   0.000   0.000   0.342   0.000   0.000   0.009   0.000
  0.005  -0.005  -0.001   0.000   0.006   0.000   0.000   0.001
  0.000  -0.000   0.000   0.000   0.000   0.000   0.000   0.000
  0.000   0.000   0.000   0.009   0.000   0.000   0.000   0.000
  0.001  -0.001   0.000   0.000   0.001   0.000   0.000   0.000


------------------------ aborting loop because EDIFF is reached ----------------------------------------


    CHARGE:  cpu time    6.4277: real time    6.4418
    FORLOC:  cpu time    0.5075: real time    0.5081
    FORNL :  cpu time    5.5175: real time    5.5292
    STRESS:  cpu time   16.8771: real time   16.9137
    FORCOR:  cpu time    8.4605: real time    8.4763
    FORHAR:  cpu time    1.4881: real time    1.4903
    MIXING:  cpu time    0.1644: real time    0.1647
    OFIELD:  cpu time    0.0000: real time    0.0000

 ---------------------------------------------------------------------------------------------

         DFTD3 V3.0 Rev 1        
 Edisp (eV)   -0.17084

 E6    (eV) :    -0.0759
 E8    (eV) :    -0.0949
 % E8        : 55.56
    FORVDW:  cpu time    0.0118: real time    0.0199

  FORCE on cell =-STRESS in cart. coord.  units (eV):
  Direction    XX          YY          ZZ          XY          YZ          ZX
  --------------------------------------------------------------------------------------
  Alpha Z     0.16757     0.16757     0.16757
  Ewald    3189.90946  2207.48988  -394.90887     7.91978    -0.00000     0.00000
  Hartree  3094.14700  2325.88527   731.89001     1.63396     0.00000    -0.00000
  E(xc)    -172.58235  -173.07268  -178.53530    -0.01043     0.00000     0.00000
  Local   -6734.29655 -5002.16223  -870.07403    -9.78180     0.00000    -0.00000
  n-local   -62.66304   -66.67362   -50.96483     0.00111    -0.00000    -0.00000
  augment    -1.64824    -1.08045    -1.49593     0.01994     0.00000     0.00000
  Kinetic   687.62962   709.43482   763.38640     0.57169    -0.00000     0.00000
  Fock        0.00000     0.00000     0.00000     0.00000     0.00000     0.00000
  vdW        -0.02370     0.04729    -0.00000     0.00005     0.00000     0.00000
  -------------------------------------------------------------------------------------
  Total       0.63978     0.03585    -0.53498     0.35432     0.00000     0.00000
  in kB       0.01602     0.00090    -0.01339     0.00887     0.00000     0.00000
  external pressure =        0.00 kB  Pullay stress =        0.00 kB


 VOLUME and BASIS-vectors are now :
 -----------------------------------------------------------------------------
  energy-cutoff  :      500.00
  volume of cell :    64000.00
      direct lattice vectors                 reciprocal lattice vectors
    40.000000000  0.000000000  0.000000000     0.025000000  0.000000000  0.000000000
     0.000000000 40.000000000  0.000000000     0.000000000  0.025000000  0.000000000
     0.000000000  0.000000000 40.000000000     0.000000000  0.000000000  0.025000000

  length of vectors
    40.000000000 40.000000000 40.000000000     0.025000000  0.025000000  0.025000000


 FORCES acting on ions
    electron-ion (+dipol)            ewald-force                    non-local-force                 convergence-correction
 -----------------------------------------------------------------------------------------------
   -.771E+02 0.191E+03 0.715E-07   0.774E+02 -.193E+03 -.190E-17   -.235E+00 0.259E+01 0.000E+00   0.104E-02 0.108E-02 0.299E-11
   -.196E+03 0.939E+02 0.376E-08   0.199E+03 -.943E+02 0.330E-17   -.289E+01 0.923E+00 0.000E+00   0.462E-02 0.205E-02 0.590E-11
   -.195E+03 -.975E+02 0.538E-07   0.198E+03 0.988E+02 -.461E-17   -.284E+01 -.105E+01 0.000E+00   0.413E-02 -.170E-02 0.565E-11
   -.782E+02 -.191E+03 -.273E-07   0.773E+02 0.194E+03 0.250E-17   0.143E+00 -.274E+01 0.000E+00   -.603E-03 0.118E-02 -.535E-11
   -.319E+02 -.688E+02 0.272E-07   0.331E+02 0.683E+02 -.416E-17   -.197E+01 0.166E+01 0.000E+00   0.362E-02 -.211E-04 -.121E-10
   0.224E+03 -.820E+02 0.150E-07   -.229E+03 0.828E+02 0.310E-17   0.491E+01 0.511E+00 0.000E+00   -.154E-03 0.364E-02 -.741E-11
   0.207E+03 0.953E+02 0.699E-08   -.209E+03 -.953E+02 -.773E-18   0.277E+01 0.948E+00 0.000E+00   -.273E-02 -.445E-03 -.880E-11
   0.746E+02 0.202E+03 -.633E-07   -.756E+02 -.204E+03 -.399E-17   0.379E+00 0.283E+01 0.000E+00   0.163E-02 -.194E-02 -.792E-11
   -.847E+01 0.985E+02 -.354E-07   0.781E+01 -.978E+02 0.786E-17   0.234E+00 0.196E+00 0.000E+00   0.137E-02 0.853E-03 -.281E-11
   0.884E+02 -.286E+03 0.378E-07   -.888E+02 0.322E+03 0.125E-17   -.371E+00 -.340E+02 0.000E+00   -.472E-02 0.267E-02 -.158E-10
   0.157E+02 0.880E+02 0.252E-08   -.160E+02 -.938E+02 0.578E-18   0.149E+00 0.607E+01 0.000E+00   -.636E-04 -.348E-03 -.117E-11
   0.795E+02 0.386E+02 -.129E-07   -.849E+02 -.412E+02 0.776E-18   0.540E+01 0.273E+01 0.000E+00   -.896E-03 -.241E-03 -.137E-11
   0.780E+02 -.457E+02 0.115E-08   -.829E+02 0.493E+02 0.158E-19   0.506E+01 -.334E+01 0.000E+00   -.175E-03 0.345E-03 -.110E-11
   -.139E+02 -.886E+02 -.531E-09   0.133E+02 0.947E+02 -.943E-18   0.172E+00 -.611E+01 0.000E+00   0.567E-05 -.387E-03 -.111E-11
   -.764E+02 -.430E+02 0.273E-09   0.816E+02 0.461E+02 -.167E-17   -.520E+01 -.315E+01 0.000E+00   0.113E-03 -.542E-03 0.105E-11
   -.775E+02 0.409E+02 -.140E-07   0.828E+02 -.438E+02 0.740E-18   -.529E+01 0.299E+01 0.000E+00   -.589E-04 0.752E-03 0.933E-12
   -.160E+02 0.874E+02 0.121E-08   0.162E+02 -.933E+02 0.152E-17   -.152E+00 0.610E+01 0.000E+00   0.207E-03 -.219E-03 0.327E-12
 -----------------------------------------------------------------------------------------------
   -.257E+00 0.228E+02 0.677E-07   -.142E-12 -.995E-13 0.359E-17   0.272E+00 -.228E+02 0.000E+00   0.733E-02 0.673E-02 -.480E-10
 
 
 POSITION                                       TOTAL-FORCE (eV/Angst)
 -----------------------------------------------------------------------------------
     21.15914     18.72896     20.00000         0.006404     -0.002117      0.000000
     22.37195     19.45763     20.00000        -0.002932      0.005431      0.000000
     22.35094     20.84700     20.00000        -0.007784      0.002617      0.000000
     21.12026     21.53612     20.00000        -0.001405     -0.001817      0.000000
     19.88343     20.82488     20.00000         0.006593      0.009579      0.000000
     17.57749     20.85814     20.00000        -0.000445     -0.014112      0.000000
     17.49644     19.45703     20.00000         0.008769      0.001325      0.000000
     18.67800     18.70966     20.00000        -0.011002      0.000166      0.000000
     19.90809     19.39694     20.00000         0.004091     -0.002712      0.000000
     18.73490     21.54191     20.00000         0.004923     -0.004016      0.000000
     18.65824     17.61961     20.00000        -0.009684      0.004480      0.000000
     16.52466     18.96619     20.00000        -0.006962      0.006644      0.000000
     16.66613     21.45936     20.00000         0.009426     -0.005743      0.000000
     21.09047     22.62584     20.00000        -0.006498      0.003257      0.000000
     23.28122     21.41273     20.00000         0.001692      0.000825      0.000000
     23.31830     18.91945     20.00000         0.002771     -0.002949      0.000000
     21.18039     17.63850     20.00000         0.002042     -0.000859      0.000000
 -----------------------------------------------------------------------------------
    total drift:                                0.022075      0.000393      0.000000


--------------------------------------------------------------------------------------------------------



  FREE ENERGIE OF THE ION-ELECTRON SYSTEM (eV)
  ---------------------------------------------------
  free  energy   TOTEN  =      -108.95403643 eV

  energy  without entropy=     -108.95403643  energy(sigma->0) =     -108.95403643
 
 d Force = 0.5457111E-05[ 0.564E-06, 0.104E-04]  d Energy = 0.1317144E-04-0.771E-05
 d Force =-0.6263063E-01[-0.626E-01,-0.626E-01]  d Ewald  =-0.6263063E-01-0.318E-10


--------------------------------------------------------------------------------------------------------


    POTLOK:  cpu time  124.2056: real time  124.3657


--------------------------------------------------------------------------------------------------------




--------------------------------------------------------------------------------------------------------


  
 reached required accuracy - stopping structural energy minimisation
 writing wavefunctions
     LOOP+:  cpu time  487.1873: real time  488.9108
    4ORBIT:  cpu time    0.0000: real time    0.0000

 total amount of memory used by VASP MPI-rank0   746090. kBytes
=======================================================================

   base      :      30000. kBytes
   nonlr-proj:       1525. kBytes
   fftplans  :     182426. kBytes
   grid      :     486647. kBytes
   one-center:          6. kBytes
   wavefun   :      45486. kBytes
 
  
  
 General timing and accounting informations for this job:
 ========================================================
  
                  Total CPU time used (sec):    26443.201
                            User time (sec):    25736.979
                          System time (sec):      706.223
                         Elapsed time (sec):    26476.962
  
                   Maximum memory used (kb):     2431260.
                   Average memory used (kb):           0.
  
                          Minor page faults:    190876618
                          Major page faults:            0
                 Voluntary context switches:       696641
