
                                 *****************
                                 * O   R   C   A *
                                 *****************

                                            #,                                       
                                            ###                                      
                                            ####                                     
                                            #####                                    
                                            ######                                   
                                           ########,                                 
                                     ,,################,,,,,                         
                               ,,#################################,,                 
                          ,,##########################################,,             
                       ,#########################################, ''#####,          
                    ,#############################################,,   '####,        
                  ,##################################################,,,,####,       
                ,###########''''           ''''###############################       
              ,#####''   ,,,,##########,,,,          '''####'''          '####       
            ,##' ,,,,###########################,,,                        '##       
           ' ,,###''''                  '''############,,,                           
         ,,##''                                '''############,,,,        ,,,,,,###''
      ,#''                                            '''#######################'''  
     '                                                          ''''####''''         
             ,#######,   #######,   ,#######,      ##                                
            ,#'     '#,  ##    ##  ,#'     '#,    #''#        ,####,   ,####,        
            ##       ##  ##   ,#'  ##            #'  '#       #'       #'  '#        
            ##       ##  #######   ##           ,######,      #####,   #    #        
            '#,     ,#'  ##    ##  '#,     ,#' ,#      #,     #,   #   #,  ,#        
             '#######'   ##     ##  '#######'  #'      '#     '####' # '####'        



                #########################################################
                #                        -***-                          #
                #          Department of theory and spectroscopy        #
                #                                                       #
                #                      Frank Neese                      #
                #                                                       #
                #     Directorship, Architecture, Infrastructure        #
                #                    SHARK, DRIVERS                     #
                #        Core code/Algorithms in most modules           #
                #                                                       #
                #        Max Planck Institute fuer Kohlenforschung      #
                #                Kaiser Wilhelm Platz 1                 #
                #                 D-45470 Muelheim/Ruhr                 #
                #                      Germany                          #
                #                                                       #
                #                  All rights reserved                  #
                #                        -***-                          #
                #########################################################


                         Program Version 6.0.0  -   RELEASE  -


 With contributions from (in alphabetic order):
   Daniel Aravena         : Magnetic Suceptibility
   Michael Atanasov       : Ab Initio Ligand Field Theory (pilot matlab implementation)
   Alexander A. Auer      : GIAO ZORA, VPT2 properties, NMR spectrum
   Ute Becker             : All parallelization in ORCA, NUMFREQ, NUMCALC
   Giovanni Bistoni       : ED, misc. LED, open-shell LED, HFLD
   Martin Brehm           : Molecular dynamics
   Dmytro Bykov           : pre 5.0 version of the SCF Hessian
   Marcos Casanova-Páez   : Triplet and SCS-CIS(D). UHF-(DLPNO)-IP/EA/STEOM-CCSD. UHF-CVS-IP/STEOM-CCSD
   Vijay G. Chilkuri      : MRCI spin determinant printing, contributions to CSF-ICE
   Pauline Colinet        : FMM embedding
   Dipayan Datta          : RHF DLPNO-CCSD density
   Achintya Kumar Dutta   : EOM-CC, STEOM-CC
   Nicolas Foglia         : Exact transition moments, OPA infrastructure, MCD improvements
   Dmitry Ganyushin       : Spin-Orbit,Spin-Spin,Magnetic field MRCI
   Miquel Garcia          : C-PCM and meta-GGA Hessian, CCSD/C-PCM, Gaussian charge scheme
   Tiago L. C. Gouveia    : GS-ROHF, GS-ROCIS
   Yang Guo               : DLPNO-NEVPT2, F12-NEVPT2, CIM, IAO-localization
   Andreas Hansen         : Spin unrestricted coupled pair/coupled cluster methods
   Ingolf Harden          : AUTO-CI MPn and infrastructure 
   Benjamin Helmich-Paris : MC-RPA, TRAH-(SCF,CASSCF), AVAS, COSX integrals, SCF dyn. polar.
   Lee Huntington         : MR-EOM, pCC
   Robert Izsak           : Overlap fitted RIJCOSX, COSX-SCS-MP3, EOM
   Riya Kayal             : Wick's Theorem for AUTO-CI, AUTO-CI UHF-CCSDT
   Emily Kempfer          : AUTO-CI, RHF CISDT and CCSDT
   Christian Kollmar      : KDIIS, OOCD, Brueckner-CCSD(T), CCSD density, CASPT2, CASPT2-K, improved NEVPT2
   Axel Koslowski         : Symmetry handling
   Simone Kossmann        : Meta GGA functionals, TD-DFT gradient, OOMP2, (MP2 Hessian; deprecated post 5.0)
   Lucas Lang             : DCDCAS
   Marvin Lechner         : AUTO-CI (C++ implementation), FIC-MRCC
   Spencer Leger          : CASSCF response
   Dagmar Lenk            : GEPOL surface, SMD, ORCA-2-JSON
   Dimitrios Liakos       : Extrapolation schemes; Compound Job, initial MDCI parallelization
   Dimitrios Manganas     : Further ROCIS development; embedding schemes. LFT, Crystal Embedding
   Dimitrios Pantazis     : SARC Basis sets
   Anastasios Papadopoulos: AUTO-CI, single reference methods and gradients
   Taras Petrenko         : pre 6.0 DFT Hessian and TD-DFT gradient, (ASA, deprecated), ECA, 1-Electron XAS/XES, NRVS
   Peter Pinski           : DLPNO-MP2, DLPNO-MP2 Gradient
   Christoph Reimann      : Effective Core Potentials
   Marius Retegan         : Local ZFS, SOC
   Christoph Riplinger    : Optimizer, TS searches, QM/MM, DLPNO-CCSD(T), (RO)-DLPNO pert. Triples
   Michael Roemelt        : Original ROCIS implementation
   Masaaki Saitow         : Open-shell DLPNO-CCSD energy and density
   Barbara Sandhoefer     : DKH picture change effects
   Kantharuban Sivalingam : CASSCF convergence/infrastructure, NEVPT2 and variants, FIC-MRCI
   Bernardo de Souza      : ESD, SOC TD-DFT
   Georgi Stoychev        : AutoAux, RI-MP2 NMR, DLPNO-MP2 response, X2C
   Van Anh Tran           : RI-MP2 g-tensors
   Willem Van den Heuvel  : Paramagnetic NMR
   Zikuan Wang            : NOTCH, Electric field optimization 
   Frank Wennmohs         : Technical directorship and infrastructure
   Hang Xu                : AUTO-CI-Response properties 


 We gratefully acknowledge several colleagues who have allowed us to
 interface, adapt or use parts of their codes:
   Stefan Grimme, W. Hujo, H. Kruse, P. Pracht,  : VdW corrections, initial TS optimization,
                  C. Bannwarth, S. Ehlert,         DFT functionals, gCP, sTDA/sTD-DF
                  L. Wittmann, M. Mueller
   Ed Valeev, F. Pavosevic, A. Kumar             : LibInt (2-el integral package), F12 methods
   Garnet Chan, S. Sharma, J. Yang, R. Olivares  : DMRG
   Ulf Ekstrom                                   : XCFun DFT Library
   Mihaly Kallay                                 : mrcc  (arbitrary order and MRCC methods)
   Frank Weinhold                                : gennbo (NPA and NBO analysis)
   Simon Mueller                                 : openCOSMO-RS
   Christopher J. Cramer and Donald G. Truhlar   : smd solvation model
   Lars Goerigk                                  : TD-DFT with DH, B97 family of functionals
   V. Asgeirsson, H. Jonsson                     : NEB implementation
   FAccTs GmbH                                   : IRC, NEB, NEB-TS, DLPNO-Multilevel, CI-OPT
                                                   MM, QMMM, 2- and 3-layer-ONIOM, Crystal-QMMM,
                                                   LR-CPCM, SF, NACMEs, symmetry and pop. for TD-DFT,
                                                   nearIR, NL-DFT gradient (VV10), updates on ESD,
                                                   ML-optimized integration grids, MBIS, APM,
                                                   GOAT, DOCKER, SOLVATOR, interface openCOSMO-RS
   S Lehtola, MJT Oliveira, MAL Marques          : LibXC Library
   Liviu Ungur et al                             : ANISO software


 Your calculation uses the libint2 library for the computation of 2-el integrals
 For citations please refer to: http://libint.valeyev.net

 Your ORCA version has been built with support for libXC version: 6.2.2
 For citations please refer to: https://libxc.gitlab.io

 This ORCA versions uses:
   CBLAS   interface :  Fast vector & matrix operations
   LAPACKE interface :  Fast linear algebra routines
   SCALAPACK package :  Parallel linear algebra routines
   Shared memory     :  Shared parallel matrices
   BLAS/LAPACK       :  OpenBLAS 0.3.27  USE64BITINT DYNAMIC_ARCH NO_AFFINITY Sandybridge SINGLE_THREADED
        Core in use  :  Sandybridge
   Copyright (c) 2011-2014, The OpenBLAS Project


NOTE: MaxCore=5000 MB was set to SCF,MP2,MDCI,CIPSI,MRCI and CIS
      => If you want to overwrite this, your respective input block should be placed after the MaxCore statement
Your calculation utilizes the atom-pairwise dispersion correction
with the Becke-Johnson damping scheme (D3BJ)


Your calculation utilizes the SMD solvation module
Please cite in your paper:
A.V. Marenich, C.J. Cramer, D.G. Truhlar J. Phys. Chem. B, 113, (2009), 6378 

Warning: RI is on but no J-basis has been assigned. Assigning Def2/J (nothing to worry about!)
================================================================================

----- Orbital basis set information -----
Your calculation utilizes the basis: aug-cc-pVTZ 
    H, B-Ne : Obtained from the ccRepo (grant-hill.group.shef.ac.uk/ccrepo) Feb. 2017
              R. A. Kendall, T. H. Dunning, Jr., R. J. Harrison, J. Chem. Phys. 96, 6796 (1992)
         He : Obtained from the ccRepo (grant-hill.group.shef.ac.uk/ccrepo) Feb. 2017
              D. E. Woon, T. H. Dunning, Jr., J. Chem. Phys. 100, 2975 (1994)
  Li-Be, Na : Obtained from the ccRepo (grant-hill.group.shef.ac.uk/ccrepo) Feb. 2017
              B. P. Prascher, D. E. Woon, K. A. Peterson, T. H. Dunning, Jr., A. K. Wilson, Theor. Chem. Acc. 128, 69 (2011)
         Mg : Obtained from the Peterson Research Group Website (tyr0.chem.wsu.edu/~kipeters) Feb. 2017
              B. P. Prascher, D. E. Woon, K. A. Peterson, T. H. Dunning, Jr., A. K. Wilson, Theor. Chem. Acc. 128, 69 (2011)
      Al-Ar : Obtained from the ccRepo (grant-hill.group.shef.ac.uk/ccrepo) Feb. 2017
              D. E. Woon, T. H. Dunning, Jr., J. Chem. Phys. 98, 1358 (1993)
      Sc-Zn : Obtained from the ccRepo (grant-hill.group.shef.ac.uk/ccrepo) Feb. 2017
              N. B. Balabanov, K. A. Peterson, J. Chem. Phys. 123, 064107 (2005)
              N. B. Balabanov, K. A. Peterson, J. Chem. Phys. 125, 074110 (2006)
      Ga-Kr : Obtained from the ccRepo (grant-hill.group.shef.ac.uk/ccrepo) Feb. 2017
              A. K. Wilson, D. E. Woon, K. A. Peterson, T. H. Dunning, Jr., J. Chem. Phys. 110, 7667 (1999)
     Ag, Au : Obtained from the Peterson Research Group Website (tyr0.chem.wsu.edu/~kipeters) Feb. 2017
              K. A. Peterson, C. Puzzarini, Theor. Chem. Acc. 114, 283 (2005)

----- AuxJ basis set information -----
Your calculation utilizes the auxiliary basis: def2/J
   F. Weigend, Phys. Chem. Chem. Phys. 8, 1057 (2006).

================================================================================
                                        WARNINGS
                       Please study these warnings very carefully!
================================================================================


================================================================================
                                       INPUT FILE
================================================================================
NAME = cs_rporg_018_red_freq_04.inp
|  1> !PBE0 freq aug-cc-pVTZ d3 TightSCF SlowConv RIJCOSX defgrid2
|  2> 
|  3> %pal
|  4> nprocs 12
|  5> end
|  6> 
|  7> %scf
|  8> MaxIter 1500
|  9> end
| 10> 
| 11> %maxcore 5000
| 12> 
| 13> !CPCM
| 14> %cpcm smd true
| 15> SMDsolvent "MeCN"
| 16> surfacetype gepol_ses
| 17> rsolv 2.19
| 18> end 
| 19> 
| 20> * xyz 0 1
| 21> C          -0.32904118456034      0.79420257804762      0.00055994301055
| 22> C          -1.61793474493997      0.26256513684039     -0.00018437369784
| 23> C          -1.79808199927773     -1.11572660888683      0.00046387559573
| 24> C          -0.67359190043015     -1.93766288861196      0.00240416573450
| 25> C           0.60414372444044     -1.41608730914355      0.00331764332494
| 26> C           0.79330769296890     -0.02685639852764      0.00201465932139
| 27> C           2.11375041991377      0.60549946647922      0.00237102031121
| 28> C           3.29645318008513     -0.01160601404792     -0.00225700475636
| 29> C           4.60784497245836      0.68752629782176     -0.00147626591144
| 30> H           5.19894159019152      0.40980214842395     -0.88014954363626
| 31> H           5.20336866858635      0.39860260141860      0.87058682566121
| 32> H           4.48887398306212      1.77231191541032      0.00565213541302
| 33> H           3.33723015525917     -1.09815349342027     -0.00732006339013
| 34> H           2.10153670025383      1.69357905559108      0.00633789495072
| 35> H           1.45321144226469     -2.08718304436707      0.00570748372934
| 36> H          -0.81202017684881     -3.01266172627009      0.00363730090523
| 37> H          -2.78574181388178     -1.55460141846425     -0.00068957399962
| 38> O          -2.62667223153288      1.16206375012142     -0.00145042565967
| 39> C          -3.95060499154662      0.66271394224411     -0.00185129974228
| 40> H          -4.60311001454600      1.53342716844547     -0.00208873657592
| 41> H          -4.15066238583250      0.06349948640999      0.89074245466287
| 42> H          -4.14995155989290      0.06371310567486     -0.89468977756615
| 43> H          -0.21408532619458      1.87239524881078     -0.00038373768502
| 44> *
| 45> 
| 46>                          ****END OF INPUT****
================================================================================

                       ****************************
                       * Single Point Calculation *
                       ****************************

---------------------------------
CARTESIAN COORDINATES (ANGSTROEM)
---------------------------------
  C     -0.329041    0.794203    0.000560
  C     -1.617935    0.262565   -0.000184
  C     -1.798082   -1.115727    0.000464
  C     -0.673592   -1.937663    0.002404
  C      0.604144   -1.416087    0.003318
  C      0.793308   -0.026856    0.002015
  C      2.113750    0.605499    0.002371
  C      3.296453   -0.011606   -0.002257
  C      4.607845    0.687526   -0.001476
  H      5.198942    0.409802   -0.880150
  H      5.203369    0.398603    0.870587
  H      4.488874    1.772312    0.005652
  H      3.337230   -1.098153   -0.007320
  H      2.101537    1.693579    0.006338
  H      1.453211   -2.087183    0.005707
  H     -0.812020   -3.012662    0.003637
  H     -2.785742   -1.554601   -0.000690
  O     -2.626672    1.162064   -0.001450
  C     -3.950605    0.662714   -0.001851
  H     -4.603110    1.533427   -0.002089
  H     -4.150662    0.063499    0.890742
  H     -4.149952    0.063713   -0.894690
  H     -0.214085    1.872395   -0.000384

----------------------------
CARTESIAN COORDINATES (A.U.)
----------------------------
  NO LB      ZA    FRAG     MASS         X           Y           Z
   0 C     6.0000    0    12.011   -0.621798    1.500825    0.001058
   1 C     6.0000    0    12.011   -3.057454    0.496176   -0.000348
   2 C     6.0000    0    12.011   -3.397883   -2.108418    0.000877
   3 C     6.0000    0    12.011   -1.272904   -3.661652    0.004543
   4 C     6.0000    0    12.011    1.141666   -2.676017    0.006269
   5 C     6.0000    0    12.011    1.499134   -0.050751    0.003807
   6 C     6.0000    0    12.011    3.994409    1.144228    0.004481
   7 C     6.0000    0    12.011    6.229394   -0.021932   -0.004265
   8 C     6.0000    0    12.011    8.707565    1.299236   -0.002790
   9 H     1.0000    0     1.008    9.824576    0.774414   -1.663242
  10 H     1.0000    0     1.008    9.832942    0.753250    1.645171
  11 H     1.0000    0     1.008    8.482742    3.349184    0.010681
  12 H     1.0000    0     1.008    6.306451   -2.075209   -0.013833
  13 H     1.0000    0     1.008    3.971329    3.200401    0.011977
  14 H     1.0000    0     1.008    2.746172   -3.944204    0.010786
  15 H     1.0000    0     1.008   -1.534496   -5.693106    0.006874
  16 H     1.0000    0     1.008   -5.264289   -2.937771   -0.001303
  17 O     8.0000    0    15.999   -4.963691    2.195982   -0.002741
  18 C     6.0000    0    12.011   -7.465561    1.252348   -0.003498
  19 H     1.0000    0     1.008   -8.698617    2.897757   -0.003947
  20 H     1.0000    0     1.008   -7.843615    0.119997    1.683259
  21 H     1.0000    0     1.008   -7.842272    0.120400   -1.690719
  22 H     1.0000    0     1.008   -0.404563    3.538314   -0.000725

--------------------------------
INTERNAL COORDINATES (ANGSTROEM)
--------------------------------
 C      0   0   0     0.000000000000     0.00000000     0.00000000
 C      1   0   0     1.394232955029     0.00000000     0.00000000
 C      2   1   0     1.390014960284   119.86147326     0.00000000
 C      3   2   1     1.392860723497   118.71808714     0.02575762
 C      4   3   2     1.380090666081   121.62997506     0.00000000
 C      1   2   3     1.390613879589   121.39755823     0.00000000
 C      6   1   2     1.464050225280   118.22289404   179.98440659
 C      7   6   1     1.334026390904   126.85561068   180.31941185
 C      8   7   6     1.486114071045   124.38210070   180.00605269
 H      9   8   7     1.094802559205   110.89600642   238.97546495
 H      9   8   7     1.094814783731   110.87098161   121.27865141
 H      9   8   7     1.091313312734   111.80404619     0.12960359
 H      8   7   6     1.087324156449   119.70421124     0.02732920
 H      7   6   1     1.088155367254   114.94637234     0.28441643
 H      5   4   3     1.082262069290   119.47204035   179.94648695
 H      4   3   2     1.083875642913   118.82703106   179.95625936
 H      3   2   1     1.080779504946   121.40484281   180.03734553
 O      2   1   3     1.351536412769   115.86142968   179.99644553
 C     18   2   1     1.414972912944   117.61133103   180.01772861
 H     19  18   2     1.088073703247   106.18252786   179.95622832
 H     19  18   2     1.093528479507   111.36594737    61.18292726
 H     19  18   2     1.093481414568   111.35371020   298.71491137
 H      1   2   3     1.084304004970   118.50074705   179.97502279

---------------------------
INTERNAL COORDINATES (A.U.)
---------------------------
 C      0   0   0     0.000000000000     0.00000000     0.00000000
 C      1   0   0     2.634718451892     0.00000000     0.00000000
 C      2   1   0     2.626747596990   119.86147326     0.00000000
 C      3   2   1     2.632125310105   118.71808714     0.02575762
 C      4   3   2     2.607993398873   121.62997506     0.00000000
 C      1   2   3     2.627879390453   121.39755823     0.00000000
 C      6   1   2     2.766653972086   118.22289404   179.98440659
 C      7   6   1     2.520944534233   126.85561068   180.31941185
 C      8   7   6     2.808348598041   124.38210070   180.00605269
 H      9   8   7     2.068877007614   110.89600642   238.97546495
 H      9   8   7     2.068900108620   110.87098161   121.27865141
 H      9   8   7     2.062283287370   111.80404619     0.12960359
 H      8   7   6     2.054744874486   119.70421124     0.02732920
 H      7   6   1     2.056315635267   114.94637234     0.28441643
 H      5   4   3     2.045178916089   119.47204035   179.94648695
 H      4   3   2     2.048228128334   118.82703106   179.95625936
 H      3   2   1     2.042377275503   121.40484281   180.03734553
 O      2   1   3     2.554033680155   115.86142968   179.99644553
 C     18   2   1     2.673911292381   117.61133103   180.01772861
 H     19  18   2     2.056161312658   106.18252786   179.95622832
 H     19  18   2     2.066469345911   111.36594737    61.18292726
 H     19  18   2     2.066380406066   111.35371020   298.71491137
 H      1   2   3     2.049037615307   118.50074705   179.97502279

---------------------
BASIS SET INFORMATION
---------------------
There are 3 groups of distinct atoms

 Group   1 Type C   : 19s6p3d2f contracted to 5s4p3d2f pattern {88111/3111/111/11}
 Group   2 Type H   : 6s3p2d contracted to 4s3p2d pattern {3111/111/11}
 Group   3 Type O   : 19s6p3d2f contracted to 5s4p3d2f pattern {88111/3111/111/11}

Atom   0C    basis set group =>   1
Atom   1C    basis set group =>   1
Atom   2C    basis set group =>   1
Atom   3C    basis set group =>   1
Atom   4C    basis set group =>   1
Atom   5C    basis set group =>   1
Atom   6C    basis set group =>   1
Atom   7C    basis set group =>   1
Atom   8C    basis set group =>   1
Atom   9H    basis set group =>   2
Atom  10H    basis set group =>   2
Atom  11H    basis set group =>   2
Atom  12H    basis set group =>   2
Atom  13H    basis set group =>   2
Atom  14H    basis set group =>   2
Atom  15H    basis set group =>   2
Atom  16H    basis set group =>   2
Atom  17O    basis set group =>   3
Atom  18C    basis set group =>   1
Atom  19H    basis set group =>   2
Atom  20H    basis set group =>   2
Atom  21H    basis set group =>   2
Atom  22H    basis set group =>   2
---------------------------------
AUXILIARY/J BASIS SET INFORMATION
---------------------------------
There are 3 groups of distinct atoms

 Group   1 Type C   : 12s5p4d2f1g contracted to 6s4p3d1f1g pattern {711111/2111/211/2/1}
 Group   2 Type H   : 5s2p1d contracted to 3s1p1d pattern {311/2/1}
 Group   3 Type O   : 12s5p4d2f1g contracted to 6s4p3d1f1g pattern {711111/2111/211/2/1}

Atom   0C    basis set group =>   1
Atom   1C    basis set group =>   1
Atom   2C    basis set group =>   1
Atom   3C    basis set group =>   1
Atom   4C    basis set group =>   1
Atom   5C    basis set group =>   1
Atom   6C    basis set group =>   1
Atom   7C    basis set group =>   1
Atom   8C    basis set group =>   1
Atom   9H    basis set group =>   2
Atom  10H    basis set group =>   2
Atom  11H    basis set group =>   2
Atom  12H    basis set group =>   2
Atom  13H    basis set group =>   2
Atom  14H    basis set group =>   2
Atom  15H    basis set group =>   2
Atom  16H    basis set group =>   2
Atom  17O    basis set group =>   3
Atom  18C    basis set group =>   1
Atom  19H    basis set group =>   2
Atom  20H    basis set group =>   2
Atom  21H    basis set group =>   2
Atom  22H    basis set group =>   2


           ************************************************************
           *        Program running with 12 parallel MPI-processes    *
           *              working on a common directory               *
           ************************************************************
------------------------------------------------------------------------------
                             ORCA STARTUP CALCULATIONS
                           -- RI-GTO INTEGRALS CHOSEN --
------------------------------------------------------------------------------
------------------------------------------------------------------------------
                   ___                                                        
                  /   \      - P O W E R E D   B Y -                         
                 /     \                                                     
                 |  |  |   _    _      __       _____    __    __             
                 |  |  |  | |  | |    /  \     |  _  \  |  |  /  |          
                  \  \/   | |  | |   /    \    | | | |  |  | /  /          
                 / \  \   | |__| |  /  /\  \   | |_| |  |  |/  /          
                |  |  |   |  __  | /  /__\  \  |    /   |      \           
                |  |  |   | |  | | |   __   |  |    \   |  |\   \          
                \     /   | |  | | |  |  |  |  | |\  \  |  | \   \       
                 \___/    |_|  |_| |__|  |__|  |_| \__\ |__|  \__/        
                                                                              
                      - O R C A' S   B I G   F R I E N D -                    
                                      &                                       
                       - I N T E G R A L  F E E D E R -                       
                                                                              
 v1 FN, 2020, v2 2021, v3 2022-2024                                           
------------------------------------------------------------------------------


----------------------
SHARK INTEGRAL PACKAGE
----------------------

Number of atoms                             ...     23
Number of basis functions                   ...    848
Number of shells                            ...    328
Maximum angular momentum                    ...      3
Integral batch strategy                     ... SHARK/LIBINT Hybrid
RI-J (if used) integral strategy            ... SPLIT-RIJ (Revised 2003 algorithm where possible)
Printlevel                                  ...      1
Contraction scheme used                     ... PARTIAL GENERAL contraction
Prescreening option                         ... SCHWARTZ
   Thresh                                   ... 2.500e-11
   Tcut                                     ... 2.500e-12
   Tpresel                                  ... 2.500e-12 
Coulomb Range Separation                    ... NOT USED
Exchange Range Separation                   ... NOT USED
Multipole approximations                    ... NOT USED
Finite Nucleus Model                        ... NOT USED
CABS basis                                  ... NOT available
Auxiliary Coulomb fitting basis             ... AVAILABLE
   # of basis functions in Aux-J            ...    671
   # of shells in Aux-J                     ...    225
   Maximum angular momentum in Aux-J        ...      4
Auxiliary J/K fitting basis                 ... NOT available
Auxiliary Correlation fitting basis         ... NOT available
Auxiliary 'external' fitting basis          ... NOT available

Checking pre-screening integrals            ... done (  0.6 sec) Dimension = 328
Save PGC pre-screening integrals            ... done (  0.6 sec) Dimension = 328
Calculate PGC overlap integrals             ... done (  0.8 sec) Dimension = 262
Calculating pre-screening integrals (ORCA)  ... done (  0.9 sec) Dimension = 262
Check shell pair data                       ... done (  0.4 sec)
Shell pair information
Shell pair cut-off parameter TPreSel        ...   2.5e-12
Total number of shell pairs                 ...     53956
Shell pairs after pre-screening             ...     42266
Total number of primitive shell pairs       ...     70194
Primitive shell pairs kept                  ...     50433
          la=0 lb=0:   9589 shell pairs
          la=1 lb=0:  10921 shell pairs
          la=1 lb=1:   2875 shell pairs
          la=2 lb=0:   7567 shell pairs
          la=2 lb=1:   3940 shell pairs
          la=2 lb=2:   1404 shell pairs
          la=3 lb=0:   3054 shell pairs
          la=3 lb=1:   1577 shell pairs
          la=3 lb=2:   1103 shell pairs
          la=3 lb=3:    236 shell pairs

Calculating one electron integrals          ... done (  0.1 sec)
Calculating RI/J V-Matrix + Cholesky decomp.... done (  0.2 sec)
Calculating Nuclear repulsion               ... done (  0.0 sec) ENN=    559.903914020399 Eh

Diagonalization of the overlap matrix:
Smallest eigenvalue                        ... 4.210e-07
Time for diagonalization                   ...    0.222 sec
Threshold for overlap eigenvalues          ... 1.000e-07
Number of eigenvalues below threshold      ... 0

IMPORTANT:
Smallest eigenvalue of S below the DiffSThresh (1.000e-06) while
Thresh>1e-12 and/or TCut>1e-13! In order to avoid SCF convergence issues,
Thresh will be set to at least 1e-12 and TCut to at least 1e-13.
This can be turned off by adding %SCF DiffSThresh -1 END to the input.

Time for construction of square roots      ...    0.205 sec
Total time needed                          ...    0.870 sec

-------------------
DFT GRID GENERATION
-------------------

General Integration Accuracy     IntAcc      ... 4.388
Radial Grid Type                 RadialGrid  ... OptM3 with GC (2021)
Angular Grid (max. ang.)         AngularGrid ... 4 (Lebedev-302)
Angular grid pruning method      GridPruning ... 4 (adaptive)
Weight generation scheme         WeightScheme... mBecke (2022)
Basis function cutoff            BFCut       ... 1.0000e-11
Integration weight cutoff        WCut        ... 1.0000e-14
Partially contracted basis set               ... off
Rotationally invariant grid construction     ... off
Angular grids for H and He will be reduced by one unit
Diffuse basis detected: some atoms will have their outermost
                        angular grid increased by 1.

Total number of grid points                  ...   109649
Total number of batches                      ...     1723
Average number of points per batch           ...       63
Average number of grid points per atom       ...     4767

---------------------
SHARK GRID GENERATION
---------------------

General Integration Accuracy     IntAcc      ... 4.388
Radial Grid Type                 RadialGrid  ... OptM3 with GC (2021)
Angular Grid (max. ang.)         AngularGrid ... 4 (Lebedev-302)
Angular grid pruning method      GridPruning ... 4 (adaptive)
Weight generation scheme         WeightScheme... mBecke (2022)
Basis function cutoff            BFCut       ... 1.0000e-11
Integration weight cutoff        WCut        ... 1.0000e-14
Partially contracted basis set               ... off
Rotationally invariant grid construction     ... off
Angular grids for H and He will be reduced by one unit
Diffuse basis detected: some atoms will have their outermost
                        angular grid increased by 1.
Steep s-basis detected: some atoms will have their radial
                        grid points doubled.

Total number of grid points                  ...   178868
Total number of batches                      ...     2807
Average number of points per batch           ...       63
Average number of grid points per atom       ...     7777

--------------------
COSX GRID GENERATION
--------------------

GRIDX 1
-------
General Integration Accuracy     IntAcc      ... 3.816
Radial Grid Type                 RadialGrid  ... OptM3 with GC (2021)
Angular Grid (max. ang.)         AngularGrid ... 1 (Lebedev-50)
Angular grid pruning method      GridPruning ... 4 (adaptive)
Weight generation scheme         WeightScheme... mBecke (2022)
Basis function cutoff            BFCut       ... 1.0000e-11
Integration weight cutoff        WCut        ... 1.0000e-14
Partially contracted basis set               ... on
Rotationally invariant grid construction     ... off
Angular grids for H and He will be reduced by one unit
Diffuse basis detected: some atoms will have their outermost
                        angular grid increased by 1.

Total number of grid points                  ...    13752
Total number of batches                      ...      119
Average number of points per batch           ...      115
Average number of grid points per atom       ...      598
UseSFitting                                  ... on

GRIDX 2
-------
General Integration Accuracy     IntAcc      ... 4.020
Radial Grid Type                 RadialGrid  ... OptM3 with GC (2021)
Angular Grid (max. ang.)         AngularGrid ... 2 (Lebedev-110)
Angular grid pruning method      GridPruning ... 4 (adaptive)
Weight generation scheme         WeightScheme... mBecke (2022)
Basis function cutoff            BFCut       ... 1.0000e-11
Integration weight cutoff        WCut        ... 1.0000e-14
Partially contracted basis set               ... on
Rotationally invariant grid construction     ... off
Angular grids for H and He will be reduced by one unit
Diffuse basis detected: some atoms will have their outermost
                        angular grid increased by 1.

Total number of grid points                  ...    32896
Total number of batches                      ...      267
Average number of points per batch           ...      123
Average number of grid points per atom       ...     1430
UseSFitting                                  ... on

GRIDX 3
-------
General Integration Accuracy     IntAcc      ... 4.338
Radial Grid Type                 RadialGrid  ... OptM3 with GC (2021)
Angular Grid (max. ang.)         AngularGrid ... 3 (Lebedev-194)
Angular grid pruning method      GridPruning ... 4 (adaptive)
Weight generation scheme         WeightScheme... mBecke (2022)
Basis function cutoff            BFCut       ... 1.0000e-11
Integration weight cutoff        WCut        ... 1.0000e-14
Partially contracted basis set               ... on
Rotationally invariant grid construction     ... off
Angular grids for H and He will be reduced by one unit
Diffuse basis detected: some atoms will have their outermost
                        angular grid increased by 1.

Total number of grid points                  ...    73196
Total number of batches                      ...      585
Average number of points per batch           ...      125
Average number of grid points per atom       ...     3182
UseSFitting                                  ... on
Initializing property integral containers    ... done (  1.0 sec)

SHARK setup successfully completed in  16.7 seconds

Maximum memory used throughout the entire STARTUP-calculation: 85.2 MB


           ************************************************************
           *        Program running with 12 parallel MPI-processes    *
           *              working on a common directory               *
           ************************************************************
-------------------------------------------------------------------------------
                                 ORCA GUESS
                   Start orbitals & Density for SCF / CASSCF
-------------------------------------------------------------------------------

------------
SCF SETTINGS
------------
Hamiltonian:
 Density Functional     Method          .... DFT(GTOs)
 Exchange Functional    Exchange        .... PBE
   PBE kappa parameter   XKappa         ....  0.804000
   PBE mue parameter    XMuePBE         ....  0.219520
 Correlation Functional Correlation     .... PBE
   PBE beta parameter  CBetaPBE         ....  0.066725
 LDA part of GGA corr.  LDAOpt          .... PW91-LDA
 Gradients option       PostSCFGGA      .... off
 Hybrid DFT is turned on
   Fraction HF Exchange ScalHFX         ....  0.250000
   Scaling of DF-GGA-X  ScalDFX         ....  0.750000
   Scaling of DF-GGA-C  ScalDFC         ....  1.000000
   Scaling of DF-LDA-C  ScalLDAC        ....  1.000000
   Perturbative correction              ....  0.000000
   NL short-range parameter             ....  6.900000
 RI-approximation to the Coulomb term is turned on
   Number of AuxJ basis functions       .... 671
   RIJ-COSX (HFX calculated with COS-X)).... on


General Settings:
 Integral files         IntName         .... cs_rporg_018_red_freq_04
 Hartree-Fock type      HFTyp           .... RHF
 Total Charge           Charge          ....    0
 Multiplicity           Mult            ....    1
 Number of Electrons    NEL             ....   80
 Basis Dimension        Dim             ....  782
 Nuclear Repulsion      ENuc            ....    559.9039140204 Eh

Convergence Acceleration:
 AO-DIIS                CNVDIIS         .... on
   Start iteration      DIISMaxIt       ....     0
   Startup error        DIISStart       ....  0.200000
   # of expansion vecs  DIISMaxEq       ....     5
   Bias factor          DIISBfac        ....   1.050
   Max. coefficient     DIISMaxC        ....  10.000
 MO-DIIS                CNVKDIIS        .... off
 Trust-Rad. Augm. Hess. CNVTRAH         .... auto
   Auto Start mean grad. ratio tolernc. ....  1.125000
   Auto Start start iteration           ....    50
   Auto Start num. interpolation iter.  ....    10
   Max. Number of Micro iterations      ....    24
   Max. Number of Macro iterations      .... Maxiter - #DIIS iter
   Number of Davidson start vectors     ....     2
   Converg. threshold    (grad. norm)   ....   1.000e-05
   Grad. Scal. Fac. for Micro threshold ....   0.100
   Minimum threshold for Micro iter.    ....   1.000e-02
   NR start threshold (gradient norm)   ....   1.000e-04
   Initial trust radius                 ....   0.400
   Minimum AH scaling param. (alpha)    ....   1.000
   Maximum AH scaling param. (alpha)    .... 1000.000
   Quad. conv. algorithm                .... NR
   White noise on init. David. guess    .... on
   Maximum white noise                  ....   0.010
   Pseudo random numbers                .... off
   Inactive MOs                         .... canonical
   Orbital update algorithm             .... Taylor
   Preconditioner                       .... Diag
   Full preconditioner red. dimension   ....   250
 SOSCF                  CNVSOSCF        .... on
   Start iteration      SOSCFMaxIt      ....   150
   Startup grad/error   SOSCFStart      ....  0.001000
   Hessian update       SOSCFHessUp     .... L-BFGS
 Level Shifting         CNVShift        .... on
   Level shift para.    LevelShift      ....    0.2500
   Turn off err/grad.   ShiftErr        ....    0.0000
 Zerner damping         CNVZerner       .... off
 Static damping         CNVDamp         .... on
   Fraction old density DampFac         ....    0.8500
   Max. Damping (<1)    DampMax         ....    0.9800
   Min. Damping (>=0)   DampMin         ....    0.0000
   Turn off err/grad.   DampErr         ....    0.0300

SCF Procedure:
 Maximum # iterations   MaxIter         ....  1500
 SCF integral mode      SCFMode         .... Direct
   Integral package                     .... SHARK and LIBINT hybrid scheme
 Reset frequency        DirectResetFreq ....    20
 Integral Threshold     Thresh          ....  1.000e-12 Eh
 Primitive CutOff       TCut            ....  1.000e-13 Eh

Convergence Tolerance:
 Convergence Check Mode ConvCheckMode   .... Total+1el-Energy
 Convergence forced     ConvForced      .... 0
 Energy Change          TolE            ....  1.000e-08 Eh
 1-El. energy change                    ....  1.000e-05 Eh
 Orbital Gradient       TolG            ....  1.000e-05
 Orbital Rotation angle TolX            ....  1.000e-05
 DIIS Error             TolErr          ....  5.000e-07

------------------------------
INITIAL GUESS: MODEL POTENTIAL
------------------------------
Loading Hartree-Fock densities                     ... done
Calculating cut-offs                               ... done
Initializing the effective Hamiltonian             ... done
Setting up the integral package (SHARK)            ... done
Starting the Coulomb interaction                   ... done (   1.3 sec)
Making the grid                                    ... done (   1.0 sec)
Mapping shells                                     ... done
Starting the XC term evaluation                    ... done (   0.5 sec)
  promolecular density results
     # of electrons  =     79.993814776
     EX              =    -62.851141100
     EC              =     -2.640854351
     EX+EC           =    -65.491995451
Transforming the Hamiltonian                       ... done (   0.6 sec)
Diagonalizing the Hamiltonian                      ... done (   0.2 sec)
Back transforming the eigenvectors                 ... done (   0.5 sec)
Now organizing SCF variables                       ... done
                      ------------------
                      INITIAL GUESS DONE (   7.1 sec)
                      ------------------
             **** ENERGY FILE WAS UPDATED (cs_rporg_018_red_freq_04.en.tmp) ****
Finished Guess after  12.3 sec
Maximum memory used throughout the entire GUESS-calculation: 64.8 MB


           ************************************************************
           *        Program running with 12 parallel MPI-processes    *
           *              working on a common directory               *
           ************************************************************

-------------------------------------------------------------------------------------------
                                      ORCA LEAN-SCF
                              memory conserving SCF solver
-------------------------------------------------------------------------------------------

--------------------
CPCM SOLVATION MODEL
--------------------
CPCM parameters:
  Epsilon                                         ...      35.6880
  Refrac                                          ...       1.3442
  Rsolv                                           ...       2.1900
  Surface type                                    ...    GEPOL SES
  Discretization scheme                           ... Constant num. charges
  Epsilon function type                           ...         CPCM
Solvent:                                          ... ACETONITRILE
SMD-CDS solvent descriptors:
  Soln                                            ...       1.3442
  Soln25                                          ...       1.3416
  Sola                                            ...       0.0700
  Solb                                            ...       0.3200
  Solg                                            ...      41.2500
  Solc                                            ...       0.0000
  Solh                                            ...       0.0000
Radii:
  Scheme                                          ... Element-dependent radii
  Radius for C  used is    3.4960 Bohr (=   1.8500 Ang.)
  Radius for H  used is    2.2677 Bohr (=   1.2000 Ang.)
  Radius for O  used is    4.0969 Bohr (=   2.1680 Ang.)
Calculating surface                               ...        done! (  0.0s)
Cavity surface points                             ...          779
Cavity Volume                                     ...    1226.5433
Cavity Surface-area                               ...     702.1855
Calculating surface distance matrix               ...        done! (  0.0s)
Performing Cholesky decomposition & store         ...        done! (  0.1s)
Overall time for CPCM initialization              ...                 0.1s

----------------------------------------D-I-I-S--------------------------------------------
Iteration    Energy (Eh)           Delta-E    RMSDP     MaxDP     DIISErr   Damp  Time(sec)
-------------------------------------------------------------------------------------------
               ***  Starting incremental Fock matrix formation  ***
    1    -462.8539322242706930     0.00e+00  1.21e-03  1.00e-01  1.93e-01  0.850  30.0
    2    -462.9142621066366701    -6.03e-02  1.13e-03  8.55e-02  1.49e-01  0.850  27.4
                               ***Turning on AO-DIIS***
    3    -462.9574301523491613    -4.32e-02  8.70e-04  7.62e-02  1.07e-01  0.850  25.8
    4    -462.9867844686132230    -2.94e-02  7.27e-04  6.63e-02  8.56e-02  0.850  26.7
    5    -463.0085302525246789    -2.17e-02  6.19e-04  5.74e-02  7.15e-02  0.850  26.5
    6    -463.0256705254495273    -1.71e-02  5.29e-04  4.94e-02  6.05e-02  0.850  27.1
    7    -463.0396320389822904    -1.40e-02  4.50e-04  4.23e-02  5.11e-02  0.850  27.3
    8    -463.0511128866861554    -1.15e-02  3.82e-04  3.60e-02  4.29e-02  0.850  26.7
    9    -463.0605595279986346    -9.45e-03  3.24e-04  3.05e-02  3.60e-02  0.850  26.7
   10    -463.0683561866220543    -7.80e-03  2.75e-04  2.58e-02  3.03e-02  0.850  26.7
   11    -463.0748190248813216    -6.46e-03  2.34e-04  2.18e-02  2.54e-02  0.850  26.6
   12    -463.0801978325210939    -5.38e-03  1.32e-03  1.24e-01  2.14e-02  0.000  25.8
   13    -463.1088280083589552    -2.86e-02  2.75e-05  2.48e-03  1.49e-03  0.000  25.7
                              *** Initializing SOSCF ***
---------------------------------------S-O-S-C-F--------------------------------------
Iteration    Energy (Eh)           Delta-E    RMSDP     MaxDP     MaxGrad    Time(sec)
--------------------------------------------------------------------------------------
   14    -463.1088413454201600    -1.33e-05  7.50e-06  5.31e-04  3.49e-04    27.8
               *** Restarting incremental Fock matrix formation ***
   15    -463.1088405989048624     7.47e-07  1.67e-03  2.03e-01  4.67e-05    27.8
   16    -463.1088415256676853    -9.27e-07  3.78e-04  3.86e-02  4.87e-05    27.4
   17    -463.1088418366903170    -3.11e-07  4.04e-04  4.16e-02  1.95e-05    26.5
   18    -463.1088417838950591     5.28e-08  2.31e-05  2.45e-03  5.78e-06    26.7
   19    -463.1088417915626678    -7.67e-09  2.79e-05  3.02e-03  7.00e-06    25.0
                 **** Energy Check signals convergence ****

               *****************************************************
               *                     SUCCESS                       *
               *           SCF CONVERGED AFTER  19 CYCLES          *
               *****************************************************

Recomputing exchange energy using gridx3       ... done (   21.005 sec)
Old exchange energy                            :    -16.089821351 Eh
New exchange energy                            :    -16.089874987 Eh
Exchange energy change after final integration :     -0.000053636 Eh
Total energy after final integration           :   -463.108895427 Eh

SMD CDS free energy correction energy :                -1.74451     Kcal/mol
Total Energy after SMD CDS correction =              -463.111675482 Eh
             **** ENERGY FILE WAS UPDATED (cs_rporg_018_red_freq_04.en.tmp) ****

----------------
TOTAL SCF ENERGY
----------------

Total Energy       :       -463.11167548229270 Eh          -12601.90936 eV

Components:
Nuclear Repulsion  :        559.90391402039893 Eh           15235.76007 eV
Electronic Energy  :      -1023.00022387909110 Eh          -27837.25131 eV
One Electron Energy:      -1736.66969108208468 Eh          -47257.18480 eV
Two Electron Energy:        713.66946720299359 Eh           19419.93349 eV
CPCM Dielectric    :         -0.01253193287048 Eh              -0.34101 eV
SMD CDS (Gcds)     :         -0.00278005488812 Eh              -0.07565 eV

Virial components:
Potential Energy   :       -923.51589533423567 Eh          -25130.14510 eV
Kinetic Energy     :        460.40421985194291 Eh           12528.23575 eV
Virial Ratio       :          2.00588060559310

DFT components:
N(Alpha)           :       39.999926405077 electrons
N(Beta)            :       39.999926405077 electrons
N(Total)           :       79.999852810153 electrons
E(X)               :      -48.111442882933 Eh       
E(C)               :       -2.646164225540 Eh       
E(XC)              :      -50.757607108474 Eh       

CPCM Solvation Model Properties:
Surface-charge          :         -0.04900107990072
Corrected charge        :          0.00000000000000
Outlying charge corr.   :          0.00015767792029 Eh               0.00429 eV
Free-energy (cav+disp)  :         -0.00278005488812 Eh              -0.07565 eV

---------------
SCF CONVERGENCE
---------------

  Last Energy change         ...    7.6676e-09  Tolerance :   1.0000e-08
  Last MAX-Density change    ...    3.0176e-03  Tolerance :   1.0000e-07
  Last RMS-Density change    ...    2.7887e-05  Tolerance :   5.0000e-09
  Last DIIS Error            ...    3.4918e-04  Tolerance :   5.0000e-07
  Last Orbital Gradient      ...    6.9965e-06  Tolerance :   1.0000e-05
  Last Orbital Rotation      ...    1.3449e-05  Tolerance :   1.0000e-05


----------------
ORBITAL ENERGIES
----------------

  NO   OCC          E(Eh)            E(eV) 
   0   2.0000     -19.242794      -523.6230 
   1   2.0000     -10.287918      -279.9485 
   2   2.0000     -10.262282      -279.2509 
   3   2.0000     -10.241165      -278.6763 
   4   2.0000     -10.228983      -278.3448 
   5   2.0000     -10.227795      -278.3124 
   6   2.0000     -10.222567      -278.1702 
   7   2.0000     -10.222011      -278.1551 
   8   2.0000     -10.221840      -278.1504 
   9   2.0000     -10.219116      -278.0763 
  10   2.0000     -10.211492      -277.8688 
  11   2.0000      -1.101679       -29.9782 
  12   2.0000      -0.888424       -24.1752 
  13   2.0000      -0.826254       -22.4835 
  14   2.0000      -0.781499       -21.2657 
  15   2.0000      -0.774285       -21.0694 
  16   2.0000      -0.714196       -19.4343 
  17   2.0000      -0.700682       -19.0665 
  18   2.0000      -0.625869       -17.0308 
  19   2.0000      -0.618079       -16.8188 
  20   2.0000      -0.566838       -15.4245 
  21   2.0000      -0.539807       -14.6889 
  22   2.0000      -0.503271       -13.6947 
  23   2.0000      -0.495677       -13.4881 
  24   2.0000      -0.482495       -13.1294 
  25   2.0000      -0.474209       -12.9039 
  26   2.0000      -0.445270       -12.1164 
  27   2.0000      -0.431093       -11.7306 
  28   2.0000      -0.421857       -11.4793 
  29   2.0000      -0.410880       -11.1806 
  30   2.0000      -0.399583       -10.8732 
  31   2.0000      -0.396660       -10.7937 
  32   2.0000      -0.379501       -10.3268 
  33   2.0000      -0.364052        -9.9064 
  34   2.0000      -0.354480        -9.6459 
  35   2.0000      -0.346190        -9.4203 
  36   2.0000      -0.336318        -9.1517 
  37   2.0000      -0.304873        -8.2960 
  38   2.0000      -0.244295        -6.6476 
  39   2.0000      -0.229392        -6.2421 
  40   0.0000      -0.032277        -0.8783 
  41   0.0000      -0.004653        -0.1266 
  42   0.0000       0.002539         0.0691 
  43   0.0000       0.010496         0.2856 
  44   0.0000       0.015023         0.4088 
  45   0.0000       0.024650         0.6708 
  46   0.0000       0.027194         0.7400 
  47   0.0000       0.028277         0.7695 
  48   0.0000       0.035823         0.9748 
  49   0.0000       0.039374         1.0714 
  50   0.0000       0.044489         1.2106 
*Only the first 10 virtual orbitals were printed.

                    ********************************
                    * MULLIKEN POPULATION ANALYSIS *
                    ********************************

-----------------------
MULLIKEN ATOMIC CHARGES
-----------------------
   0 C :   -0.974217
   1 C :    0.724960
   2 C :   -0.234710
   3 C :   -1.079434
   4 C :   -0.632344
   5 C :    1.402757
   6 C :   -0.168303
   7 C :   -0.498530
   8 C :   -0.811056
   9 H :    0.240024
  10 H :    0.241756
  11 H :    0.280748
  12 H :    0.216926
  13 H :    0.107110
  14 H :    0.335772
  15 H :    0.638128
  16 H :    0.353956
  17 O :   -0.590502
  18 C :   -0.706270
  19 H :    0.264728
  20 H :    0.297821
  21 H :    0.295975
  22 H :    0.294708
Sum of atomic charges:    0.0000000

--------------------------------
MULLIKEN REDUCED ORBITAL CHARGES
--------------------------------
  0 C s       :     4.227394  s :     4.227394
      pz      :     1.000025  p :     2.662282
      px      :     0.709253
      py      :     0.953004
      dz2     :    -0.001519  d :     0.113069
      dxz     :     0.030887
      dyz     :     0.010857
      dx2y2   :     0.060270
      dxy     :     0.012574
      f0      :     0.000374  f :    -0.028528
      f+1     :    -0.001722
      f-1     :     0.001046
      f+2     :    -0.000974
      f-2     :     0.000361
      f+3     :    -0.021471
      f-3     :    -0.006143

  1 C s       :     3.151454  s :     3.151454
      pz      :     0.941010  p :     2.165194
      px      :     0.717221
      py      :     0.506964
      dz2     :    -0.015311  d :    -0.039248
      dxz     :     0.049514
      dyz     :     0.007113
      dx2y2   :    -0.043692
      dxy     :    -0.036871
      f0      :     0.003551  f :    -0.002360
      f+1     :     0.001466
      f-1     :     0.000091
      f+2     :     0.001240
      f-2     :     0.013548
      f+3     :    -0.021996
      f-3     :    -0.000260

  2 C s       :     3.641014  s :     3.641014
      pz      :     1.014740  p :     2.557257
      px      :     0.852690
      py      :     0.689827
      dz2     :    -0.005718  d :     0.053612
      dxz     :     0.001405
      dyz     :     0.000588
      dx2y2   :     0.010491
      dxy     :     0.046847
      f0      :     0.000354  f :    -0.017172
      f+1     :     0.000751
      f-1     :     0.000506
      f+2     :    -0.002071
      f-2     :     0.002161
      f+3     :    -0.014483
      f-3     :    -0.004392

  3 C s       :     3.962955  s :     3.962955
      pz      :     0.967622  p :     2.968564
      px      :     1.119560
      py      :     0.881383
      dz2     :    -0.002423  d :     0.161825
      dxz     :     0.035465
      dyz     :     0.015467
      dx2y2   :     0.079130
      dxy     :     0.034187
      f0      :     0.001696  f :    -0.013909
      f+1     :     0.000352
      f-1     :     0.000815
      f+2     :     0.000277
      f-2     :    -0.000405
      f+3     :    -0.014230
      f-3     :    -0.002414

  4 C s       :     3.824051  s :     3.824051
      pz      :     1.012977  p :     2.749251
      px      :     0.623871
      py      :     1.112404
      dz2     :    -0.016287  d :     0.073282
      dxz     :     0.017071
      dyz     :     0.005934
      dx2y2   :     0.063061
      dxy     :     0.003502
      f0      :     0.001072  f :    -0.014240
      f+1     :     0.001031
      f-1     :     0.000721
      f+2     :    -0.000951
      f-2     :     0.000245
      f+3     :    -0.013582
      f-3     :    -0.002775

  5 C s       :     2.760666  s :     2.760666
      pz      :     0.948917  p :     2.016091
      px      :     0.260374
      py      :     0.806800
      dz2     :    -0.030432  d :    -0.086208
      dxz     :    -0.026580
      dyz     :    -0.003897
      dx2y2   :     0.021556
      dxy     :    -0.046855
      f0      :     0.001977  f :    -0.093306
      f+1     :    -0.003834
      f-1     :    -0.001579
      f+2     :    -0.001266
      f-2     :     0.000780
      f+3     :    -0.072127
      f-3     :    -0.017256

  6 C s       :     3.653630  s :     3.653630
      pz      :     1.023350  p :     2.571900
      px      :     0.628320
      py      :     0.920230
      dz2     :     0.007105  d :    -0.030234
      dxz     :    -0.004433
      dyz     :     0.012150
      dx2y2   :     0.055255
      dxy     :    -0.100312
      f0      :     0.001196  f :    -0.026992
      f+1     :    -0.001480
      f-1     :     0.000004
      f+2     :    -0.001060
      f-2     :     0.000871
      f+3     :    -0.024229
      f-3     :    -0.002295

  7 C s       :     3.659101  s :     3.659101
      pz      :     0.926498  p :     2.724287
      px      :     0.778413
      py      :     1.019376
      dz2     :    -0.000713  d :     0.122729
      dxz     :     0.021733
      dyz     :     0.010156
      dx2y2   :     0.093205
      dxy     :    -0.001652
      f0      :     0.000065  f :    -0.007588
      f+1     :     0.000707
      f-1     :     0.000346
      f+2     :    -0.000987
      f-2     :     0.001113
      f+3     :    -0.002129
      f-3     :    -0.006703

  8 C s       :     3.440979  s :     3.440979
      pz      :     1.131265  p :     3.262057
      px      :     0.998685
      py      :     1.132107
      dz2     :     0.014009  d :     0.096636
      dxz     :     0.042242
      dyz     :     0.003616
      dx2y2   :     0.032978
      dxy     :     0.003790
      f0      :     0.002575  f :     0.011384
      f+1     :     0.001291
      f-1     :     0.000858
      f+2     :    -0.001410
      f-2     :     0.002780
      f+3     :     0.002977
      f-3     :     0.002315

  9 H s       :     0.704708  s :     0.704708
      pz      :     0.013557  p :     0.048539
      px      :     0.021416
      py      :     0.013566
      dz2     :     0.002146  d :     0.006728
      dxz     :     0.000378
      dyz     :     0.001037
      dx2y2   :     0.002193
      dxy     :     0.000975

 10 H s       :     0.702512  s :     0.702512
      pz      :     0.014272  p :     0.049037
      px      :     0.021249
      py      :     0.013516
      dz2     :     0.002185  d :     0.006695
      dxz     :     0.000334
      dyz     :     0.000959
      dx2y2   :     0.002237
      dxy     :     0.000980

 11 H s       :     0.665580  s :     0.665580
      pz      :     0.011056  p :     0.046842
      px      :     0.012244
      py      :     0.023541
      dz2     :     0.000092  d :     0.006831
      dxz     :     0.001192
      dyz     :     0.002668
      dx2y2   :    -0.000962
      dxy     :     0.003840

 12 H s       :     0.727159  s :     0.727159
      pz      :     0.021886  p :     0.051245
      px      :     0.023899
      py      :     0.005460
      dz2     :     0.000070  d :     0.004671
      dxz     :     0.000450
      dyz     :     0.003345
      dx2y2   :    -0.000626
      dxy     :     0.001432

 13 H s       :     0.874706  s :     0.874706
      pz      :     0.021888  p :     0.012761
      px      :    -0.019425
      py      :     0.010297
      dz2     :     0.000330  d :     0.005423
      dxz     :     0.000569
      dyz     :     0.003346
      dx2y2   :     0.000382
      dxy     :     0.000796

 14 H s       :     0.680763  s :     0.680763
      pz      :     0.021378  p :    -0.021238
      px      :    -0.033753
      py      :    -0.008863
      dz2     :     0.000363  d :     0.004702
      dxz     :     0.003343
      dyz     :     0.001477
      dx2y2   :    -0.000686
      dxy     :     0.000205

 15 H s       :     0.357002  s :     0.357002
      pz      :     0.019969  p :    -0.002968
      px      :     0.012574
      py      :    -0.035511
      dz2     :     0.000080  d :     0.007837
      dxz     :    -0.000253
      dyz     :     0.004331
      dx2y2   :     0.001102
      dxy     :     0.002577

 16 H s       :     0.637260  s :     0.637260
      pz      :     0.013409  p :     0.001232
      px      :    -0.001458
      py      :    -0.010718
      dz2     :     0.000106  d :     0.007553
      dxz     :     0.004756
      dyz     :    -0.000493
      dx2y2   :     0.001232
      dxy     :     0.001952

 17 O s       :     4.092444  s :     4.092444
      pz      :     1.769606  p :     4.410698
      px      :     1.123349
      py      :     1.517743
      dz2     :     0.001900  d :     0.080382
      dxz     :     0.019749
      dyz     :     0.011579
      dx2y2   :     0.023913
      dxy     :     0.023241
      f0      :     0.000947  f :     0.006979
      f+1     :     0.000252
      f-1     :     0.000174
      f+2     :     0.000326
      f-2     :     0.001503
      f+3     :     0.002285
      f-3     :     0.001492

 18 C s       :     3.476737  s :     3.476737
      pz      :     1.146281  p :     3.007346
      px      :     0.771097
      py      :     1.089968
      dz2     :     0.013390  d :     0.190991
      dxz     :     0.042015
      dyz     :     0.061478
      dx2y2   :     0.024900
      dxy     :     0.049208
      f0      :     0.003422  f :     0.031196
      f+1     :     0.001558
      f-1     :     0.003484
      f+2     :     0.007972
      f-2     :    -0.000129
      f+3     :     0.013966
      f-3     :     0.000923

 19 H s       :     0.700790  s :     0.700790
      pz      :     0.011504  p :     0.033375
      px      :     0.012096
      py      :     0.009775
      dz2     :    -0.001196  d :     0.001107
      dxz     :     0.000213
      dyz     :     0.003034
      dx2y2   :    -0.001583
      dxy     :     0.000638

 20 H s       :     0.671516  s :     0.671516
      pz      :     0.013944  p :     0.026078
      px      :     0.005558
      py      :     0.006576
      dz2     :     0.002324  d :     0.004586
      dxz     :     0.001104
      dyz     :     0.000357
      dx2y2   :     0.000706
      dxy     :     0.000095

 21 H s       :     0.673013  s :     0.673013
      pz      :     0.014152  p :     0.026439
      px      :     0.005549
      py      :     0.006738
      dz2     :     0.002332  d :     0.004573
      dxz     :     0.001098
      dyz     :     0.000351
      dx2y2   :     0.000699
      dxy     :     0.000093

 22 H s       :     0.706107  s :     0.706107
      pz      :     0.017072  p :    -0.005399
      px      :    -0.016705
      py      :    -0.005766
      dz2     :    -0.000284  d :     0.004584
      dxz     :     0.000263
      dyz     :     0.004129
      dx2y2   :     0.000304
      dxy     :     0.000172



                     *******************************
                     * LOEWDIN POPULATION ANALYSIS *
                     *******************************

----------------------
LOEWDIN ATOMIC CHARGES
----------------------
   0 C :    0.206614
   1 C :   -0.408336
   2 C :    0.199942
   3 C :    0.187190
   4 C :    0.197196
   5 C :   -0.161824
   6 C :    0.203100
   7 C :    0.202497
   8 C :    0.558366
   9 H :   -0.167228
  10 H :   -0.167298
  11 H :   -0.176340
  12 H :   -0.185793
  13 H :   -0.186097
  14 H :   -0.190932
  15 H :   -0.171577
  16 H :   -0.197265
  17 O :    0.601462
  18 C :    0.339087
  19 H :   -0.175112
  20 H :   -0.167661
  21 H :   -0.167651
  22 H :   -0.172337

-------------------------------
LOEWDIN REDUCED ORBITAL CHARGES
-------------------------------
  0 C s       :     2.472271  s :     2.472271
      pz      :     0.621565  p :     2.283115
      px      :     0.838457
      py      :     0.823094
      dz2     :     0.070147  d :     0.681628
      dxz     :     0.128150
      dyz     :     0.040778
      dx2y2   :     0.255322
      dxy     :     0.187232
      f0      :     0.022215  f :     0.356373
      f+1     :     0.034280
      f-1     :     0.020324
      f+2     :     0.023525
      f-2     :     0.057162
      f+3     :     0.119714
      f-3     :     0.079153

  1 C s       :     2.455387  s :     2.455387
      pz      :     0.609098  p :     2.215349
      px      :     0.777570
      py      :     0.828681
      dz2     :     0.099871  d :     1.088113
      dxz     :     0.165388
      dyz     :     0.169220
      dx2y2   :     0.302508
      dxy     :     0.351126
      f0      :     0.038415  f :     0.649488
      f+1     :     0.041889
      f-1     :     0.042564
      f+2     :     0.062803
      f-2     :     0.101134
      f+3     :     0.242997
      f-3     :     0.119686

  2 C s       :     2.472805  s :     2.472805
      pz      :     0.632777  p :     2.300060
      px      :     0.830672
      py      :     0.836611
      dz2     :     0.069505  d :     0.686122
      dxz     :     0.060246
      dyz     :     0.107586
      dx2y2   :     0.223301
      dxy     :     0.225484
      f0      :     0.021049  f :     0.341071
      f+1     :     0.022039
      f-1     :     0.030265
      f+2     :     0.039259
      f-2     :     0.038182
      f+3     :     0.120099
      f-3     :     0.070178

  3 C s       :     2.482636  s :     2.482636
      pz      :     0.592970  p :     2.273648
      px      :     0.852253
      py      :     0.828424
      dz2     :     0.067196  d :     0.713811
      dxz     :     0.144989
      dyz     :     0.040566
      dx2y2   :     0.281939
      dxy     :     0.179121
      f0      :     0.019498  f :     0.342715
      f+1     :     0.031178
      f-1     :     0.019900
      f+2     :     0.015790
      f-2     :     0.059941
      f+3     :     0.128095
      f-3     :     0.068313

  4 C s       :     2.470992  s :     2.470992
      pz      :     0.620571  p :     2.289069
      px      :     0.834022
      py      :     0.834476
      dz2     :     0.069575  d :     0.701975
      dxz     :     0.074410
      dyz     :     0.093815
      dx2y2   :     0.190691
      dxy     :     0.273483
      f0      :     0.020563  f :     0.340768
      f+1     :     0.024791
      f-1     :     0.026596
      f+2     :     0.055533
      f-2     :     0.017802
      f+3     :     0.126482
      f-3     :     0.069002

  5 C s       :     2.458810  s :     2.458810
      pz      :     0.595938  p :     2.261743
      px      :     0.820221
      py      :     0.845584
      dz2     :     0.088015  d :     0.941218
      dxz     :     0.148864
      dyz     :     0.131944
      dx2y2   :     0.277479
      dxy     :     0.294916
      f0      :     0.029156  f :     0.500054
      f+1     :     0.033822
      f-1     :     0.034231
      f+2     :     0.063100
      f-2     :     0.051325
      f+3     :     0.200087
      f-3     :     0.088331

  6 C s       :     2.482031  s :     2.482031
      pz      :     0.626064  p :     2.289709
      px      :     0.854906
      py      :     0.808738
      dz2     :     0.070699  d :     0.705543
      dxz     :     0.142158
      dyz     :     0.023159
      dx2y2   :     0.260805
      dxy     :     0.208723
      f0      :     0.019665  f :     0.319617
      f+1     :     0.033393
      f-1     :     0.017441
      f+2     :     0.019431
      f-2     :     0.036518
      f+3     :     0.130085
      f-3     :     0.063085

  7 C s       :     2.486782  s :     2.486782
      pz      :     0.590639  p :     2.255889
      px      :     0.845611
      py      :     0.819640
      dz2     :     0.064601  d :     0.732694
      dxz     :     0.173100
      dyz     :     0.017959
      dx2y2   :     0.269523
      dxy     :     0.207511
      f0      :     0.024721  f :     0.322138
      f+1     :     0.025407
      f-1     :     0.017741
      f+2     :     0.027112
      f-2     :     0.040230
      f+3     :     0.136855
      f-3     :     0.050072

  8 C s       :     2.456950  s :     2.456950
      pz      :     0.773492  p :     2.293199
      px      :     0.753849
      py      :     0.765858
      dz2     :     0.078550  d :     0.509321
      dxz     :     0.160199
      dyz     :     0.022009
      dx2y2   :     0.146556
      dxy     :     0.102007
      f0      :     0.015338  f :     0.182164
      f+1     :     0.027067
      f-1     :     0.015064
      f+2     :     0.015522
      f-2     :     0.021615
      f+3     :     0.058020
      f-3     :     0.029538

  9 H s       :     0.627309  s :     0.627309
      pz      :     0.130104  p :     0.315820
      px      :     0.097099
      py      :     0.088617
      dz2     :     0.077120  d :     0.224100
      dxz     :     0.045184
      dyz     :     0.042116
      dx2y2   :     0.033851
      dxy     :     0.025829

 10 H s       :     0.627310  s :     0.627310
      pz      :     0.129538  p :     0.315858
      px      :     0.097353
      py      :     0.088967
      dz2     :     0.077342  d :     0.224131
      dxz     :     0.044701
      dyz     :     0.041103
      dx2y2   :     0.034686
      dxy     :     0.026299

 11 H s       :     0.624730  s :     0.624730
      pz      :     0.087774  p :     0.320747
      px      :     0.087851
      py      :     0.145121
      dz2     :     0.016467  d :     0.230863
      dxz     :     0.011848
      dyz     :     0.076984
      dx2y2   :     0.045116
      dxy     :     0.080448

 12 H s       :     0.642268  s :     0.642268
      pz      :     0.076049  p :     0.314876
      px      :     0.090317
      py      :     0.148509
      dz2     :     0.026284  d :     0.228649
      dxz     :     0.006603
      dyz     :     0.058089
      dx2y2   :     0.048436
      dxy     :     0.089237

 13 H s       :     0.633763  s :     0.633763
      pz      :     0.081625  p :     0.317513
      px      :     0.091717
      py      :     0.144171
      dz2     :     0.026580  d :     0.234821
      dxz     :     0.006207
      dyz     :     0.062084
      dx2y2   :     0.054923
      dxy     :     0.085026

 14 H s       :     0.640179  s :     0.640179
      pz      :     0.085130  p :     0.319314
      px      :     0.132869
      py      :     0.101315
      dz2     :     0.026648  d :     0.231439
      dxz     :     0.043565
      dyz     :     0.023894
      dx2y2   :     0.083859
      dxy     :     0.053474

 15 H s       :     0.656765  s :     0.656765
      pz      :     0.081638  p :     0.300120
      px      :     0.079273
      py      :     0.139209
      dz2     :     0.022992  d :     0.214692
      dxz     :     0.005824
      dyz     :     0.057881
      dx2y2   :     0.047087
      dxy     :     0.080908

 16 H s       :     0.634499  s :     0.634499
      pz      :     0.090283  p :     0.328655
      px      :     0.144714
      py      :     0.093658
      dz2     :     0.024611  d :     0.234112
      dxz     :     0.054892
      dyz     :     0.014778
      dx2y2   :     0.065230
      dxy     :     0.074601

 17 O s       :     2.975006  s :     2.975006
      pz      :     1.374328  p :     3.834963
      px      :     1.138037
      py      :     1.322598
      dz2     :     0.040759  d :     0.461734
      dxz     :     0.098726
      dyz     :     0.040934
      dx2y2   :     0.143563
      dxy     :     0.137753
      f0      :     0.013049  f :     0.126835
      f+1     :     0.010350
      f-1     :     0.004982
      f+2     :     0.006294
      f-2     :     0.022984
      f+3     :     0.039356
      f-3     :     0.029821

 18 C s       :     2.458055  s :     2.458055
      pz      :     0.807587  p :     2.221759
      px      :     0.623071
      py      :     0.791100
      dz2     :     0.098718  d :     0.668847
      dxz     :     0.123350
      dyz     :     0.118194
      dx2y2   :     0.112489
      dxy     :     0.216097
      f0      :     0.035498  f :     0.312251
      f+1     :     0.035336
      f-1     :     0.024940
      f+2     :     0.048288
      f-2     :     0.023462
      f+3     :     0.080350
      f-3     :     0.064378

 19 H s       :     0.648396  s :     0.648396
      pz      :     0.091131  p :     0.301532
      px      :     0.083817
      py      :     0.126584
      dz2     :     0.016508  d :     0.225184
      dxz     :     0.023286
      dyz     :     0.070833
      dx2y2   :     0.075011
      dxy     :     0.039546

 20 H s       :     0.633011  s :     0.633011
      pz      :     0.132747  p :     0.310072
      px      :     0.065375
      py      :     0.111949
      dz2     :     0.078198  d :     0.224578
      dxz     :     0.033546
      dyz     :     0.052112
      dx2y2   :     0.026400
      dxy     :     0.034323

 21 H s       :     0.633046  s :     0.633046
      pz      :     0.132769  p :     0.310049
      px      :     0.065349
      py      :     0.111930
      dz2     :     0.078183  d :     0.224556
      dxz     :     0.033584
      dyz     :     0.052129
      dx2y2   :     0.026361
      dxy     :     0.034299

 22 H s       :     0.640338  s :     0.640338
      pz      :     0.081924  p :     0.306795
      px      :     0.085908
      py      :     0.138963
      dz2     :     0.024881  d :     0.225204
      dxz     :     0.004679
      dyz     :     0.061579
      dx2y2   :     0.054082
      dxy     :     0.079983



                      *****************************
                      * MAYER POPULATION ANALYSIS *
                      *****************************

  NA   - Mulliken gross atomic population
  ZA   - Total nuclear charge
  QA   - Mulliken gross atomic charge
  VA   - Mayer's total valence
  BVA  - Mayer's bonded valence
  FA   - Mayer's free valence

  ATOM       NA         ZA         QA         VA         BVA        FA
  0 C      6.9742     6.0000    -0.9742     2.1932     2.1932     0.0000
  1 C      5.2750     6.0000     0.7250     2.1311     2.1311     0.0000
  2 C      6.2347     6.0000    -0.2347     2.7594     2.7594     0.0000
  3 C      7.0794     6.0000    -1.0794     2.3779     2.3779     0.0000
  4 C      6.6323     6.0000    -0.6323     2.4365     2.4365     0.0000
  5 C      4.5972     6.0000     1.4028     0.8334     0.8334    -0.0000
  6 C      6.1683     6.0000    -0.1683     2.3552     2.3552     0.0000
  7 C      6.4985     6.0000    -0.4985     3.0563     3.0563     0.0000
  8 C      6.8111     6.0000    -0.8111     3.6792     3.6792    -0.0000
  9 H      0.7600     1.0000     0.2400     0.9873     0.9873    -0.0000
 10 H      0.7582     1.0000     0.2418     0.9871     0.9871    -0.0000
 11 H      0.7193     1.0000     0.2807     0.9734     0.9734     0.0000
 12 H      0.7831     1.0000     0.2169     1.0271     1.0271     0.0000
 13 H      0.8929     1.0000     0.1071     1.1085     1.1085    -0.0000
 14 H      0.6642     1.0000     0.3358     0.7549     0.7549    -0.0000
 15 H      0.3619     1.0000     0.6381     0.3663     0.3663     0.0000
 16 H      0.6460     1.0000     0.3540     0.8307     0.8307     0.0000
 17 O      8.5905     8.0000    -0.5905     1.5647     1.5647    -0.0000
 18 C      6.7063     6.0000    -0.7063     3.7362     3.7362    -0.0000
 19 H      0.7353     1.0000     0.2647     0.9701     0.9701    -0.0000
 20 H      0.7022     1.0000     0.2978     0.9248     0.9248    -0.0000
 21 H      0.7040     1.0000     0.2960     0.9262     0.9262    -0.0000
 22 H      0.7053     1.0000     0.2947     0.8642     0.8642    -0.0000

  Mayer bond orders larger than 0.100000
B(  0-C ,  1-C ) :   0.7188 B(  0-C ,  2-C ) :  -0.1305 B(  0-C ,  3-C ) :   0.1124 
B(  0-C ,  4-C ) :  -0.2312 B(  0-C ,  5-C ) :   0.3603 B(  0-C ,  6-C ) :  -0.2610 
B(  0-C ,  7-C ) :   0.1890 B(  0-C , 17-O ) :   0.3104 B(  0-C , 22-H ) :   0.9517 
B(  1-C ,  2-C ) :   1.1250 B(  1-C ,  4-C ) :  -0.1332 B(  1-C , 17-O ) :   0.2552 
B(  2-C ,  3-C ) :   1.1475 B(  2-C , 16-H ) :   0.8959 B(  2-C , 17-O ) :  -0.1606 
B(  2-C , 18-C ) :  -0.1264 B(  3-C ,  4-C ) :   1.1120 B(  3-C ,  5-C ) :  -0.1208 
B(  3-C , 14-H ) :  -0.1048 B(  3-C , 15-H ) :   0.2252 B(  4-C ,  5-C ) :   0.6690 
B(  4-C , 14-H ) :   0.9103 B(  5-C ,  6-C ) :   0.1361 B(  5-C ,  7-C ) :  -0.1506 
B(  5-C ,  8-C ) :   0.1232 B(  5-C , 12-H ) :  -0.1122 B(  5-C , 17-O ) :   0.1035 
B(  6-C ,  7-C ) :   1.0759 B(  6-C , 13-H ) :   1.2112 B(  7-C ,  8-C ) :   0.8120 
B(  7-C , 12-H ) :   1.2193 B(  8-C ,  9-H ) :   0.9643 B(  8-C , 10-H ) :   0.9634 
B(  8-C , 11-H ) :   0.9166 B( 17-O , 18-C ) :   1.0015 B( 18-C , 19-H ) :   0.9415 
B( 18-C , 20-H ) :   0.9047 B( 18-C , 21-H ) :   0.9074 

-------
TIMINGS
-------

Total SCF time: 0 days 0 hours 9 min 8 sec 

Total time                  ....     548.271 sec
Sum of individual times     ....     537.079 sec  ( 98.0%)

SCF preparation             ....       5.799 sec  (  1.1%)
Fock matrix formation       ....     362.303 sec  ( 66.1%)
  Startup                   ....      30.747 sec  (  8.5% of F)
  Split-RI-J                ....      58.244 sec  ( 16.1% of F)
  Chain of spheres X        ....     164.040 sec  ( 45.3% of F)
  XC integration            ....      52.901 sec  ( 14.6% of F)
    XC Preparation          ....       0.000 sec  (  0.0% of XC)
    Basis function eval.    ....       5.314 sec  ( 10.0% of XC)
    Density eval.           ....      10.218 sec  ( 19.3% of XC)
    XC-Functional eval.     ....       0.218 sec  (  0.4% of XC)
    XC-Potential eval.      ....      13.888 sec  ( 26.3% of XC)
  CPCM terms                ....      22.843 sec  (  6.3% of F)
Diagonalization             ....       0.000 sec  (  0.0%)
Density matrix formation    ....      48.732 sec  (  8.9%)
Total Energy calculation    ....      29.331 sec  (  5.3%)
Population analysis         ....       5.038 sec  (  0.9%)
Orbital Transformation      ....       4.500 sec  (  0.8%)
Orbital Orthonormalization  ....       0.000 sec  (  0.0%)
DIIS solution               ....      68.820 sec  ( 12.6%)
SOSCF solution              ....      12.556 sec  (  2.3%)
Finished LeanSCF after 551.3 sec

Maximum memory used throughout the entire LEANSCF-calculation: 119.1 MB


           ************************************************************
           *        Program running with 12 parallel MPI-processes    *
           *              working on a common directory               *
           ************************************************************

------------------------------------------------------------------------------
                         ORCA PROPERTY INTEGRAL CALCULATIONS
------------------------------------------------------------------------------

GBWName                                   ... cs_rporg_018_red_freq_04.gbw
Number of atoms                           ...     23
Number of basis functions                 ...    848
Max core memory                           ...   5000 MB

Dipole integrals                          ... YES
Quadrupole integrals                      ...  NO
Linear momentum integrals                 ...  NO
Angular momentum integrals                ...  NO
Higher moments length integrals           ...  NO
Higher moments velocity integrals         ...  NO
Kinetic energy integrals                  ...  NO
GIAO right hand sides                     ...  NO
GIAO dipole derivative integrals          ...  NO
SOC integrals                             ...  NO
EPR diamagnetic integrals (GIAO)          ...  NO
EPR gauge integrals                       ...  NO
Field gradient integrals                  ...  NO (   0 nuclei)
Spin-dipole/Fermi contact integrals       ...  NO (   0 nuclei)
Contact density integrals                 ...  NO (   0 nuclei)
Nucleus-orbit integrals                   ...  NO (   0 nuclei)
Geometric perturbations                   ... YES (  23 nuclei)

Choice of electric origin   ... Center of mass
Position of electric origin ... ( -0.0042,  0.0087,  0.0005) 
Choice of magnetic origin   ... GIAO
Position of magnetic origin ... (  0.0000,  0.0000,  0.0000) 

Calculating integrals                     ... Electric Dipole (Length)     done (  0.6 sec)
Calculating integrals                     ... Geometrical perturbation right hand sides

-----------------------
GEOMETRIC PERTURBATIONS (23 nuclei)
-----------------------

MaxCore                            ...   5000 MB
Number of batches                  ...      1

BATCH   0: Atoms    0 -   22 ( 69 perturbations)
   => H(core) and overlap derivative integrals     ... done (     3.5 sec)
   => Making and storing internal U-coefficients   ... done (     0.7 sec)
   => RI-J derivative integrals                    ... done (    74.3 sec)
   => RI-J response operators                      ... done (     8.7 sec)
   => Chain of spheres derivative integrals        ... done (    66.2 sec)
   => Chain of spheres response operator           ... done (   120.9 sec)
   => XC derivative integrals                      ... done (   277.8 sec)
   => XC response operators                        ... done (    83.4 sec)
   => CPCM derivative integrals                    ... done (    16.9 sec)
   => CPCM response operators                      ... done (    28.8 sec)
   => Completing and storing right hand sides      ... done (     1.2 sec)
   => Total time for right hand sides = 677.6 sec

  geometrical perturbations done (679.5 sec)

[...]
     66       0.105312  -0.002778  -0.000087
     67       0.932570  -0.033740  -0.006733
     68      -0.000752   0.000027   0.000011


-----------
IR SPECTRUM
-----------

 Mode   freq       eps      Int      T**2         TX        TY        TZ
       cm**-1   L/(mol*cm) km/mol    a.u.
----------------------------------------------------------------------------
  6:     11.64   0.000250    1.26  0.006703  ( 0.000143  0.000281  0.081874)
  7:     80.11   0.001573    7.95  0.006128  (-0.000345 -0.000510 -0.078278)
  8:    110.82   0.000419    2.12  0.001180  (-0.024973  0.023588 -0.000198)
  9:    130.24   0.000135    0.68  0.000323  (-0.000386  0.000326 -0.017965)
 10:    196.98   0.000111    0.56  0.000175  (-0.000191 -0.000097  0.013233)
 11:    203.08   0.000269    1.36  0.000414  (-0.000329  0.000376 -0.020333)
 12:    248.26   0.000596    3.01  0.000749  ( 0.004213  0.027041  0.000694)
 13:    262.20   0.000177    0.89  0.000211  ( 0.000280  0.000855 -0.014481)
 14:    298.41   0.000032    0.16  0.000034  (-0.000246  0.000118  0.005791)
 15:    332.89   0.000067    0.34  0.000063  ( 0.006602  0.004355  0.000023)
 16:    357.77   0.000286    1.44  0.000249  ( 0.015323 -0.003792  0.000130)
 17:    466.74   0.001400    7.07  0.000936  ( 0.000008 -0.000167 -0.030590)
 18:    472.74   0.000319    1.61  0.000210  ( 0.010403  0.010091 -0.000505)
 19:    577.65   0.002787   14.09  0.001506  ( 0.023689 -0.030735 -0.000267)
 20:    616.19   0.000102    0.51  0.000051  ( 0.000208  0.000160  0.007167)
 21:    624.33   0.000356    1.80  0.000178  (-0.005219 -0.012272 -0.000005)
 22:    704.53   0.009726   49.15  0.004308  ( 0.000164  0.000158  0.065636)
 23:    770.70   0.002057   10.40  0.000833  (-0.025780  0.012963 -0.000619)
 24:    789.23   0.016178   81.76  0.006397  (-0.000093  0.000352  0.079978)
 25:    830.37   0.000394    1.99  0.000148  (-0.000142  0.000057  0.012164)
 26:    891.90   0.001905    9.63  0.000667  ( 0.000309  0.000368  0.025814)
 27:    898.86   0.010160   51.34  0.003527  ( 0.049622 -0.032631 -0.000327)
 28:    905.92   0.004706   23.78  0.001621  (-0.000321  0.000554 -0.040258)
 29:    971.17   0.007369   37.24  0.002368  (-0.048392 -0.005078  0.000488)
 30:    995.65   0.006227   31.47  0.001952  (-0.000442 -0.000364  0.044176)
 31:   1002.80   0.011863   59.95  0.003692  ( 0.000535 -0.000345  0.060755)
 32:   1007.79   0.000358    1.81  0.000111  ( 0.001786 -0.010379 -0.000295)
 33:   1061.41   0.000103    0.52  0.000030  (-0.000283  0.000176  0.005491)
 34:   1072.79   0.023874  120.65  0.006945  ( 0.082508  0.011711  0.000061)
 35:   1106.05   0.002869   14.50  0.000809  ( 0.004509  0.028092  0.000126)
 36:   1128.37   0.000184    0.93  0.000051  ( 0.007126  0.000242  0.000157)
 37:   1165.48   0.008808   44.51  0.002358  (-0.047357  0.010737 -0.000591)
 38:   1168.54   0.000243    1.23  0.000065  (-0.004074  0.000791  0.006909)
 39:   1189.22   0.007039   35.57  0.001847  ( 0.041647 -0.010611 -0.000105)
 40:   1210.44   0.002949   14.90  0.000760  ( 0.024094 -0.013405  0.000085)
 41:   1293.54   0.034275  173.21  0.008269  ( 0.081919 -0.039472 -0.000044)
 42:   1304.79   0.000546    2.76  0.000131  ( 0.010819  0.003679  0.000023)
 43:   1317.09   0.027299  137.96  0.006468  (-0.071374  0.037064 -0.000133)
 44:   1331.78   0.005497   27.78  0.001288  (-0.031402  0.017380 -0.000028)
 45:   1379.86   0.010260   51.85  0.002320  (-0.046963  0.010712 -0.000079)
 46:   1389.09   0.000555    2.80  0.000125  (-0.009076 -0.006488  0.000382)
 47:   1443.79   0.003314   16.75  0.000716  (-0.002912  0.002714 -0.026467)
 48:   1450.21   0.018369   92.83  0.003953  (-0.050113  0.037890  0.002435)
 49:   1459.38   0.001836    9.28  0.000393  (-0.016649  0.010662  0.001319)
 50:   1467.28   0.003211   16.23  0.000683  (-0.004739  0.002991 -0.025525)
 51:   1476.85   0.006137   31.02  0.001297  (-0.029757  0.020228  0.001486)
 52:   1483.82   0.000839    4.24  0.000176  ( 0.012880  0.003202 -0.000465)
 53:   1526.13   0.025787  130.32  0.005273  (-0.067767  0.026087  0.000039)
 54:   1632.35   0.031548  159.43  0.006031  ( 0.049540 -0.059807  0.000042)
 55:   1661.90   0.037126  187.62  0.006971  (-0.083416  0.003619 -0.000000)
 56:   1726.16   0.005745   29.03  0.001039  (-0.032141 -0.002346  0.000012)
 57:   3026.48   0.008724   44.09  0.000900  ( 0.029257  0.006597  0.000062)
 58:   3030.52   0.013918   70.34  0.001433  (-0.036845 -0.008696  0.000040)
 59:   3078.38   0.004073   20.58  0.000413  (-0.000124  0.000053 -0.020319)
 60:   3098.95   0.009297   46.99  0.000936  (-0.000083 -0.000152 -0.030598)
 61:   3117.96   0.003858   19.50  0.000386  (-0.003789  0.019281  0.000140)
 62:   3138.39   0.003331   16.83  0.000331  ( 0.010573  0.014812  0.000084)
 63:   3151.41   0.008403   42.47  0.000832  (-0.003677 -0.028611 -0.000096)
 64:   3156.08   0.005061   25.57  0.000500  (-0.011995  0.018881  0.000004)
 65:   3184.72   0.002170   10.96  0.000213  ( 0.006104  0.013241  0.000010)
 66:   3187.26   0.001203    6.08  0.000118  ( 0.004644 -0.009808 -0.000017)
 67:   3203.23   0.003598   18.18  0.000350  ( 0.006649 -0.017501 -0.000021)
 68:   3226.11   0.000394    1.99  0.000038  ( 0.005601  0.002602 -0.000049)

* The epsilon (eps) is given for a Dirac delta lineshape.
** The dipole moment derivative (T) already includes vibrational overlap.

The first frequency considered to be a vibration is 6
The total number of vibrations considered is 63


--------------------------
THERMOCHEMISTRY AT 298.15K
--------------------------

Temperature         ...   298.15 K
Pressure            ...     1.00 atm
Total Mass          ...   148.21 AMU
Quasi RRHO          ...     True
Cut-Off Frequency   ...     1.00 cm^-1

Throughout the following assumptions are being made:
  (1) The electronic state is orbitally nondegenerate
  (2) There are no thermally accessible electronically excited states
  (3) Hindered rotations indicated by low frequency modes are not
      treated as such but are treated as vibrations and this may
      cause some error
  (4) All equations used are the standard statistical mechanics
      equations for an ideal gas
  (5) All vibrations are strictly harmonic

freq.      11.64  E(vib)   ...       0.58 
freq.      80.11  E(vib)   ...       0.49 
freq.     110.82  E(vib)   ...       0.45 
freq.     130.24  E(vib)   ...       0.43 
freq.     196.98  E(vib)   ...       0.35 
freq.     203.08  E(vib)   ...       0.35 
freq.     248.26  E(vib)   ...       0.31 
freq.     262.20  E(vib)   ...       0.29 
freq.     298.41  E(vib)   ...       0.26 
freq.     332.89  E(vib)   ...       0.24 
freq.     357.77  E(vib)   ...       0.22 
freq.     466.74  E(vib)   ...       0.16 
freq.     472.74  E(vib)   ...       0.15 
freq.     577.65  E(vib)   ...       0.11 
freq.     616.19  E(vib)   ...       0.09 
freq.     624.33  E(vib)   ...       0.09 
freq.     704.53  E(vib)   ...       0.07 
freq.     770.70  E(vib)   ...       0.05 
freq.     789.23  E(vib)   ...       0.05 
freq.     830.37  E(vib)   ...       0.04 
freq.     891.90  E(vib)   ...       0.03 
freq.     898.86  E(vib)   ...       0.03 
freq.     905.92  E(vib)   ...       0.03 
freq.     971.17  E(vib)   ...       0.03 
freq.     995.65  E(vib)   ...       0.02 
freq.    1002.80  E(vib)   ...       0.02 
freq.    1007.79  E(vib)   ...       0.02 
freq.    1061.41  E(vib)   ...       0.02 
freq.    1072.79  E(vib)   ...       0.02 
freq.    1106.05  E(vib)   ...       0.02 
freq.    1128.37  E(vib)   ...       0.01 
freq.    1165.48  E(vib)   ...       0.01 
freq.    1168.54  E(vib)   ...       0.01 
freq.    1189.22  E(vib)   ...       0.01 
freq.    1210.44  E(vib)   ...       0.01 
freq.    1293.54  E(vib)   ...       0.01 
freq.    1304.79  E(vib)   ...       0.01 
freq.    1317.09  E(vib)   ...       0.01 
freq.    1331.78  E(vib)   ...       0.01 
freq.    1379.86  E(vib)   ...       0.01 
freq.    1389.09  E(vib)   ...       0.00 
freq.    1443.79  E(vib)   ...       0.00 
freq.    1450.21  E(vib)   ...       0.00 
freq.    1459.38  E(vib)   ...       0.00 
freq.    1467.28  E(vib)   ...       0.00 
freq.    1476.85  E(vib)   ...       0.00 
freq.    1483.82  E(vib)   ...       0.00 
freq.    1526.13  E(vib)   ...       0.00 
freq.    1632.35  E(vib)   ...       0.00 
freq.    1661.90  E(vib)   ...       0.00 
freq.    1726.16  E(vib)   ...       0.00 
freq.    3026.48  E(vib)   ...       0.00 
freq.    3030.52  E(vib)   ...       0.00 
freq.    3078.38  E(vib)   ...       0.00 
freq.    3098.95  E(vib)   ...       0.00 
freq.    3117.96  E(vib)   ...       0.00 
freq.    3138.39  E(vib)   ...       0.00 
freq.    3151.41  E(vib)   ...       0.00 
freq.    3156.08  E(vib)   ...       0.00 
freq.    3184.72  E(vib)   ...       0.00 
freq.    3187.26  E(vib)   ...       0.00 
freq.    3203.23  E(vib)   ...       0.00 
freq.    3226.11  E(vib)   ...       0.00 

------------
INNER ENERGY
------------

The inner energy is: U= E(el) + E(ZPE) + E(vib) + E(rot) + E(trans)
    E(el)   - is the total energy from the electronic structure calculation
              = E(kin-el) + E(nuc-el) + E(el-el) + E(nuc-nuc)
    E(ZPE)  - the the zero temperature vibrational energy from the frequency calculation
    E(vib)  - the the finite temperature correction to E(ZPE) due to population
              of excited vibrational states
    E(rot)  - is the rotational thermal energy
    E(trans)- is the translational thermal energy

Summary of contributions to the inner energy U:
Electronic energy                ...   -463.13169497 Eh
Zero point energy                ...      0.19319951 Eh     121.23 kcal/mol
Thermal vibrational correction   ...      0.00822878 Eh       5.16 kcal/mol
Thermal rotational correction    ...      0.00141627 Eh       0.89 kcal/mol
Thermal translational correction ...      0.00141627 Eh       0.89 kcal/mol
-----------------------------------------------------------------------
Total thermal energy                   -462.92743415 Eh


Summary of corrections to the electronic energy:
(perhaps to be used in another calculation)
Total thermal correction                  0.01106132 Eh       6.94 kcal/mol
Non-thermal (ZPE) correction              0.19319951 Eh     121.23 kcal/mol
-----------------------------------------------------------------------
Total correction                          0.20426083 Eh     128.18 kcal/mol


--------
ENTHALPY
--------

The enthalpy is H = U + kB*T
                kB is Boltzmann's constant
Total thermal energy              ...   -462.92743415 Eh 
Thermal Enthalpy correction       ...      0.00094421 Eh       0.59 kcal/mol
-----------------------------------------------------------------------
Total Enthalpy                    ...   -462.92648994 Eh


Note: Only C1 symmetry has been detected, increase convergence thresholds 
      if your molecule has a higher symmetry. Symmetry factor of 1.0 is   
      used for the rotational entropy correction. 
 

Note: Rotational entropy computed according to Herzberg 
Infrared and Raman Spectra, Chapter V,1, Van Nostrand Reinhold, 1945 
Point Group:  C1, Symmetry Number:   1  
Rotational constants in cm-1:     0.103966     0.017089     0.014758 

Vibrational entropy computed according to the QRRHO of S. Grimme
Chem.Eur.J. 2012 18 9955 using a reference frequency of 100.0 cm-1


-------
ENTROPY
-------

The entropy contributions are T*S = T*(S(el)+S(vib)+S(rot)+S(trans))
     S(el)   - electronic entropy
     S(vib)  - vibrational entropy
     S(rot)  - rotational entropy
     S(trans)- translational entropy
The entropies will be listed as multiplied by the temperature to get
units of energy

Electronic entropy                ...      0.00000000 Eh      0.00 kcal/mol
Vibrational entropy               ...      0.01469400 Eh      9.22 kcal/mol
Rotational entropy                ...      0.01449088 Eh      9.09 kcal/mol
Translational entropy             ...      0.01942844 Eh     12.19 kcal/mol
-----------------------------------------------------------------------
Final entropy term                ...      0.04861331 Eh     30.51 kcal/mol

In case the symmetry of your molecule has not been determined correctly
or in case you have a reason to use a different symmetry number we print 
out the resulting rotational entropy values for sn=1,12:

 non-linear molecules -----------------------------------
|  sn= 1 | S(rot)=       0.01449088 Eh      9.09 kcal/mol|
|  sn= 2 | S(rot)=       0.01383642 Eh      8.68 kcal/mol|
|  sn= 3 | S(rot)=       0.01345359 Eh      8.44 kcal/mol|
|  sn= 4 | S(rot)=       0.01318196 Eh      8.27 kcal/mol|
|  sn= 5 | S(rot)=       0.01297128 Eh      8.14 kcal/mol|
|  sn= 6 | S(rot)=       0.01279913 Eh      8.03 kcal/mol|
|  sn= 7 | S(rot)=       0.01265359 Eh      7.94 kcal/mol|
|  sn= 8 | S(rot)=       0.01252751 Eh      7.86 kcal/mol|
|  sn= 9 | S(rot)=       0.01241630 Eh      7.79 kcal/mol|
|  sn=10 | S(rot)=       0.01231682 Eh      7.73 kcal/mol|
|  sn=11 | S(rot)=       0.01222683 Eh      7.67 kcal/mol|
|  sn=12 | S(rot)=       0.01214467 Eh      7.62 kcal/mol|
 linear molecules ---------------------------------------
|  Dinfh | S(rot)=       0.00930645 Eh      5.84 kcal/mol|
|  Cinfv | S(rot)=       0.00996091 Eh      6.25 kcal/mol|
 --------------------------------------------------------


-------------------
GIBBS FREE ENERGY
-------------------

The Gibbs free energy is G = H - T*S

Total enthalpy                    ...   -462.92648994 Eh 
Total entropy correction          ...     -0.04861331 Eh    -30.51 kcal/mol
-----------------------------------------------------------------------
Final Gibbs free energy         ...   -462.97510325 Eh

For completeness - the Gibbs free energy minus the electronic energy
G-E(el)                           ...      0.15659172 Eh     98.26 kcal/mol


Maximum memory used throughout the entire PROP-calculation: 341.7 MB

--------------------------------
SUGGESTED CITATIONS FOR THIS RUN
--------------------------------

Below you find a list of papers that are relevant to this ORCA run
We neither can nor want to force you to cite these papers, but we appreciate if you do
You receive ORCA, which is the product of decades of hard work by many enthusiastic individuals, for free
The only thing we kindly ask in return is that you cite our papers,
We deeply appreciate it, if you show your appreciation for ORCA by not just citing the generic ORCA reference.

Please note that relegating all ORCA citations to the supporting information does *not* help us.
SI sections are not indexed - citations you put there will not count into any citation statistics
But we need these citations in order to attract the funding resources that allow us to do what we are doing

Therefore, if you are a happy ORCA user, please consider citing a few of the papers listed below in the main body of your paper

In addition to the list printed below, the program has created the file cs_rporg_018_red_freq_04.bibtex that contains the list in bibtex format
You can import this file easily into all common literature databanks and citation aid programs


List of essential papers. We consider these as the minimum necessary citations

  1. Neese,F.
     Software update: the ORCA program system, version 5.0
     WIRES Comput. Molec. Sci., 2022 12(1)e1606
     doi.org/10.1002/wcms.1606

List of papers to cite with high priority. The work reported in these papers was absolutely
necessary for this run to complete.
Our perspective: the developers of density functionals and basis sets usually get cited in chemistry papers
Good! But without the algorithms to do something with them, the functionals or basis sets would not do anything.
Hence, in our opinion, the algorithm design and method developments papers are equally worthy of getting cited

  1. Neese,F.
     An improvement of the resolution of the identity approximation for the formation of the Coulomb matrix
     J. Comp. Chem., 2003 24(14)1740-1747
     doi.org/10.1002/jcc.10318
  2. Neese,F.; Wennmohs,F.; Hansen,A.; Becker,U.
     Efficient, approximate and parallel Hartree-Fock and hybrid DFT calculations. A 'chain-of-spheres' algorithm for the Hartree-Fock exchange
     Chem. Phys., 2009 356(1-3)98-109
     doi.org/10.1016/j.chemphys.2008.10.036
  3. Bykov,D.; Petrenko,T.; Izsak,R.; Kossmann,S.; Becker,U.; Valeev,E.; Neese,F.
     Efficient implementation of the analytic second derivatives of Hartree-Fock and hybrid DFT energies: a detailed analysis of different approximations
     Molec. Phys., 2015 113 1961-1977
     doi.org/10.1080/00268976.2015.1025114
  4. Garcia-Rates,M.; Neese,F.
     Efficient implementation of the analytical second derivatives of hartree-fock and hybrid DFT energies within the framework of the conductor-like polarizable continuum model
     J. Comput. Chem., 2019 40 1816-1828
     doi.org/10.1002/jcc.25833
  5. Garcia-Rates,M.; Neese,F.
     Effect of the Solute Cavity on the Solvation Energy and its Derivatives within the Framework of the Gaussian Charge Scheme
     J. Comput. Chem., 2020 41 922-939
     doi.org/10.1002/jcc.26139
  6. Helmich-Paris,B.; de Souza,B.; Neese,F.; Izsák,R.
     An improved chain of spheres for exchange algorithm
     J. Chem. Phys., 2021 155 104109
     doi.org/doi: 10.1063/5.0058766.
  7. Neese,F.
     The SHARK Integral Generation and Digestion System
     J. Comp. Chem., 2022  1-16
     doi.org/10.1002/jcc.26942
  8. Grimme,S.; Antony,J.; Ehrlich,S.; Krieg,H.
     A consistent and accurate ab initio parametrization of density functional dispersion correction (DFT-D) for the 94 elements H-Pu
     J. Chem. Phys., 2010 132 154104-XXXX
     doi.org/10.1063/1.3382344
  9. Grimme,S.; Ehrlich,S.; Goerigk,L.
     Effect of the damping function in dispersion corrected density functional theory
     J. Comput. Chem., 2011 32(7)1456-1465
     doi.org/10.1002/jcc.21759

List of suggested additional citations. These are papers that are important in the 'surrounding' of 
of this run, or papers that preceded the highly important papers. If you like your results we are grateful for a citation.

  1. Izsak,R.; Neese,F.
     An overlap fitted chain of spheres exchange method
     J. Chem. Phys., 2011 135 144105
     doi.org/10.1063/1.3646921
  2. Izsak,R.; Hansen,A.; Neese,F.
     The resolution of identity and chain of spheres approximations for the LPNO-CCSD singles Fock term
     Molec. Phys., 2012 110 2413-2417
     doi.org/10.1080/00268976.2012.687466
  3. Neese,F.
     The ORCA program system
     WIRES Comput. Molec. Sci., 2012 2(1)73-78
     doi.org/10.1002/wcms.81
  4. Izsak,R.; Neese,F.; Klopper,W.
     Robust fitting techniques in the chain of spheres approximation to the Fock exchange: The role of the complementary space
     J. Chem. Phys., 2013 139 
     doi.org/10.1063/1.4819264
  5. Neese,F.
     Software update: the ORCA program system, version 4.0
     WIRES Comput. Molec. Sci., 2018 8(1)1-6
     doi.org/10.1002/wcms.1327
  6. Neese,F.; Wennmohs,F.; Becker,U.; Riplinger,C.
     The ORCA quantum chemistry program package
     J. Chem. Phys., 2020 152 Art. No. L224108
     doi.org/10.1063/5.0004608

List of optional additional citations

  1. Neese,F.
     Approximate second-order SCF convergence for spin unrestricted wavefunctions
     Chem. Phys. Lett., 2000 325(1-3)93-98
     doi.org/10.1016/s0009-2614(00)00662-x

Timings for individual modules:

Sum of individual times          ...     4179.484 sec (=  69.658 min)
Startup calculation              ...       18.688 sec (=   0.311 min)   0.4 %
SCF iterations                   ...      566.469 sec (=   9.441 min)  13.6 %
Property integrals               ...      684.817 sec (=  11.414 min)  16.4 %
SCF Response                     ...     1485.936 sec (=  24.766 min)  35.6 %
Property calculations            ...     1423.575 sec (=  23.726 min)  34.1 %
                             ****ORCA TERMINATED NORMALLY****
TOTAL RUN TIME: 0 days 1 hours 9 minutes 48 seconds 89 msec
