
                                 *****************
                                 * O   R   C   A *
                                 *****************

                                            #,                                       
                                            ###                                      
                                            ####                                     
                                            #####                                    
                                            ######                                   
                                           ########,                                 
                                     ,,################,,,,,                         
                               ,,#################################,,                 
                          ,,##########################################,,             
                       ,#########################################, ''#####,          
                    ,#############################################,,   '####,        
                  ,##################################################,,,,####,       
                ,###########''''           ''''###############################       
              ,#####''   ,,,,##########,,,,          '''####'''          '####       
            ,##' ,,,,###########################,,,                        '##       
           ' ,,###''''                  '''############,,,                           
         ,,##''                                '''############,,,,        ,,,,,,###''
      ,#''                                            '''#######################'''  
     '                                                          ''''####''''         
             ,#######,   #######,   ,#######,      ##                                
            ,#'     '#,  ##    ##  ,#'     '#,    #''#        ,####,   ,####,        
            ##       ##  ##   ,#'  ##            #'  '#       #'       #'  '#        
            ##       ##  #######   ##           ,######,      #####,   #    #        
            '#,     ,#'  ##    ##  '#,     ,#' ,#      #,     #,   #   #,  ,#        
             '#######'   ##     ##  '#######'  #'      '#     '####' # '####'        



                #########################################################
                #                        -***-                          #
                #          Department of theory and spectroscopy        #
                #                                                       #
                #                      Frank Neese                      #
                #                                                       #
                #     Directorship, Architecture, Infrastructure        #
                #                    SHARK, DRIVERS                     #
                #        Core code/Algorithms in most modules           #
                #                                                       #
                #        Max Planck Institute fuer Kohlenforschung      #
                #                Kaiser Wilhelm Platz 1                 #
                #                 D-45470 Muelheim/Ruhr                 #
                #                      Germany                          #
                #                                                       #
                #                  All rights reserved                  #
                #                        -***-                          #
                #########################################################


                         Program Version 6.0.0  -   RELEASE  -


 With contributions from (in alphabetic order):
   Daniel Aravena         : Magnetic Suceptibility
   Michael Atanasov       : Ab Initio Ligand Field Theory (pilot matlab implementation)
   Alexander A. Auer      : GIAO ZORA, VPT2 properties, NMR spectrum
   Ute Becker             : All parallelization in ORCA, NUMFREQ, NUMCALC
   Giovanni Bistoni       : ED, misc. LED, open-shell LED, HFLD
   Martin Brehm           : Molecular dynamics
   Dmytro Bykov           : pre 5.0 version of the SCF Hessian
   Marcos Casanova-Páez   : Triplet and SCS-CIS(D). UHF-(DLPNO)-IP/EA/STEOM-CCSD. UHF-CVS-IP/STEOM-CCSD
   Vijay G. Chilkuri      : MRCI spin determinant printing, contributions to CSF-ICE
   Pauline Colinet        : FMM embedding
   Dipayan Datta          : RHF DLPNO-CCSD density
   Achintya Kumar Dutta   : EOM-CC, STEOM-CC
   Nicolas Foglia         : Exact transition moments, OPA infrastructure, MCD improvements
   Dmitry Ganyushin       : Spin-Orbit,Spin-Spin,Magnetic field MRCI
   Miquel Garcia          : C-PCM and meta-GGA Hessian, CCSD/C-PCM, Gaussian charge scheme
   Tiago L. C. Gouveia    : GS-ROHF, GS-ROCIS
   Yang Guo               : DLPNO-NEVPT2, F12-NEVPT2, CIM, IAO-localization
   Andreas Hansen         : Spin unrestricted coupled pair/coupled cluster methods
   Ingolf Harden          : AUTO-CI MPn and infrastructure 
   Benjamin Helmich-Paris : MC-RPA, TRAH-(SCF,CASSCF), AVAS, COSX integrals, SCF dyn. polar.
   Lee Huntington         : MR-EOM, pCC
   Robert Izsak           : Overlap fitted RIJCOSX, COSX-SCS-MP3, EOM
   Riya Kayal             : Wick's Theorem for AUTO-CI, AUTO-CI UHF-CCSDT
   Emily Kempfer          : AUTO-CI, RHF CISDT and CCSDT
   Christian Kollmar      : KDIIS, OOCD, Brueckner-CCSD(T), CCSD density, CASPT2, CASPT2-K, improved NEVPT2
   Axel Koslowski         : Symmetry handling
   Simone Kossmann        : Meta GGA functionals, TD-DFT gradient, OOMP2, (MP2 Hessian; deprecated post 5.0)
   Lucas Lang             : DCDCAS
   Marvin Lechner         : AUTO-CI (C++ implementation), FIC-MRCC
   Spencer Leger          : CASSCF response
   Dagmar Lenk            : GEPOL surface, SMD, ORCA-2-JSON
   Dimitrios Liakos       : Extrapolation schemes; Compound Job, initial MDCI parallelization
   Dimitrios Manganas     : Further ROCIS development; embedding schemes. LFT, Crystal Embedding
   Dimitrios Pantazis     : SARC Basis sets
   Anastasios Papadopoulos: AUTO-CI, single reference methods and gradients
   Taras Petrenko         : pre 6.0 DFT Hessian and TD-DFT gradient, (ASA, deprecated), ECA, 1-Electron XAS/XES, NRVS
   Peter Pinski           : DLPNO-MP2, DLPNO-MP2 Gradient
   Christoph Reimann      : Effective Core Potentials
   Marius Retegan         : Local ZFS, SOC
   Christoph Riplinger    : Optimizer, TS searches, QM/MM, DLPNO-CCSD(T), (RO)-DLPNO pert. Triples
   Michael Roemelt        : Original ROCIS implementation
   Masaaki Saitow         : Open-shell DLPNO-CCSD energy and density
   Barbara Sandhoefer     : DKH picture change effects
   Kantharuban Sivalingam : CASSCF convergence/infrastructure, NEVPT2 and variants, FIC-MRCI
   Bernardo de Souza      : ESD, SOC TD-DFT
   Georgi Stoychev        : AutoAux, RI-MP2 NMR, DLPNO-MP2 response, X2C
   Van Anh Tran           : RI-MP2 g-tensors
   Willem Van den Heuvel  : Paramagnetic NMR
   Zikuan Wang            : NOTCH, Electric field optimization 
   Frank Wennmohs         : Technical directorship and infrastructure
   Hang Xu                : AUTO-CI-Response properties 


 We gratefully acknowledge several colleagues who have allowed us to
 interface, adapt or use parts of their codes:
   Stefan Grimme, W. Hujo, H. Kruse, P. Pracht,  : VdW corrections, initial TS optimization,
                  C. Bannwarth, S. Ehlert,         DFT functionals, gCP, sTDA/sTD-DF
                  L. Wittmann, M. Mueller
   Ed Valeev, F. Pavosevic, A. Kumar             : LibInt (2-el integral package), F12 methods
   Garnet Chan, S. Sharma, J. Yang, R. Olivares  : DMRG
   Ulf Ekstrom                                   : XCFun DFT Library
   Mihaly Kallay                                 : mrcc  (arbitrary order and MRCC methods)
   Frank Weinhold                                : gennbo (NPA and NBO analysis)
   Simon Mueller                                 : openCOSMO-RS
   Christopher J. Cramer and Donald G. Truhlar   : smd solvation model
   Lars Goerigk                                  : TD-DFT with DH, B97 family of functionals
   V. Asgeirsson, H. Jonsson                     : NEB implementation
   FAccTs GmbH                                   : IRC, NEB, NEB-TS, DLPNO-Multilevel, CI-OPT
                                                   MM, QMMM, 2- and 3-layer-ONIOM, Crystal-QMMM,
                                                   LR-CPCM, SF, NACMEs, symmetry and pop. for TD-DFT,
                                                   nearIR, NL-DFT gradient (VV10), updates on ESD,
                                                   ML-optimized integration grids, MBIS, APM,
                                                   GOAT, DOCKER, SOLVATOR, interface openCOSMO-RS
   S Lehtola, MJT Oliveira, MAL Marques          : LibXC Library
   Liviu Ungur et al                             : ANISO software


 Your calculation uses the libint2 library for the computation of 2-el integrals
 For citations please refer to: http://libint.valeyev.net

 Your ORCA version has been built with support for libXC version: 6.2.2
 For citations please refer to: https://libxc.gitlab.io

 This ORCA versions uses:
   CBLAS   interface :  Fast vector & matrix operations
   LAPACKE interface :  Fast linear algebra routines
   SCALAPACK package :  Parallel linear algebra routines
   Shared memory     :  Shared parallel matrices
   BLAS/LAPACK       :  OpenBLAS 0.3.27  USE64BITINT DYNAMIC_ARCH NO_AFFINITY Sandybridge SINGLE_THREADED
        Core in use  :  Sandybridge
   Copyright (c) 2011-2014, The OpenBLAS Project


NOTE: MaxCore=3500 MB was set to SCF,MP2,MDCI,CIPSI,MRCI and CIS
      => If you want to overwrite this, your respective input block should be placed after the MaxCore statement
Your calculation utilizes the atom-pairwise dispersion correction
with the Becke-Johnson damping scheme (D3BJ)


Your calculation utilizes the SMD solvation module
Please cite in your paper:
A.V. Marenich, C.J. Cramer, D.G. Truhlar J. Phys. Chem. B, 113, (2009), 6378 

Warning: RI is on but no J-basis has been assigned. Assigning Def2/J (nothing to worry about!)
================================================================================

----- Orbital basis set information -----
Your calculation utilizes the basis: aug-cc-pVTZ 
    H, B-Ne : Obtained from the ccRepo (grant-hill.group.shef.ac.uk/ccrepo) Feb. 2017
              R. A. Kendall, T. H. Dunning, Jr., R. J. Harrison, J. Chem. Phys. 96, 6796 (1992)
         He : Obtained from the ccRepo (grant-hill.group.shef.ac.uk/ccrepo) Feb. 2017
              D. E. Woon, T. H. Dunning, Jr., J. Chem. Phys. 100, 2975 (1994)
  Li-Be, Na : Obtained from the ccRepo (grant-hill.group.shef.ac.uk/ccrepo) Feb. 2017
              B. P. Prascher, D. E. Woon, K. A. Peterson, T. H. Dunning, Jr., A. K. Wilson, Theor. Chem. Acc. 128, 69 (2011)
         Mg : Obtained from the Peterson Research Group Website (tyr0.chem.wsu.edu/~kipeters) Feb. 2017
              B. P. Prascher, D. E. Woon, K. A. Peterson, T. H. Dunning, Jr., A. K. Wilson, Theor. Chem. Acc. 128, 69 (2011)
      Al-Ar : Obtained from the ccRepo (grant-hill.group.shef.ac.uk/ccrepo) Feb. 2017
              D. E. Woon, T. H. Dunning, Jr., J. Chem. Phys. 98, 1358 (1993)
      Sc-Zn : Obtained from the ccRepo (grant-hill.group.shef.ac.uk/ccrepo) Feb. 2017
              N. B. Balabanov, K. A. Peterson, J. Chem. Phys. 123, 064107 (2005)
              N. B. Balabanov, K. A. Peterson, J. Chem. Phys. 125, 074110 (2006)
      Ga-Kr : Obtained from the ccRepo (grant-hill.group.shef.ac.uk/ccrepo) Feb. 2017
              A. K. Wilson, D. E. Woon, K. A. Peterson, T. H. Dunning, Jr., J. Chem. Phys. 110, 7667 (1999)
     Ag, Au : Obtained from the Peterson Research Group Website (tyr0.chem.wsu.edu/~kipeters) Feb. 2017
              K. A. Peterson, C. Puzzarini, Theor. Chem. Acc. 114, 283 (2005)

----- AuxJ basis set information -----
Your calculation utilizes the auxiliary basis: def2/J
   F. Weigend, Phys. Chem. Chem. Phys. 8, 1057 (2006).

================================================================================
                                        WARNINGS
                       Please study these warnings very carefully!
================================================================================

Using LibXC functional ID 497 : Re-regularized SCAN exchange by Furness et al
[ 1]  J. W. Furness, A. D. Kaplan, J. Ning, J. P. Perdew, and J. Sun.,  J. Phys. Chem. Lett. 11, 8208-8215 (2020)
[ 2]  J. W. Furness, A. D. Kaplan, J. Ning, J. P. Perdew, and J. Sun.,  J. Phys. Chem. Lett. 11, 9248-9248 (2020)
Using LibXC functional ID 498 : Re-regularized SCAN correlation by Furness et al
[ 1]  J. W. Furness, A. D. Kaplan, J. Ning, J. P. Perdew, and J. Sun.,  J. Phys. Chem. Lett. 11, 8208-8215 (2020)
[ 2]  J. W. Furness, A. D. Kaplan, J. Ning, J. P. Perdew, and J. Sun.,  J. Phys. Chem. Lett. 11, 9248-9248 (2020)
Using LibXC functional ID 497 : Re-regularized SCAN exchange by Furness et al
[ 1]  J. W. Furness, A. D. Kaplan, J. Ning, J. P. Perdew, and J. Sun.,  J. Phys. Chem. Lett. 11, 8208-8215 (2020)
[ 2]  J. W. Furness, A. D. Kaplan, J. Ning, J. P. Perdew, and J. Sun.,  J. Phys. Chem. Lett. 11, 9248-9248 (2020)
Using LibXC functional ID 498 : Re-regularized SCAN correlation by Furness et al
[ 1]  J. W. Furness, A. D. Kaplan, J. Ning, J. P. Perdew, and J. Sun.,  J. Phys. Chem. Lett. 11, 8208-8215 (2020)
[ 2]  J. W. Furness, A. D. Kaplan, J. Ning, J. P. Perdew, and J. Sun.,  J. Phys. Chem. Lett. 11, 9248-9248 (2020)

WARNING: your system is open-shell and RHF/RKS was chosen
  ===> : WILL SWITCH to UHF/UKS


WARNING: Geometry Optimization
  ===> : Switching off AutoStart
         For restart on a previous wavefunction, please use MOREAD

================================================================================
                                       INPUT FILE
================================================================================
NAME = cs_rporg_143_red_opt_07.inp
|  1> !r2SCANh opt aug-cc-pVTZ d3 TightSCF SlowConv RIJCOSX defgrid2
|  2> 
|  3> %pal
|  4> nprocs 8
|  5> end
|  6> 
|  7> %scf
|  8> MaxIter 1500
|  9> end
| 10> 
| 11> %maxcore 3500
| 12> 
| 13> !CPCM
| 14> %cpcm smd true
| 15> SMDsolvent "MeCN"
| 16> surfacetype gepol_ses
| 17> rsolv 2.19
| 18> end 
| 19> 
| 20> * xyz -1 2
| 21> C          -0.01331421056281      1.21015152275559     -0.00003912841012
| 22> C           1.37407426915828      1.22077182581697      0.00009471803504
| 23> C           2.08268728216500      0.01623593632828      0.00008078293558
| 24> C           1.39800867624770     -1.21018542596672     -0.00005492668248
| 25> C           0.01763373542032     -1.22524409629627     -0.00018246787257
| 26> C          -0.75988843497050     -0.01763719993150     -0.00018385015586
| 27> C          -2.18998893121825     -0.10468719257966     -0.00029823993913
| 28> O          -2.82191384294989     -1.19348424477804     -0.00032077578394
| 29> C          -2.98040993394950      1.20193760901241     -0.00023396308602
| 30> H          -2.77113925068928      1.83311429650402      0.88831166373856
| 31> H          -2.77095660989795      1.83331313895105     -0.88859326031545
| 32> H          -4.05230547218906      0.94280281896802     -0.00037251615162
| 33> H          -0.53955758793286     -2.16627118900373     -0.00028423650614
| 34> H           1.97817281356228     -2.14018774357936     -0.00004958149680
| 35> F           3.44427090335711      0.03016813897025      0.00021925839865
| 36> H           1.93269491180525      2.16366570442592      0.00021265957610
| 37> H          -0.54367651735585      2.16766590040277     -0.00001523628380
| 38> *
| 39> 
| 40>                          ****END OF INPUT****
================================================================================

                       *****************************
                       * Geometry Optimization Run *
                       *****************************

Geometry optimization settings:
Update method            Update   .... BFGS
Choice of coordinates    CoordSys .... (2022) Redundant Internals
Initial Hessian          InHess   .... Almloef's Model
Max. no of cycles        MaxIter  .... 51

Convergence Tolerances:
Energy Change            TolE     ....  5.0000e-06 Eh
Max. Gradient            TolMAXG  ....  3.0000e-04 Eh/bohr
RMS Gradient             TolRMSG  ....  1.0000e-04 Eh/bohr
Max. Displacement        TolMAXD  ....  4.0000e-03 bohr
RMS Displacement         TolRMSD  ....  2.0000e-03 bohr
Strict Convergence                .... False

------------------------------------------------------------------------------
                        ORCA OPTIMIZATION COORDINATE SETUP
------------------------------------------------------------------------------

The optimization will be done in redundant internal coordinates (2022)
Making redundant internal coordinates   ...  (2022 redundants) done
Evaluating the initial hessian          ...  (Almloef) done
Evaluating the coordinates              ...  done
Calculating the B-matrix                .... done
Calculating the G-matrix                .... done
Diagonalizing the G-matrix              .... done
Small eigenvalue found = 2.218e-02
The first mode is                       ....   32
The number of degrees of freedom        ....   45

    -----------------------------------------------------------------
                    Redundant Internal Coordinates


    -----------------------------------------------------------------
         Definition                    Initial Value    Approx d2E/dq
    -----------------------------------------------------------------
      1. B(C   1,C   0)                  1.3874         0.630725   
      2. B(C   2,C   1)                  1.3975         0.607791   
      3. B(C   3,C   2)                  1.4046         0.592174   
      4. B(C   4,C   3)                  1.3805         0.647088   
      5. B(C   5,C   4)                  1.4363         0.527141   
      6. B(C   5,C   0)                  1.4370         0.525806   
      7. B(C   6,C   5)                  1.4327         0.533996   
      8. B(O   7,C   6)                  1.2589         0.905838   
      9. B(C   8,C   6)                  1.5271         0.377576   
     10. B(H   9,C   8)                  1.1098         0.334817   
     11. B(H  10,C   8)                  1.1098         0.334819   
     12. B(H  11,C   8)                  1.1028         0.343592   
     13. B(H  12,C   4)                  1.0936         0.355349   
     14. B(H  13,C   3)                  1.0961         0.352085   
     15. B(F  14,C   2)                  1.3617         0.577018   
     16. B(H  15,C   1)                  1.0959         0.352315   
     17. B(H  16,C   0)                  1.0946         0.354084   
     18. A(C   1,C   0,C   5)          121.7409         0.422726   
     19. A(C   1,C   0,H  16)          118.5433         0.352927   
     20. A(C   5,C   0,H  16)          119.7159         0.342280   
     21. A(C   0,C   1,C   2)          120.0292         0.433852   
     22. A(C   2,C   1,H  15)          118.8875         0.350427   
     23. A(C   0,C   1,H  15)          121.0833         0.352628   
     24. A(C   3,C   2,F  14)          119.7597         0.420364   
     25. A(C   1,C   2,F  14)          119.8815         0.422322   
     26. A(C   1,C   2,C   3)          120.3588         0.428964   
     27. A(C   2,C   3,C   4)          119.7985         0.433820   
     28. A(C   4,C   3,H  13)          121.3322         0.354122   
     29. A(C   2,C   3,H  13)          118.8693         0.348853   
     30. A(C   3,C   4,C   5)          122.1506         0.424859   
     31. A(C   5,C   4,H  12)          116.5942         0.342630   
     32. A(C   3,C   4,H  12)          121.2552         0.354676   
     33. A(C   0,C   5,C   6)          124.7856         0.410385   
     34. A(C   0,C   5,C   4)          115.9221         0.409446   
     35. A(C   4,C   5,C   6)          119.2923         0.410569   
     36. A(O   7,C   6,C   8)          118.6985         0.422298   
     37. A(C   5,C   6,C   8)          117.6879         0.387176   
     38. A(C   5,C   6,O   7)          123.6137         0.449498   
     39. A(C   6,C   8,H  11)          107.5804         0.322395   
     40. A(H   9,C   8,H  10)          106.3636         0.284297   
     41. A(C   6,C   8,H  10)          112.8953         0.321032   
     42. A(C   6,C   8,H   9)          112.8952         0.321032   
     43. A(H  10,C   8,H  11)          108.4832         0.285444   
     44. A(H   9,C   8,H  11)          108.4831         0.285443   
     45. D(H  15,C   1,C   0,H  16)     -0.0006         0.027587   
     46. D(H  15,C   1,C   0,C   5)   -179.9995         0.027587   
     47. D(C   2,C   1,C   0,C   5)      0.0005         0.027587   
     48. D(C   2,C   1,C   0,H  16)    179.9994         0.027587   
     49. D(C   3,C   2,C   1,C   0)     -0.0006         0.025503   
     50. D(F  14,C   2,C   1,H  15)      0.0003         0.025503   
     51. D(C   3,C   2,C   1,H  15)    179.9994         0.025503   
     52. D(F  14,C   2,C   1,C   0)   -179.9997         0.025503   
     53. D(H  13,C   3,C   2,F  14)     -0.0002         0.024141   
     54. D(H  13,C   3,C   2,C   1)   -179.9992         0.024141   
     55. D(C   4,C   3,C   2,F  14)    179.9994         0.024141   
     56. D(C   4,C   3,C   2,C   1)      0.0003         0.024141   
     57. D(H  12,C   4,C   3,C   2)   -179.9997         0.029136   
     58. D(C   5,C   4,C   3,H  13)    179.9996         0.029136   
     59. D(C   5,C   4,C   3,C   2)      0.0001         0.029136   
     60. D(H  12,C   4,C   3,H  13)     -0.0001         0.029136   
     61. D(C   6,C   5,C   4,H  12)      0.0008         0.018962   
     62. D(C   0,C   5,C   4,H  12)    179.9995         0.018962   
     63. D(C   0,C   5,C   4,C   3)     -0.0002         0.018962   
     64. D(C   6,C   5,C   0,H  16)     -0.0003         0.018864   
     65. D(C   6,C   5,C   0,C   1)    179.9986         0.018864   
     66. D(C   6,C   5,C   4,C   3)   -179.9990         0.018962   
     67. D(C   4,C   5,C   0,H  16)   -179.9990         0.018864   
     68. D(C   4,C   5,C   0,C   1)     -0.0001         0.018864   
     69. D(C   8,C   6,C   5,C   4)    179.9974         0.019472   
     70. D(C   8,C   6,C   5,C   0)     -0.0013         0.019472   
     71. D(O   7,C   6,C   5,C   4)      0.0043         0.019472   
     72. D(O   7,C   6,C   5,C   0)   -179.9943         0.019472   
     73. D(H  10,C   8,C   6,C   5)     60.3410         0.010647   
     74. D(H   9,C   8,C   6,O   7)    119.6485         0.010647   
     75. D(H   9,C   8,C   6,C   5)    -60.3449         0.010647   
     76. D(H  11,C   8,C   6,C   5)    179.9981         0.010647   
     77. D(H  10,C   8,C   6,O   7)   -119.6656         0.010647   
    -----------------------------------------------------------------

Number of atoms                         .... 17
Number of degrees of freedom            .... 77


         *************************************************************
         *                GEOMETRY OPTIMIZATION CYCLE   1            *
         *************************************************************
---------------------------------
CARTESIAN COORDINATES (ANGSTROEM)
---------------------------------
  C     -0.013314    1.210152   -0.000039
  C      1.374074    1.220772    0.000095
  C      2.082687    0.016236    0.000081
  C      1.398009   -1.210185   -0.000055
  C      0.017634   -1.225244   -0.000182
  C     -0.759888   -0.017637   -0.000184
  C     -2.189989   -0.104687   -0.000298
  O     -2.821914   -1.193484   -0.000321
  C     -2.980410    1.201938   -0.000234
  H     -2.771139    1.833114    0.888312
  H     -2.770957    1.833313   -0.888593
  H     -4.052305    0.942803   -0.000373
  H     -0.539558   -2.166271   -0.000284
  H      1.978173   -2.140188   -0.000050
  F      3.444271    0.030168    0.000219
  H      1.932695    2.163666    0.000213
  H     -0.543677    2.167666   -0.000015

----------------------------
CARTESIAN COORDINATES (A.U.)
----------------------------
  NO LB      ZA    FRAG     MASS         X           Y           Z
   0 C     6.0000    0    12.011   -0.025160    2.286855   -0.000074
   1 C     6.0000    0    12.011    2.596624    2.306924    0.000179
   2 C     6.0000    0    12.011    3.935709    0.030681    0.000153
   3 C     6.0000    0    12.011    2.641854   -2.286919   -0.000104
   4 C     6.0000    0    12.011    0.033323   -2.315376   -0.000345
   5 C     6.0000    0    12.011   -1.435981   -0.033329   -0.000347
   6 C     6.0000    0    12.011   -4.138479   -0.197830   -0.000564
   7 O     8.0000    0    15.999   -5.332644   -2.255358   -0.000606
   8 C     6.0000    0    12.011   -5.632159    2.271333   -0.000442
   9 H     1.0000    0     1.008   -5.236694    3.464084    1.678666
  10 H     1.0000    0     1.008   -5.236349    3.464460   -1.679198
  11 H     1.0000    0     1.008   -7.657748    1.781639   -0.000704
  12 H     1.0000    0     1.008   -1.019616   -4.093659   -0.000537
  13 H     1.0000    0     1.008    3.738205   -4.044369   -0.000094
  14 F     9.0000    0    18.998    6.508729    0.057010    0.000414
  15 H     1.0000    0     1.008    3.652264    4.088736    0.000402
  16 H     1.0000    0     1.008   -1.027400    4.096295   -0.000029

--------------------------------
INTERNAL COORDINATES (ANGSTROEM)
--------------------------------
 C      0   0   0     0.000000000000     0.00000000     0.00000000
 C      1   0   0     1.387429134196     0.00000000     0.00000000
 C      2   1   0     1.397511757182   120.02916877     0.00000000
 C      3   2   1     1.404597511642   120.35877909     0.00000000
 C      4   3   2     1.380457082666   119.79848945     0.00000000
 C      5   4   3     1.436264300747   122.15058821     0.00000000
 C      6   5   4     1.432747410981   119.29232244   180.00100352
 O      7   6   5     1.258891621805   123.61365908     0.00000000
 C      7   6   5     1.527099779918   117.68785763   179.99737914
 H      9   7   6     1.109816003063   112.89519619   299.65506319
 H      9   7   6     1.109814396976   112.89527654    60.34101811
 H      9   7   6     1.102774185183   107.58043830   179.99811602
 H      5   4   3     1.093615183868   121.25521092   180.00032371
 H      4   3   2     1.096127153673   118.86934493   180.00079073
 F      3   2   1     1.361654905967   119.88150283   180.00033387
 H      2   1   3     1.095949771942   121.08334783   180.00001266
 H      1   2   3     1.094585748326   118.54325942   179.99942469

---------------------------
INTERNAL COORDINATES (A.U.)
---------------------------
 C      0   0   0     0.000000000000     0.00000000     0.00000000
 C      1   0   0     2.621861093853     0.00000000     0.00000000
 C      2   1   0     2.640914490010   120.02916877     0.00000000
 C      3   2   1     2.654304625391   120.35877909     0.00000000
 C      4   3   2     2.608685825871   119.79848945     0.00000000
 C      5   4   3     2.714146184339   122.15058821     0.00000000
 C      6   5   4     2.707500225839   119.29232244   180.00100352
 O      7   6   5     2.378960397499   123.61365908     0.00000000
 C      7   6   5     2.885800363216   117.68785763   179.99737914
 H      9   7   6     2.097248304832   112.89519619   299.65506319
 H      9   7   6     2.097245269768   112.89527654    60.34101811
 H      9   7   6     2.083941197554   107.58043830   179.99811602
 H      5   4   3     2.066633193408   121.25521092   180.00032371
 H      4   3   2     2.071380128397   118.86934493   180.00079073
 F      3   2   1     2.573154861188   119.88150283   180.00033387
 H      2   1   3     2.071044925504   121.08334783   180.00001266
 H      1   2   3     2.068467294430   118.54325942   179.99942469

---------------------
BASIS SET INFORMATION
---------------------
There are 4 groups of distinct atoms

 Group   1 Type C   : 19s6p3d2f contracted to 5s4p3d2f pattern {88111/3111/111/11}
 Group   2 Type O   : 19s6p3d2f contracted to 5s4p3d2f pattern {88111/3111/111/11}
 Group   3 Type H   : 6s3p2d contracted to 4s3p2d pattern {3111/111/11}
 Group   4 Type F   : 19s6p3d2f contracted to 5s4p3d2f pattern {88111/3111/111/11}

Atom   0C    basis set group =>   1
Atom   1C    basis set group =>   1
Atom   2C    basis set group =>   1
Atom   3C    basis set group =>   1
Atom   4C    basis set group =>   1
Atom   5C    basis set group =>   1
Atom   6C    basis set group =>   1
Atom   7O    basis set group =>   2
Atom   8C    basis set group =>   1
Atom   9H    basis set group =>   3
Atom  10H    basis set group =>   3
Atom  11H    basis set group =>   3
Atom  12H    basis set group =>   3
Atom  13H    basis set group =>   3
Atom  14F    basis set group =>   4
Atom  15H    basis set group =>   3
Atom  16H    basis set group =>   3
---------------------------------
AUXILIARY/J BASIS SET INFORMATION
---------------------------------
There are 4 groups of distinct atoms

 Group   1 Type C   : 12s5p4d2f1g contracted to 6s4p3d1f1g pattern {711111/2111/211/2/1}
 Group   2 Type O   : 12s5p4d2f1g contracted to 6s4p3d1f1g pattern {711111/2111/211/2/1}
 Group   3 Type H   : 5s2p1d contracted to 3s1p1d pattern {311/2/1}
 Group   4 Type F   : 12s5p4d2f1g contracted to 6s4p3d1f1g pattern {711111/2111/211/2/1}

Atom   0C    basis set group =>   1
Atom   1C    basis set group =>   1
Atom   2C    basis set group =>   1
Atom   3C    basis set group =>   1
Atom   4C    basis set group =>   1
Atom   5C    basis set group =>   1
Atom   6C    basis set group =>   1
Atom   7O    basis set group =>   2
Atom   8C    basis set group =>   1
Atom   9H    basis set group =>   3
Atom  10H    basis set group =>   3
Atom  11H    basis set group =>   3
Atom  12H    basis set group =>   3
Atom  13H    basis set group =>   3
Atom  14F    basis set group =>   4
Atom  15H    basis set group =>   3
Atom  16H    basis set group =>   3


           ************************************************************
           *        Program running with 8 parallel MPI-processes     *
           *              working on a common directory               *
           ************************************************************
------------------------------------------------------------------------------
                             ORCA STARTUP CALCULATIONS
                           -- RI-GTO INTEGRALS CHOSEN --
------------------------------------------------------------------------------
------------------------------------------------------------------------------
                   ___                                                        
                  /   \      - P O W E R E D   B Y -                         
                 /     \                                                     
                 |  |  |   _    _      __       _____    __    __             
                 |  |  |  | |  | |    /  \     |  _  \  |  |  /  |          
                  \  \/   | |  | |   /    \    | | | |  |  | /  /          
                 / \  \   | |__| |  /  /\  \   | |_| |  |  |/  /          
                |  |  |   |  __  | /  /__\  \  |    /   |      \           
                |  |  |   | |  | | |   __   |  |    \   |  |\   \          
                \     /   | |  | | |  |  |  |  | |\  \  |  | \   \       
                 \___/    |_|  |_| |__|  |__|  |_| \__\ |__|  \__/        
                                                                              
                      - O R C A' S   B I G   F R I E N D -                    
                                      &                                       
                       - I N T E G R A L  F E E D E R -                       
                                                                              
 v1 FN, 2020, v2 2021, v3 2022-2024                                           
------------------------------------------------------------------------------


----------------------
SHARK INTEGRAL PACKAGE
----------------------

Number of atoms                             ...     17
Number of basis functions                   ...    681
Number of shells                            ...    263
Maximum angular momentum                    ...      3
Integral batch strategy                     ... SHARK/LIBINT Hybrid
RI-J (if used) integral strategy            ... SPLIT-RIJ (Revised 2003 algorithm where possible)
Printlevel                                  ...      1
Contraction scheme used                     ... PARTIAL GENERAL contraction
Prescreening option                         ... SCHWARTZ
   Thresh                                   ... 2.500e-11
   Tcut                                     ... 2.500e-12
   Tpresel                                  ... 2.500e-12 
Coulomb Range Separation                    ... NOT USED
Exchange Range Separation                   ... NOT USED
Multipole approximations                    ... NOT USED
Finite Nucleus Model                        ... NOT USED
CABS basis                                  ... NOT available
Auxiliary Coulomb fitting basis             ... AVAILABLE
   # of basis functions in Aux-J            ...    567
   # of shells in Aux-J                     ...    185
   Maximum angular momentum in Aux-J        ...      4
Auxiliary J/K fitting basis                 ... NOT available
Auxiliary Correlation fitting basis         ... NOT available
Auxiliary 'external' fitting basis          ... NOT available

Checking pre-screening integrals            ... done (  0.1 sec) Dimension = 263
Save PGC pre-screening integrals            ... done (  0.1 sec) Dimension = 263
Calculate PGC overlap integrals             ... done (  0.2 sec) Dimension = 203
Calculating pre-screening integrals (ORCA)  ... done (  0.4 sec) Dimension = 203
Check shell pair data                       ... done (  0.1 sec)
Shell pair information
Shell pair cut-off parameter TPreSel        ...   2.5e-12
Total number of shell pairs                 ...     34716
Shell pairs after pre-screening             ...     28414
Total number of primitive shell pairs       ...     44304
Primitive shell pairs kept                  ...     33835
          la=0 lb=0:   6431 shell pairs
          la=1 lb=0:   7195 shell pairs
          la=1 lb=1:   1777 shell pairs
          la=2 lb=0:   5074 shell pairs
          la=2 lb=1:   2499 shell pairs
          la=2 lb=2:    910 shell pairs
          la=3 lb=0:   2358 shell pairs
          la=3 lb=1:   1149 shell pairs
          la=3 lb=2:    823 shell pairs
          la=3 lb=3:    198 shell pairs

Calculating one electron integrals          ... done (  0.1 sec)
Calculating RI/J V-Matrix + Cholesky decomp.... done (  0.1 sec)
Calculating Nuclear repulsion               ... done (  0.0 sec) ENN=    478.434030491818 Eh

Diagonalization of the overlap matrix:
Smallest eigenvalue                        ... 6.972e-07
Time for diagonalization                   ...    0.131 sec
Threshold for overlap eigenvalues          ... 1.000e-07
Number of eigenvalues below threshold      ... 0

IMPORTANT:
Smallest eigenvalue of S below the DiffSThresh (1.000e-06) while
Thresh>1e-12 and/or TCut>1e-13! In order to avoid SCF convergence issues,
Thresh will be set to at least 1e-12 and TCut to at least 1e-13.
This can be turned off by adding %SCF DiffSThresh -1 END to the input.

Time for construction of square roots      ...    0.097 sec
Total time needed                          ...    0.334 sec

-------------------
DFT GRID GENERATION
-------------------

General Integration Accuracy     IntAcc      ... 4.388
Radial Grid Type                 RadialGrid  ... OptM3 with GC (2021)
Angular Grid (max. ang.)         AngularGrid ... 4 (Lebedev-302)
Angular grid pruning method      GridPruning ... 4 (adaptive)
Weight generation scheme         WeightScheme... mBecke (2022)
Basis function cutoff            BFCut       ... 1.0000e-11
Integration weight cutoff        WCut        ... 1.0000e-14
Partially contracted basis set               ... off
Rotationally invariant grid construction     ... off
Angular grids for H and He will be reduced by one unit
Diffuse basis detected: some atoms will have their outermost
                        angular grid increased by 1.

Total number of grid points                  ...    86705
Total number of batches                      ...     1363
Average number of points per batch           ...       63
Average number of grid points per atom       ...     5100

---------------------
SHARK GRID GENERATION
---------------------

General Integration Accuracy     IntAcc      ... 4.388
Radial Grid Type                 RadialGrid  ... OptM3 with GC (2021)
Angular Grid (max. ang.)         AngularGrid ... 4 (Lebedev-302)
Angular grid pruning method      GridPruning ... 4 (adaptive)
Weight generation scheme         WeightScheme... mBecke (2022)
Basis function cutoff            BFCut       ... 1.0000e-11
Integration weight cutoff        WCut        ... 1.0000e-14
Partially contracted basis set               ... off
Rotationally invariant grid construction     ... off
Angular grids for H and He will be reduced by one unit
Diffuse basis detected: some atoms will have their outermost
                        angular grid increased by 1.
Steep s-basis detected: some atoms will have their radial
                        grid points doubled.

Total number of grid points                  ...   150056
Total number of batches                      ...     2356
Average number of points per batch           ...       63
Average number of grid points per atom       ...     8827

--------------------
COSX GRID GENERATION
--------------------

GRIDX 1
-------
General Integration Accuracy     IntAcc      ... 3.816
Radial Grid Type                 RadialGrid  ... OptM3 with GC (2021)
Angular Grid (max. ang.)         AngularGrid ... 1 (Lebedev-50)
Angular grid pruning method      GridPruning ... 4 (adaptive)
Weight generation scheme         WeightScheme... mBecke (2022)
Basis function cutoff            BFCut       ... 1.0000e-11
Integration weight cutoff        WCut        ... 1.0000e-14
Partially contracted basis set               ... on
Rotationally invariant grid construction     ... off
Angular grids for H and He will be reduced by one unit
Diffuse basis detected: some atoms will have their outermost
                        angular grid increased by 1.

Total number of grid points                  ...    10908
Total number of batches                      ...       94
Average number of points per batch           ...      116
Average number of grid points per atom       ...      642
UseSFitting                                  ... on

GRIDX 2
-------
General Integration Accuracy     IntAcc      ... 4.020
Radial Grid Type                 RadialGrid  ... OptM3 with GC (2021)
Angular Grid (max. ang.)         AngularGrid ... 2 (Lebedev-110)
Angular grid pruning method      GridPruning ... 4 (adaptive)
Weight generation scheme         WeightScheme... mBecke (2022)
Basis function cutoff            BFCut       ... 1.0000e-11
Integration weight cutoff        WCut        ... 1.0000e-14
Partially contracted basis set               ... on
Rotationally invariant grid construction     ... off
Angular grids for H and He will be reduced by one unit
Diffuse basis detected: some atoms will have their outermost
                        angular grid increased by 1.

Total number of grid points                  ...    26961
Total number of batches                      ...      220
Average number of points per batch           ...      122
Average number of grid points per atom       ...     1586
UseSFitting                                  ... on

GRIDX 3
-------
General Integration Accuracy     IntAcc      ... 4.338
Radial Grid Type                 RadialGrid  ... OptM3 with GC (2021)
Angular Grid (max. ang.)         AngularGrid ... 3 (Lebedev-194)
Angular grid pruning method      GridPruning ... 4 (adaptive)
Weight generation scheme         WeightScheme... mBecke (2022)
Basis function cutoff            BFCut       ... 1.0000e-11
Integration weight cutoff        WCut        ... 1.0000e-14
Partially contracted basis set               ... on
Rotationally invariant grid construction     ... off
Angular grids for H and He will be reduced by one unit
Diffuse basis detected: some atoms will have their outermost
                        angular grid increased by 1.

Total number of grid points                  ...    59645
Total number of batches                      ...      474
Average number of points per batch           ...      125
Average number of grid points per atom       ...     3509
UseSFitting                                  ... on
Initializing property integral containers    ... done (  0.2 sec)

SHARK setup successfully completed in   8.6 seconds

Maximum memory used throughout the entire STARTUP-calculation: 67.8 MB


           ************************************************************
           *        Program running with 8 parallel MPI-processes     *
           *              working on a common directory               *
           ************************************************************
-------------------------------------------------------------------------------
                                 ORCA GUESS
                   Start orbitals & Density for SCF / CASSCF
-------------------------------------------------------------------------------

------------
SCF SETTINGS
------------
Hamiltonian:
 Density Functional     Method          .... DFT(GTOs)
  Functional kind                       .... Exchange
  Functional name                       .... Re-regularized SCAN exchange by Furness et al
  Functional family                     .... MGGA
  Functional refs                              
    [ 0] J. W. Furness, A. D. Kaplan, J. Ning, J. P. Perdew, and J. Sun.,  J. Phys. Chem. Lett. 11, 8208-8215 (2020), doi: 10.1021/acs.jpclett.0c02405
    [ 1] J. W. Furness, A. D. Kaplan, J. Ning, J. P. Perdew, and J. Sun.,  J. Phys. Chem. Lett. 11, 9248-9248 (2020), doi: 10.1021/acs.jpclett.0c03077
  Functional external parameters        .... 6
    Parameter  0 _c1        =  6.670000e-01 : c1 parameter        
    Parameter  1 _c2        =  8.000000e-01 : c2 parameter        
    Parameter  2 _d         =  1.240000e+00 : d parameter         
    Parameter  3 _k1        =  6.500000e-02 : k1 parameter        
    Parameter  4 _eta       =  1.000000e-03 : eta parameter       
    Parameter  5 _dp2       =  3.610000e-01 : dp2 parameter       
  Functional kind                       .... Correlation
  Functional name                       .... Re-regularized SCAN correlation by Furness et al
  Functional family                     .... MGGA
  Functional refs                              
    [ 0] J. W. Furness, A. D. Kaplan, J. Ning, J. P. Perdew, and J. Sun.,  J. Phys. Chem. Lett. 11, 8208-8215 (2020), doi: 10.1021/acs.jpclett.0c02405
    [ 1] J. W. Furness, A. D. Kaplan, J. Ning, J. P. Perdew, and J. Sun.,  J. Phys. Chem. Lett. 11, 9248-9248 (2020), doi: 10.1021/acs.jpclett.0c03077
  Functional external parameters        .... 1
    Parameter  0 _eta       =  1.000000e-03 : Regularization parameter
 Gradients option       PostSCFGGA      .... off
 Hybrid DFT is turned on
   Fraction HF Exchange ScalHFX         ....  0.100000
   Scaling of DF-GGA-X  ScalDFX         ....  0.900000
   Scaling of DF-GGA-C  ScalDFC         ....  1.000000
   Scaling of DF-LDA-C  ScalLDAC        ....  1.000000
   Perturbative correction              ....  0.000000
   NL short-range parameter             .... 11.900000
 RI-approximation to the Coulomb term is turned on
   Number of AuxJ basis functions       .... 567
   RIJ-COSX (HFX calculated with COS-X)).... on


General Settings:
 Integral files         IntName         .... cs_rporg_143_red_opt_07
 Hartree-Fock type      HFTyp           .... UHF
 Total Charge           Charge          ....   -1
 Multiplicity           Mult            ....    2
 Number of Electrons    NEL             ....   73
 Basis Dimension        Dim             ....  621
 Nuclear Repulsion      ENuc            ....    478.4340304918 Eh

Convergence Acceleration:
 AO-DIIS                CNVDIIS         .... on
   Start iteration      DIISMaxIt       ....     0
   Startup error        DIISStart       ....  0.200000
   # of expansion vecs  DIISMaxEq       ....     5
   Bias factor          DIISBfac        ....   1.050
   Max. coefficient     DIISMaxC        ....  10.000
 MO-DIIS                CNVKDIIS        .... off
 Trust-Rad. Augm. Hess. CNVTRAH         .... auto
   Auto Start mean grad. ratio tolernc. ....  1.125000
   Auto Start start iteration           ....    50
   Auto Start num. interpolation iter.  ....    10
   Max. Number of Micro iterations      ....    24
   Max. Number of Macro iterations      .... Maxiter - #DIIS iter
   Number of Davidson start vectors     ....     2
   Converg. threshold    (grad. norm)   ....   1.000e-05
   Grad. Scal. Fac. for Micro threshold ....   0.100
   Minimum threshold for Micro iter.    ....   1.000e-02
   NR start threshold (gradient norm)   ....   1.000e-04
   Initial trust radius                 ....   0.400
   Minimum AH scaling param. (alpha)    ....   1.000
   Maximum AH scaling param. (alpha)    .... 1000.000
   Quad. conv. algorithm                .... NR
   White noise on init. David. guess    .... on
   Maximum white noise                  ....   0.010
   Pseudo random numbers                .... off
   Inactive MOs                         .... canonical
   Orbital update algorithm             .... Taylor
   Preconditioner                       .... Diag
   Full preconditioner red. dimension   ....   250
 SOSCF                  CNVSOSCF        .... on
   Start iteration      SOSCFMaxIt      ....   150
   Startup grad/error   SOSCFStart      ....  0.001000
   Hessian update       SOSCFHessUp     .... L-BFGS
 Level Shifting         CNVShift        .... on
   Level shift para.    LevelShift      ....    0.2500
   Turn off err/grad.   ShiftErr        ....    0.0000
 Zerner damping         CNVZerner       .... off
 Static damping         CNVDamp         .... on
   Fraction old density DampFac         ....    0.8500
   Max. Damping (<1)    DampMax         ....    0.9800
   Min. Damping (>=0)   DampMin         ....    0.0000
   Turn off err/grad.   DampErr         ....    0.0300

SCF Procedure:
 Maximum # iterations   MaxIter         ....  1500
 SCF integral mode      SCFMode         .... Direct
   Integral package                     .... SHARK and LIBINT hybrid scheme
 Reset frequency        DirectResetFreq ....    20
 Integral Threshold     Thresh          ....  1.000e-12 Eh
 Primitive CutOff       TCut            ....  1.000e-13 Eh

Convergence Tolerance:
 Convergence Check Mode ConvCheckMode   .... Total+1el-Energy
 Convergence forced     ConvForced      .... 0
 Energy Change          TolE            ....  1.000e-08 Eh
 1-El. energy change                    ....  1.000e-05 Eh
 Orbital Gradient       TolG            ....  1.000e-05
 Orbital Rotation angle TolX            ....  1.000e-05
 DIIS Error             TolErr          ....  5.000e-07

------------------------------
INITIAL GUESS: MODEL POTENTIAL
------------------------------
Loading Hartree-Fock densities                     ... done
Calculating cut-offs                               ... done
Initializing the effective Hamiltonian             ... done
Setting up the integral package (SHARK)            ... done
Starting the Coulomb interaction                   ... done (   0.4 sec)
Making the grid                                    ... done (   0.4 sec)
Mapping shells                                     ... done
Starting the XC term evaluation                    ... done (   0.4 sec)
  promolecular density results
     # of electrons  =     71.999144000
     EX              =    -61.056512108
     EC              =     -2.399998240
     EX+EC           =    -63.456510348
Transforming the Hamiltonian                       ... done (   0.1 sec)
Diagonalizing the Hamiltonian                      ... done (   0.1 sec)
Back transforming the eigenvectors                 ... done (   0.2 sec)
Now organizing SCF variables                       ... done
                      ------------------
                      INITIAL GUESS DONE (   2.3 sec)
                      ------------------
             **** ENERGY FILE WAS UPDATED (cs_rporg_143_red_opt_07.en.tmp) ****
Finished Guess after   5.1 sec
Maximum memory used throughout the entire GUESS-calculation: 46.4 MB


           ************************************************************
           *        Program running with 8 parallel MPI-processes     *
           *              working on a common directory               *
           ************************************************************

-------------------------------------------------------------------------------------------
                                      ORCA LEAN-SCF
                              memory conserving SCF solver
-------------------------------------------------------------------------------------------

--------------------
CPCM SOLVATION MODEL
--------------------
CPCM parameters:
  Epsilon                                         ...      35.6880
  Refrac                                          ...       1.3442
  Rsolv                                           ...       2.1900
  Surface type                                    ...    GEPOL SES
  Discretization scheme                           ... Constant num. charges
  Epsilon function type                           ...         CPCM
Solvent:                                          ... ACETONITRILE
SMD-CDS solvent descriptors:
  Soln                                            ...       1.3442
  Soln25                                          ...       1.3416
  Sola                                            ...       0.0700
  Solb                                            ...       0.3200
  Solg                                            ...      41.2500
  Solc                                            ...       0.0000
  Solh                                            ...       0.0000
Radii:
  Scheme                                          ... Element-dependent radii
  Radius for C  used is    3.4960 Bohr (=   1.8500 Ang.)
  Radius for O  used is    4.0969 Bohr (=   2.1680 Ang.)
  Radius for H  used is    2.2677 Bohr (=   1.2000 Ang.)
  Radius for F  used is    3.2692 Bohr (=   1.7300 Ang.)
Calculating surface                               ...        done! (  0.0s)
Cavity surface points                             ...          589
Cavity Volume                                     ...    1093.2906
Cavity Surface-area                               ...     618.9203
Calculating surface distance matrix               ...        done! (  0.0s)
Performing Cholesky decomposition & store         ...        done! (  0.0s)
Overall time for CPCM initialization              ...                 0.1s

----------------------------------------D-I-I-S--------------------------------------------
Iteration    Energy (Eh)           Delta-E    RMSDP     MaxDP     DIISErr   Damp  Time(sec)
-------------------------------------------------------------------------------------------
               ***  Starting incremental Fock matrix formation  ***
    1    -483.8069983110228236     0.00e+00  6.06e-04  4.97e-02  1.72e-01  0.850  22.0
Warning: op=0 Small HOMO/LUMO gap (   0.007) - skipping pre-diagonalization
         Will do a full diagonalization
    2    -483.8900249776036731    -8.30e-02  7.13e-04  9.27e-02  1.21e-01  0.850  20.1
                               ***Turning on AO-DIIS***
    3    -483.9444596661742821    -5.44e-02  4.31e-04  3.13e-02  7.46e-02  0.850  18.3
    4    -483.9787828440757380    -3.43e-02  3.24e-04  1.69e-02  6.17e-02  0.850  19.4
    5    -484.0036349995494334    -2.49e-02  2.64e-04  1.29e-02  5.45e-02  0.850  17.6
    6    -484.0233716901738603    -1.97e-02  2.25e-04  1.06e-02  4.75e-02  0.850  16.8
    7    -484.0396848692657272    -1.63e-02  1.93e-04  9.07e-03  3.99e-02  0.850  17.2
    8    -484.0532349614606460    -1.36e-02  1.63e-04  8.04e-03  3.25e-02  0.850  17.4
    9    -484.0643779336366492    -1.11e-02  1.38e-04  6.97e-03  2.73e-02  0.850  15.0
   10    -484.0735932920237587    -9.22e-03  7.86e-04  3.90e-02  2.35e-02  0.000  15.3
   11    -484.1226331234441318    -4.90e-02  4.09e-05  3.02e-03  1.44e-03  0.000  16.8
   12    -484.1226890820212816    -5.60e-05  2.93e-05  3.26e-03  2.67e-03  0.000  20.7
                              *** Initializing SOSCF ***
---------------------------------------S-O-S-C-F--------------------------------------
Iteration    Energy (Eh)           Delta-E    RMSDP     MaxDP     MaxGrad    Time(sec)
--------------------------------------------------------------------------------------
   13    -484.1227336500693923    -4.46e-05  2.30e-05  2.17e-03  6.74e-04    16.6
               *** Restarting incremental Fock matrix formation ***
   14    -484.1227618934437373    -2.82e-05  6.94e-05  3.16e-03  1.00e-03    20.8
   15    -484.1227808709692795    -1.90e-05  9.96e-05  4.44e-03  6.83e-04    20.9
   16    -484.1227914187056172    -1.05e-05  8.29e-05  3.47e-03  6.88e-04    19.7
   17    -484.1227981627491204    -6.74e-06  1.72e-05  1.06e-03  1.96e-04    18.9
   18    -484.1227984562712550    -2.94e-07  1.09e-05  6.07e-04  1.38e-04    20.5
   19    -484.1227990163402524    -5.60e-07  2.25e-06  1.34e-04  5.62e-05    17.9
   20    -484.1227990225507369    -6.21e-09  2.78e-06  1.05e-04  3.26e-05    17.4
                 **** Energy Check signals convergence ****

               *****************************************************
               *                     SUCCESS                       *
               *           SCF CONVERGED AFTER  20 CYCLES          *
               *****************************************************

Recomputing exchange energy using gridx3       ... done (   19.401 sec)
Old exchange energy                            :     -6.243214668 Eh
New exchange energy                            :     -6.243209095 Eh
Exchange energy change after final integration :      0.000005574 Eh
Total energy after final integration           :   -484.122793449 Eh

SMD CDS free energy correction energy :                -1.62875     Kcal/mol
Total Energy after SMD CDS correction =              -484.125389032 Eh
             **** ENERGY FILE WAS UPDATED (cs_rporg_143_red_opt_07.en.tmp) ****

----------------
TOTAL SCF ENERGY
----------------

Total Energy       :       -484.12538903206575 Eh          -13173.72157 eV

Components:
Nuclear Repulsion  :        478.43403049181762 Eh           13018.85184 eV
Electronic Energy  :       -962.47335236818742 Eh          -26190.23140 eV
One Electron Energy:      -1621.45334445964022 Eh          -44121.98862 eV
Two Electron Energy:        658.97999209145280 Eh           17931.75722 eV
CPCM Dielectric    :         -0.08347714618098 Eh              -2.27153 eV
SMD CDS (Gcds)     :         -0.00259558307113 Eh              -0.07063 eV

Virial components:
Potential Energy   :       -965.54398119018276 Eh          -26273.78746 eV
Kinetic Energy     :        481.41859215811701 Eh           13100.06589 eV
Virial Ratio       :          2.00562254328778

DFT components:
N(Alpha)           :       37.000024801876 electrons
N(Beta)            :       36.000040038063 electrons
N(Total)           :       73.000064839939 electrons
E(X)               :      -56.426937473192 Eh       
E(C)               :       -2.388560863152 Eh       
E(XC)              :      -58.815498336344 Eh       

CPCM Solvation Model Properties:
Surface-charge          :          0.95837099299833
Corrected charge        :          1.00000000000000
Outlying charge corr.   :          0.00012220636630 Eh               0.00333 eV
Free-energy (cav+disp)  :         -0.00259558307113 Eh              -0.07063 eV

---------------
SCF CONVERGENCE
---------------

  Last Energy change         ...    6.2105e-09  Tolerance :   1.0000e-08
  Last MAX-Density change    ...    1.0539e-04  Tolerance :   1.0000e-07
  Last RMS-Density change    ...    2.7763e-06  Tolerance :   5.0000e-09
  Last DIIS Error            ...    6.7404e-04  Tolerance :   5.0000e-07
  Last Orbital Gradient      ...    3.2571e-05  Tolerance :   1.0000e-05
  Last Orbital Rotation      ...    1.0037e-04  Tolerance :   1.0000e-05


----------------------
UHF SPIN CONTAMINATION
----------------------

Warning: in a DFT calculation there is little theoretical justification to 
         calculate <S**2> as in Hartree-Fock theory. We will do it anyways
         but you should keep in mind that the values have only limited relevance

Expectation value of <S**2>     :     0.780081
Ideal value S*(S+1) for S=0.5   :     0.750000
Deviation                       :     0.030081

----------------
ORBITAL ENERGIES
----------------
                 SPIN UP ORBITALS
  NO   OCC          E(Eh)            E(eV) 
   0   1.0000     -24.670655      -671.3226 
   1   1.0000     -19.034616      -517.9582 
   2   1.0000     -10.210936      -277.8537 
   3   1.0000     -10.169578      -276.7283 
   4   1.0000     -10.144516      -276.0463 
   5   1.0000     -10.144382      -276.0427 
   6   1.0000     -10.142394      -275.9886 
   7   1.0000     -10.137045      -275.8430 
   8   1.0000     -10.127179      -275.5745 
   9   1.0000     -10.124903      -275.5126 
  10   1.0000      -1.214886       -33.0587 
  11   1.0000      -0.965614       -26.2757 
  12   1.0000      -0.833881       -22.6910 
  13   1.0000      -0.738890       -20.1062 
  14   1.0000      -0.730375       -19.8745 
  15   1.0000      -0.687205       -18.6998 
  16   1.0000      -0.606244       -16.4967 
  17   1.0000      -0.586610       -15.9625 
  18   1.0000      -0.517977       -14.0949 
  19   1.0000      -0.515165       -14.0183 
  20   1.0000      -0.457081       -12.4378 
  21   1.0000      -0.447486       -12.1767 
  22   1.0000      -0.431484       -11.7413 
  23   1.0000      -0.412147       -11.2151 
  24   1.0000      -0.396601       -10.7921 
  25   1.0000      -0.393778       -10.7152 
  26   1.0000      -0.381817       -10.3898 
  27   1.0000      -0.368407       -10.0249 
  28   1.0000      -0.347765        -9.4632 
  29   1.0000      -0.341686        -9.2977 
  30   1.0000      -0.329792        -8.9741 
  31   1.0000      -0.305955        -8.3255 
  32   1.0000      -0.297451        -8.0941 
  33   1.0000      -0.245549        -6.6817 
  34   1.0000      -0.226327        -6.1587 
  35   1.0000      -0.194770        -5.3000 
  36   1.0000      -0.088119        -2.3978 
  37   0.0000      -0.011496        -0.3128 
  38   0.0000       0.008821         0.2400 
  39   0.0000       0.022794         0.6203 
  40   0.0000       0.025731         0.7002 
  41   0.0000       0.036198         0.9850 
  42   0.0000       0.039157         1.0655 
  43   0.0000       0.039274         1.0687 
  44   0.0000       0.044308         1.2057 
  45   0.0000       0.050736         1.3806 
  46   0.0000       0.067651         1.8409 
  47   0.0000       0.068234         1.8568 

                 SPIN DOWN ORBITALS
  NO   OCC          E(Eh)            E(eV) 
   0   1.0000     -24.669464      -671.2902 
   1   1.0000     -19.027909      -517.7757 
   2   1.0000     -10.204984      -277.6917 
   3   1.0000     -10.164434      -276.5883 
   4   1.0000     -10.146650      -276.1044 
   5   1.0000     -10.146451      -276.0990 
   6   1.0000     -10.139079      -275.8984 
   7   1.0000     -10.133597      -275.7492 
   8   1.0000     -10.126345      -275.5519 
   9   1.0000     -10.125384      -275.5257 
  10   1.0000      -1.212503       -32.9939 
  11   1.0000      -0.954152       -25.9638 
  12   1.0000      -0.829903       -22.5828 
  13   1.0000      -0.732144       -19.9226 
  14   1.0000      -0.726711       -19.7748 
  15   1.0000      -0.684008       -18.6128 
  16   1.0000      -0.597335       -16.2543 
  17   1.0000      -0.583999       -15.8914 
  18   1.0000      -0.513562       -13.9747 
  19   1.0000      -0.511521       -13.9192 
  20   1.0000      -0.456060       -12.4100 
  21   1.0000      -0.436450       -11.8764 
  22   1.0000      -0.427113       -11.6223 
  23   1.0000      -0.410419       -11.1681 
  24   1.0000      -0.393316       -10.7027 
  25   1.0000      -0.383991       -10.4489 
  26   1.0000      -0.379779       -10.3343 
  27   1.0000      -0.366796        -9.9810 
  28   1.0000      -0.344396        -9.3715 
  29   1.0000      -0.332270        -9.0415 
  30   1.0000      -0.327548        -8.9130 
  31   1.0000      -0.296055        -8.0561 
  32   1.0000      -0.281549        -7.6613 
  33   1.0000      -0.236809        -6.4439 
  34   1.0000      -0.204913        -5.5760 
  35   1.0000      -0.189578        -5.1587 
  36   0.0000      -0.023716        -0.6454 
  37   0.0000      -0.005818        -0.1583 
  38   0.0000       0.011358         0.3091 
  39   0.0000       0.024164         0.6575 
  40   0.0000       0.027911         0.7595 
  41   0.0000       0.039582         1.0771 
  42   0.0000       0.041101         1.1184 
  43   0.0000       0.045622         1.2414 
  44   0.0000       0.052625         1.4320 
  45   0.0000       0.062630         1.7043 
  46   0.0000       0.069493         1.8910 
*Only the first 10 virtual orbitals were printed.

                    ********************************
                    * MULLIKEN POPULATION ANALYSIS *
                    ********************************

--------------------------------------------
MULLIKEN ATOMIC CHARGES AND SPIN POPULATIONS
--------------------------------------------
   0 C :   -0.499444    0.301354
   1 C :   -0.859479   -0.208875
   2 C :    0.603891    0.354016
   3 C :   -0.727432   -0.201662
   4 C :   -0.944021    0.293294
   5 C :    1.711981    0.001849
   6 C :    0.439377    0.269487
   7 O :   -1.094960    0.226566
   8 C :   -0.619505   -0.055639
   9 H :    0.219055    0.021779
  10 H :    0.220064    0.021754
  11 H :    0.147616   -0.007067
  12 H :    0.112843   -0.017764
  13 H :    0.411450   -0.002994
  14 F :   -0.539615    0.020404
  15 H :    0.409058   -0.002390
  16 H :    0.009120   -0.014114
Sum of atomic charges         :   -1.0000000
Sum of atomic spin populations:    1.0000000

-----------------------------------------------------
MULLIKEN REDUCED ORBITAL CHARGES AND SPIN POPULATIONS
-----------------------------------------------------
CHARGE
  0 C s       :     3.901494  s :     3.901494
      pz      :     1.052091  p :     2.548575
      px      :     0.496438
      py      :     1.000046
      dz2     :    -0.027683  d :     0.067716
      dxz     :     0.011223
      dyz     :     0.024403
      dx2y2   :    -0.093786
      dxy     :     0.153558
      f0      :     0.001500  f :    -0.018341
      f+1     :    -0.000017
      f-1     :    -0.000480
      f+2     :    -0.000696
      f-2     :    -0.000885
      f+3     :     0.003145
      f-3     :    -0.020907

  1 C s       :     3.777922  s :     3.777922
      pz      :     0.996851  p :     2.903207
      px      :     1.068093
      py      :     0.838263
      dz2     :     0.018172  d :     0.197140
      dxz     :     0.047171
      dyz     :     0.018286
      dx2y2   :     0.078165
      dxy     :     0.035346
      f0      :     0.000322  f :    -0.018790
      f+1     :    -0.001178
      f-1     :     0.000519
      f+2     :     0.000878
      f-2     :    -0.002131
      f+3     :     0.002594
      f-3     :    -0.019795

  2 C s       :     3.243016  s :     3.243016
      pz      :     1.064051  p :     2.158778
      px      :     0.375021
      py      :     0.719705
      dz2     :    -0.025020  d :     0.006328
      dxz     :     0.015453
      dyz     :     0.035499
      dx2y2   :     0.000730
      dxy     :    -0.020334
      f0      :     0.001463  f :    -0.012012
      f+1     :    -0.001449
      f-1     :    -0.000398
      f+2     :     0.002100
      f-2     :     0.000407
      f+3     :    -0.002993
      f-3     :    -0.011143

  3 C s       :     3.651914  s :     3.651914
      pz      :     0.995774  p :     2.896053
      px      :     0.984074
      py      :     0.916205
      dz2     :     0.011552  d :     0.194240
      dxz     :     0.051713
      dyz     :     0.022209
      dx2y2   :     0.083728
      dxy     :     0.025038
      f0      :     0.000340  f :    -0.014775
      f+1     :    -0.000434
      f-1     :     0.000825
      f+2     :     0.000784
      f-2     :    -0.002094
      f+3     :     0.002904
      f-3     :    -0.017100

  4 C s       :     4.122414  s :     4.122414
      pz      :     1.018593  p :     2.773692
      px      :     0.724187
      py      :     1.030911
      dz2     :    -0.025247  d :     0.064932
      dxz     :     0.017992
      dyz     :     0.017878
      dx2y2   :    -0.040468
      dxy     :     0.094777
      f0      :     0.001092  f :    -0.017017
      f+1     :    -0.001462
      f-1     :    -0.000674
      f+2     :    -0.000540
      f-2     :    -0.000877
      f+3     :     0.003059
      f-3     :    -0.017615

  5 C s       :     2.665781  s :     2.665781
      pz      :     1.032388  p :     1.705757
      px      :     0.168624
      py      :     0.504744
      dz2     :    -0.016042  d :     0.031839
      dxz     :     0.038642
      dyz     :    -0.015828
      dx2y2   :     0.003494
      dxy     :     0.021573
      f0      :     0.000075  f :    -0.115358
      f+1     :    -0.005739
      f-1     :    -0.000608
      f+2     :     0.000397
      f-2     :    -0.007002
      f+3     :    -0.009697
      f-3     :    -0.092784

  6 C s       :     3.485473  s :     3.485473
      pz      :     0.807744  p :     1.999555
      px      :     0.636041
      py      :     0.555771
      dz2     :     0.009296  d :     0.112251
      dxz     :     0.030330
      dyz     :     0.035552
      dx2y2   :     0.065267
      dxy     :    -0.028195
      f0      :     0.000725  f :    -0.036656
      f+1     :    -0.000610
      f-1     :    -0.000058
      f+2     :     0.004167
      f-2     :     0.000929
      f+3     :    -0.006893
      f-3     :    -0.034916

  7 O s       :     4.138343  s :     4.138343
      pz      :     1.583257  p :     4.904361
      px      :     1.793847
      py      :     1.527257
      dz2     :     0.000705  d :     0.046940
      dxz     :     0.006978
      dyz     :     0.015594
      dx2y2   :     0.013360
      dxy     :     0.010303
      f0      :     0.000805  f :     0.005315
      f+1     :     0.000248
      f-1     :     0.000115
      f+2     :     0.000234
      f-2     :     0.000931
      f+3     :     0.000694
      f-3     :     0.002288

  8 C s       :     3.398216  s :     3.398216
      pz      :     1.111211  p :     3.123975
      px      :     1.019901
      py      :     0.992863
      dz2     :     0.007611  d :     0.091558
      dxz     :     0.009190
      dyz     :     0.046708
      dx2y2   :     0.021340
      dxy     :     0.006709
      f0      :     0.000803  f :     0.005756
      f+1     :    -0.000549
      f-1     :    -0.001007
      f+2     :     0.000879
      f-2     :     0.001780
      f+3     :     0.004076
      f-3     :    -0.000226

  9 H s       :     0.731845  s :     0.731845
      pz      :     0.008605  p :     0.041581
      px      :     0.011330
      py      :     0.021647
      dz2     :     0.002352  d :     0.007519
      dxz     :     0.001636
      dyz     :     0.000578
      dx2y2   :     0.002057
      dxy     :     0.000896

 10 H s       :     0.730970  s :     0.730970
      pz      :     0.008582  p :     0.041453
      px      :     0.011234
      py      :     0.021637
      dz2     :     0.002344  d :     0.007513
      dxz     :     0.001653
      dyz     :     0.000576
      dx2y2   :     0.002046
      dxy     :     0.000894

 11 H s       :     0.811118  s :     0.811118
      pz      :     0.016985  p :     0.034647
      px      :     0.011506
      py      :     0.006155
      dz2     :    -0.000141  d :     0.006620
      dxz     :     0.002433
      dyz     :     0.000907
      dx2y2   :     0.001678
      dxy     :     0.001742

 12 H s       :     0.870185  s :     0.870185
      pz      :     0.025217  p :     0.010830
      px      :    -0.029549
      py      :     0.015162
      dz2     :    -0.000402  d :     0.006142
      dxz     :     0.000921
      dyz     :     0.003804
      dx2y2   :     0.002363
      dxy     :    -0.000544

 13 H s       :     0.591987  s :     0.591987
      pz      :     0.018177  p :    -0.008660
      px      :    -0.010624
      py      :    -0.016214
      dz2     :    -0.000937  d :     0.005223
      dxz     :     0.000788
      dyz     :     0.003902
      dx2y2   :     0.000107
      dxy     :     0.001362

 14 F s       :     4.065594  s :     4.065594
      pz      :     1.940909  p :     5.435501
      px      :     1.502656
      py      :     1.991936
      dz2     :     0.001818  d :     0.034890
      dxz     :     0.013942
      dyz     :     0.000059
      dx2y2   :     0.005714
      dxy     :     0.013357
      f0      :     0.000436  f :     0.003631
      f+1     :     0.000442
      f-1     :     0.000084
      f+2     :     0.000649
      f-2     :     0.000019
      f+3     :     0.000760
      f-3     :     0.001240

 15 H s       :     0.589463  s :     0.589463
      pz      :     0.019546  p :    -0.003968
      px      :    -0.011248
      py      :    -0.012267
      dz2     :    -0.000786  d :     0.005447
      dxz     :     0.000747
      dyz     :     0.004049
      dx2y2   :    -0.000484
      dxy     :     0.001921

 16 H s       :     0.958049  s :     0.958049
      pz      :     0.024354  p :     0.022636
      px      :    -0.016722
      py      :     0.015004
      dz2     :    -0.000197  d :     0.010194
      dxz     :     0.000195
      dyz     :     0.003874
      dx2y2   :     0.005008
      dxy     :     0.001314


SPIN
  0 C s       :     0.043615  s :     0.043615
      pz      :     0.194180  p :     0.245425
      px      :     0.043485
      py      :     0.007760
      dz2     :     0.000551  d :     0.013646
      dxz     :     0.000701
      dyz     :     0.004275
      dx2y2   :     0.009714
      dxy     :    -0.001595
      f0      :     0.000200  f :    -0.001331
      f+1     :    -0.000013
      f-1     :    -0.000455
      f+2     :    -0.000723
      f-2     :    -0.000491
      f+3     :     0.000759
      f-3     :    -0.000608

  1 C s       :    -0.062019  s :    -0.062019
      pz      :    -0.116230  p :    -0.163272
      px      :    -0.033606
      py      :    -0.013435
      dz2     :    -0.000460  d :     0.017179
      dxz     :     0.009469
      dyz     :     0.003296
      dx2y2   :     0.001091
      dxy     :     0.003783
      f0      :     0.000293  f :    -0.000763
      f+1     :     0.000224
      f-1     :     0.000072
      f+2     :     0.000394
      f-2     :    -0.000962
      f+3     :     0.000078
      f-3     :    -0.000862

  2 C s       :     0.042841  s :     0.042841
      pz      :     0.276505  p :     0.316875
      px      :     0.004540
      py      :     0.035830
      dz2     :    -0.000907  d :    -0.003840
      dxz     :    -0.000322
      dyz     :    -0.001430
      dx2y2   :     0.000277
      dxy     :    -0.001458
      f0      :     0.000368  f :    -0.001860
      f+1     :    -0.000469
      f-1     :    -0.000404
      f+2     :    -0.000593
      f-2     :     0.000233
      f+3     :     0.000157
      f-3     :    -0.001152

  3 C s       :    -0.055615  s :    -0.055615
      pz      :    -0.117835  p :    -0.166973
      px      :    -0.032624
      py      :    -0.016513
      dz2     :    -0.000154  d :     0.021843
      dxz     :     0.013562
      dyz     :     0.004789
      dx2y2   :     0.001805
      dxy     :     0.001841
      f0      :     0.000336  f :    -0.000918
      f+1     :     0.000225
      f-1     :     0.000065
      f+2     :     0.000211
      f-2     :    -0.000884
      f+3     :     0.000154
      f-3     :    -0.001024

  4 C s       :     0.054586  s :     0.054586
      pz      :     0.209770  p :     0.237929
      px      :     0.022489
      py      :     0.005670
      dz2     :    -0.000107  d :     0.002622
      dxz     :     0.000594
      dyz     :     0.002426
      dx2y2   :     0.001069
      dxy     :    -0.001361
      f0      :     0.000102  f :    -0.001843
      f+1     :    -0.000124
      f-1     :    -0.000441
      f+2     :    -0.000866
      f-2     :    -0.000484
      f+3     :     0.000813
      f-3     :    -0.000844

  5 C s       :    -0.029256  s :    -0.029256
      pz      :     0.026186  p :     0.015340
      px      :     0.003977
      py      :    -0.014824
      dz2     :    -0.001340  d :     0.021008
      dxz     :     0.020995
      dyz     :    -0.008030
      dx2y2   :     0.010365
      dxy     :    -0.000982
      f0      :     0.000146  f :    -0.005243
      f+1     :     0.000041
      f-1     :    -0.000269
      f+2     :    -0.000246
      f-2     :    -0.002601
      f+3     :    -0.000626
      f-3     :    -0.001687

  6 C s       :     0.019785  s :     0.019785
      pz      :     0.236472  p :     0.237309
      px      :     0.014377
      py      :    -0.013541
      dz2     :    -0.001209  d :     0.018212
      dxz     :     0.011004
      dyz     :     0.004554
      dx2y2   :     0.003955
      dxy     :    -0.000092
      f0      :     0.000709  f :    -0.005819
      f+1     :    -0.000180
      f-1     :    -0.000312
      f+2     :    -0.000257
      f-2     :    -0.002123
      f+3     :    -0.000607
      f-3     :    -0.003049

  7 O s       :     0.015204  s :     0.015204
      pz      :     0.192268  p :     0.206501
      px      :     0.007881
      py      :     0.006353
      dz2     :     0.000127  d :     0.004881
      dxz     :     0.001271
      dyz     :     0.003356
      dx2y2   :     0.000236
      dxy     :    -0.000108
      f0      :    -0.000004  f :    -0.000020
      f+1     :     0.000001
      f-1     :    -0.000024
      f+2     :    -0.000031
      f-2     :     0.000060
      f+3     :    -0.000003
      f-3     :    -0.000021

  8 C s       :    -0.034388  s :    -0.034388
      pz      :    -0.015106  p :    -0.036035
      px      :    -0.008704
      py      :    -0.012224
      dz2     :     0.001699  d :     0.014889
      dxz     :    -0.002736
      dyz     :     0.018614
      dx2y2   :    -0.001337
      dxy     :    -0.001351
      f0      :     0.000256  f :    -0.000105
      f+1     :     0.000253
      f-1     :    -0.000355
      f+2     :    -0.000120
      f-2     :     0.000341
      f+3     :    -0.000226
      f-3     :    -0.000253

  9 H s       :     0.016539  s :     0.016539
      pz      :     0.001376  p :     0.005063
      px      :     0.000840
      py      :     0.002847
      dz2     :     0.000089  d :     0.000177
      dxz     :    -0.000019
      dyz     :    -0.000055
      dx2y2   :     0.000112
      dxy     :     0.000050

 10 H s       :     0.016512  s :     0.016512
      pz      :     0.001375  p :     0.005069
      px      :     0.000835
      py      :     0.002859
      dz2     :     0.000089  d :     0.000173
      dxz     :    -0.000019
      dyz     :    -0.000055
      dx2y2   :     0.000110
      dxy     :     0.000049

 11 H s       :    -0.006055  s :    -0.006055
      pz      :    -0.000471  p :    -0.000984
      px      :    -0.000307
      py      :    -0.000206
      dz2     :     0.000000  d :    -0.000028
      dxz     :    -0.000060
      dyz     :    -0.000085
      dx2y2   :     0.000054
      dxy     :     0.000062

 12 H s       :    -0.017525  s :    -0.017525
      pz      :     0.002592  p :     0.000286
      px      :     0.000366
      py      :    -0.002672
      dz2     :     0.000107  d :    -0.000524
      dxz     :    -0.000159
      dyz     :     0.000014
      dx2y2   :    -0.000189
      dxy     :    -0.000297

 13 H s       :     0.001901  s :     0.001901
      pz      :    -0.003868  p :    -0.004082
      px      :    -0.000495
      py      :     0.000281
      dz2     :    -0.000064  d :    -0.000812
      dxz     :    -0.000353
      dyz     :    -0.000498
      dx2y2   :     0.000009
      dxy     :     0.000094

 14 F s       :     0.002996  s :     0.002996
      pz      :     0.015987  p :     0.015609
      px      :    -0.002929
      py      :     0.002551
      dz2     :     0.000166  d :     0.001683
      dxz     :     0.001827
      dyz     :    -0.000017
      dx2y2   :     0.000013
      dxy     :    -0.000306
      f0      :     0.000034  f :     0.000116
      f+1     :     0.000029
      f-1     :     0.000001
      f+2     :     0.000053
      f-2     :    -0.000005
      f+3     :     0.000011
      f-3     :    -0.000007

 15 H s       :     0.002271  s :     0.002271
      pz      :    -0.003536  p :    -0.003950
      px      :    -0.000694
      py      :     0.000280
      dz2     :    -0.000055  d :    -0.000711
      dxz     :    -0.000306
      dyz     :    -0.000484
      dx2y2   :     0.000035
      dxy     :     0.000100

 16 H s       :    -0.012431  s :    -0.012431
      pz      :    -0.000404  p :    -0.000952
      px      :    -0.001465
      py      :     0.000917
      dz2     :     0.000141  d :    -0.000731
      dxz     :    -0.000143
      dyz     :    -0.000129
      dx2y2   :    -0.000332
      dxy     :    -0.000269



                     *******************************
                     * LOEWDIN POPULATION ANALYSIS *
                     *******************************

-------------------------------------------
LOEWDIN ATOMIC CHARGES AND SPIN POPULATIONS
-------------------------------------------
   0 C :    0.145679    0.099634
   1 C :    0.131161    0.014296
   2 C :   -0.574141    0.138375
   3 C :    0.130577    0.013815
   4 C :    0.130369    0.099274
   5 C :   -0.214714    0.118158
   6 C :   -0.682423    0.190969
   7 O :    0.327409    0.199277
   8 C :    0.494231    0.036497
   9 H :   -0.179285    0.009546
  10 H :   -0.179329    0.009542
  11 H :   -0.204930   -0.001011
  12 H :   -0.215348    0.023329
  13 H :   -0.189274   -0.008868
  14 F :    0.471682    0.042715
  15 H :   -0.188128   -0.008522
  16 H :   -0.203536    0.022973

----------------------------------------------------
LOEWDIN REDUCED ORBITAL CHARGES AND SPIN POPULATIONS
----------------------------------------------------
CHARGE
  0 C s       :     2.483375  s :     2.483375
      pz      :     0.627142  p :     2.292582
      px      :     0.842128
      py      :     0.823312
      dz2     :     0.069483  d :     0.738092
      dxz     :     0.130024
      dyz     :     0.072402
      dx2y2   :     0.215119
      dxy     :     0.251065
      f0      :     0.021885  f :     0.340272
      f+1     :     0.027995
      f-1     :     0.021436
      f+2     :     0.045947
      f-2     :     0.030186
      f+3     :     0.061381
      f-3     :     0.131443

  1 C s       :     2.499072  s :     2.499072
      pz      :     0.637045  p :     2.319927
      px      :     0.851640
      py      :     0.831241
      dz2     :     0.068234  d :     0.710520
      dxz     :     0.125809
      dyz     :     0.076322
      dx2y2   :     0.186699
      dxy     :     0.253455
      f0      :     0.020264  f :     0.339320
      f+1     :     0.028617
      f-1     :     0.023320
      f+2     :     0.053496
      f-2     :     0.029469
      f+3     :     0.061620
[...]
      f+3     :     0.001100
      f-3     :     0.000434

  6 C s       :     0.005664  s :     0.005664
      pz      :     0.137028  p :     0.137573
      px      :     0.000159
      py      :     0.000386
      dz2     :    -0.000845  d :     0.031424
      dxz     :     0.020213
      dyz     :     0.013645
      dx2y2   :    -0.000710
      dxy     :    -0.000878
      f0      :     0.004458  f :     0.021030
      f+1     :    -0.000168
      f-1     :    -0.000198
      f+2     :     0.011043
      f-2     :     0.005921
      f+3     :     0.000509
      f-3     :    -0.000536

  7 O s       :     0.003716  s :     0.003716
      pz      :     0.150321  p :     0.153864
      px      :     0.002723
      py      :     0.000820
      dz2     :     0.000235  d :     0.037016
      dxz     :     0.010905
      dyz     :     0.025068
      dx2y2   :     0.000199
      dxy     :     0.000609
      f0      :     0.003147  f :     0.009327
      f+1     :    -0.000000
      f-1     :    -0.000035
      f+2     :     0.000851
      f-2     :     0.005120
      f+3     :     0.000166
      f-3     :     0.000079

  8 C s       :    -0.001181  s :    -0.001181
      pz      :    -0.002112  p :    -0.008630
      px      :    -0.002023
      py      :    -0.004494
      dz2     :     0.000188  d :     0.031890
      dxz     :     0.006696
      dyz     :     0.024017
      dx2y2   :    -0.000236
      dxy     :     0.001223
      f0      :     0.003410  f :     0.016365
      f+1     :    -0.000111
      f-1     :     0.000188
      f+2     :     0.000208
      f-2     :     0.012261
      f+3     :     0.000480
      f-3     :    -0.000069

  9 H s       :     0.005989  s :     0.005989
      pz      :     0.000332  p :     0.002625
      px      :     0.000219
      py      :     0.002074
      dz2     :    -0.000055  d :     0.001219
      dxz     :    -0.000190
      dyz     :    -0.000065
      dx2y2   :     0.000800
      dxy     :     0.000730

 10 H s       :     0.005909  s :     0.005909
      pz      :     0.000327  p :     0.002597
      px      :     0.000206
      py      :     0.002064
      dz2     :    -0.000055  d :     0.001245
      dxz     :    -0.000190
      dyz     :    -0.000058
      dx2y2   :     0.000821
      dxy     :     0.000726

 11 H s       :     0.000074  s :     0.000074
      pz      :     0.000204  p :    -0.000597
      px      :    -0.000216
      py      :    -0.000585
      dz2     :    -0.000028  d :    -0.000369
      dxz     :    -0.000311
      dyz     :     0.000619
      dx2y2   :    -0.000383
      dxy     :    -0.000266

 12 H s       :    -0.003845  s :    -0.003845
      pz      :     0.020000  p :     0.021012
      px      :     0.000179
      py      :     0.000833
      dz2     :    -0.000038  d :     0.008476
      dxz     :     0.003281
      dyz     :     0.004738
      dx2y2   :     0.000087
      dxy     :     0.000408

 13 H s       :     0.001965  s :     0.001965
      pz      :    -0.007259  p :    -0.008352
      px      :    -0.000388
      py      :    -0.000706
      dz2     :     0.000014  d :    -0.002834
      dxz     :     0.001445
      dyz     :    -0.003585
      dx2y2   :    -0.000431
      dxy     :    -0.000277

 14 F s       :     0.000981  s :     0.000981
      pz      :     0.021385  p :     0.018202
      px      :    -0.003876
      py      :     0.000693
      dz2     :     0.000142  d :     0.017615
      dxz     :     0.016574
      dyz     :    -0.000202
      dx2y2   :     0.000790
      dxy     :     0.000311
      f0      :     0.001226  f :     0.003456
      f+1     :     0.000015
      f-1     :     0.000003
      f+2     :     0.002044
      f-2     :    -0.000040
      f+3     :     0.000102
      f-3     :     0.000105

 15 H s       :     0.001743  s :     0.001743
      pz      :    -0.006210  p :    -0.007233
      px      :    -0.000333
      py      :    -0.000690
      dz2     :     0.000012  d :    -0.002578
      dxz     :     0.001958
      dyz     :    -0.003882
      dx2y2   :    -0.000420
      dxy     :    -0.000246

 16 H s       :    -0.003114  s :    -0.003114
      pz      :     0.015642  p :     0.016806
      px      :     0.000458
      py      :     0.000705
      dz2     :    -0.000023  d :     0.008224
      dxz     :     0.004266
      dyz     :     0.003481
      dx2y2   :     0.000124
      dxy     :     0.000376



                      *****************************
                      * MAYER POPULATION ANALYSIS *
                      *****************************

  NA   - Mulliken gross atomic population
  ZA   - Total nuclear charge
  QA   - Mulliken gross atomic charge
  VA   - Mayer's total valence
  BVA  - Mayer's bonded valence
  FA   - Mayer's free valence

  ATOM       NA         ZA         QA         VA         BVA        FA
  0 C      6.4423     6.0000    -0.4423     2.1255     2.0835     0.0420
  1 C      6.9003     6.0000    -0.9003     3.0952     3.0774     0.0178
  2 C      5.4039     6.0000     0.5961     2.4925     2.4191     0.0733
  3 C      6.7409     6.0000    -0.7409     3.2199     3.2010     0.0190
  4 C      6.9299     6.0000    -0.9299     2.3139     2.2609     0.0530
  5 C      4.2716     6.0000     1.7284     0.4311     0.4176     0.0135
  6 C      5.5798     6.0000     0.4202     2.8004     2.7143     0.0861
  7 O      9.1107     8.0000    -1.1107     1.0698     1.0269     0.0429
  8 C      6.6148     6.0000    -0.6148     3.9233     3.9198     0.0035
  9 H      0.7817     1.0000     0.2183     0.9594     0.9591     0.0003
 10 H      0.7815     1.0000     0.2185     0.9595     0.9592     0.0003
 11 H      0.8452     1.0000     0.1548     1.0232     1.0231     0.0001
 12 H      0.8845     1.0000     0.1155     1.1489     1.1485     0.0004
 13 H      0.5712     1.0000     0.4288     0.7213     0.7213     0.0000
 14 F      9.5544     9.0000    -0.5544     0.8393     0.8384     0.0009
 15 H      0.5807     1.0000     0.4193     0.7442     0.7442    -0.0000
 16 H      1.0067     1.0000    -0.0067     1.1669     1.1666     0.0002

  Mayer bond orders larger than 0.100000
B(  0-C ,  1-C ) :   0.9036 B(  0-C ,  2-C ) :  -0.2675 B(  0-C ,  3-C ) :  -0.1859 
B(  0-C ,  4-C ) :  -0.4001 B(  0-C ,  5-C ) :   0.1247 B(  0-C ,  6-C ) :   0.2493 
B(  0-C , 12-H ) :   0.1220 B(  0-C , 16-H ) :   1.5123 B(  1-C ,  2-C ) :   1.2695 
B(  1-C ,  3-C ) :   0.2971 B(  1-C ,  4-C ) :  -0.1077 B(  1-C ,  5-C ) :   0.1831 
B(  1-C , 12-H ) :  -0.1035 B(  1-C , 14-F ) :   0.1580 B(  1-C , 15-H ) :   0.5534 
B(  1-C , 16-H ) :  -0.1038 B(  2-C ,  3-C ) :   1.3079 B(  2-C ,  4-C ) :  -0.3172 
B(  2-C , 14-F ) :   0.2772 B(  3-C ,  4-C ) :   1.3140 B(  3-C , 13-H ) :   0.5417 
B(  3-C , 14-F ) :   0.1462 B(  3-C , 16-H ) :  -0.1450 B(  4-C ,  5-C ) :  -0.1398 
B(  4-C ,  6-C ) :   0.4424 B(  4-C , 12-H ) :   1.1346 B(  4-C , 16-H ) :   0.1771 
B(  5-C ,  6-C ) :   0.3355 B(  5-C ,  7-O ) :   0.1436 B(  5-C , 12-H ) :  -0.1186 
B(  5-C , 16-H ) :  -0.2875 B(  6-C ,  7-O ) :   0.6742 B(  6-C ,  8-C ) :   0.8661 
B(  6-C , 13-H ) :   0.1211 B(  7-O , 12-H ) :   0.1276 B(  8-C ,  9-H ) :   0.9848 
B(  8-C , 10-H ) :   0.9852 B(  8-C , 11-H ) :   0.9699 B( 12-H , 16-H ) :   0.1562 
B( 13-H , 14-F ) :   0.1033 

-------
TIMINGS
-------

Total SCF time: 0 days 0 hours 2 min 17 sec 

Total time                  ....     137.541 sec
Sum of individual times     ....     134.540 sec  ( 97.8%)

SCF preparation             ....       1.441 sec  (  1.0%)
Fock matrix formation       ....     117.011 sec  ( 85.1%)
  Startup                   ....       2.556 sec  (  2.2% of F)
  Split-RI-J                ....       6.594 sec  (  5.6% of F)
  Chain of spheres X        ....      69.202 sec  ( 59.1% of F)
  XC integration            ....      32.786 sec  ( 28.0% of F)
    XC Preparation          ....       0.000 sec  (  0.0% of XC)
    Basis function eval.    ....       1.459 sec  (  4.5% of XC)
    Density eval.           ....      12.314 sec  ( 37.6% of XC)
    XC-Functional eval.     ....       0.284 sec  (  0.9% of XC)
    XC-Potential eval.      ....      15.865 sec  ( 48.4% of XC)
  CPCM terms                ....       2.452 sec  (  2.1% of F)
Diagonalization             ....       0.000 sec  (  0.0%)
Density matrix formation    ....       3.975 sec  (  2.9%)
Total Energy calculation    ....       2.289 sec  (  1.7%)
Population analysis         ....       1.332 sec  (  1.0%)
Orbital Transformation      ....       1.019 sec  (  0.7%)
Orbital Orthonormalization  ....       0.000 sec  (  0.0%)
DIIS solution               ....       1.329 sec  (  1.0%)
SOSCF solution              ....       6.144 sec  (  4.5%)
Finished LeanSCF after 138.3 sec

Maximum memory used throughout the entire LEANSCF-calculation: 94.5 MB


-------------------------------------------------------------------------------
                          DFT DISPERSION CORRECTION                            
                                                                               
                              DFTD3 V3.1  Rev 1                                
                          USING Becke-Johnson damping                          
-------------------------------------------------------------------------------
The R2SCANh functional is recognized
Active option DFTDOPT                   ...         4   

molecular C6(AA) [au] = 3333.843143 


            DFT-D V3
 parameters
 s6 scaling factor         :     1.0000 
 a1 scaling factor         :     0.4709 
 s8 scaling factor         :     1.1236 
 a2 scaling factor         :     5.9157 
 ad hoc parameters k1-k3   :    16.0000     1.3333    -4.0000 

 Edisp/kcal,au: -3.403579132612  -0.005423948020 
 E6   /kcal   :  -2.446325016 
 E8   /kcal   :  -0.957254117 
 % E8         :  28.124926132 

-------------------------   ----------------
Dispersion correction           -0.005423948
-------------------------   ----------------


-------------------------   --------------------
FINAL SINGLE POINT ENERGY      -484.132588795454
-------------------------   --------------------

                                *** OPTIMIZATION RUN DONE ***



           ************************************************************
           *        Program running with 8 parallel MPI-processes     *
           *              working on a common directory               *
           ************************************************************

------------------------------------------------------------------------------
                              ORCA PROPERTY CALCULATIONS
------------------------------------------------------------------------------

GBWName                                 ... cs_rporg_143_red_opt_07.gbw
Number of atoms                         ...     17
Number of basis functions               ...    681
Max core memory                         ...   3500 MB

Electric properties:
Dipole moment                           ... YES
Quadrupole moment                       ...  NO
Static polarizability (Dipole/Dipole)   ...  NO
Static polarizability (Dipole/Quad.)    ...  NO
Static polarizability (Quad./Quad.)     ...  NO
Static polarizability (Velocity)        ...  NO

Atomic electric properties:
Dipole moment                           ...  NO
Quadrupole moment                       ...  NO
Static polarizability                   ...  NO

Choice of electric origin               ... Center of mass
Position of electric origin             ...    -0.001310    -0.008121     0.001170

General magnetic properties:
Magnetizability                         ...  NO

EPR properties:
g-Tensor (aka g-matrix)                 ...  NO
Zero-Field splitting spin-orbit         ...  NO
Zero-field splitting spin-spin          ...  NO
Hyperfine couplings                     ...  NO (   0 nuclei)
Quadrupole couplings                    ...  NO (   0 nuclei)
Contact density                         ...  NO (   0 nuclei)

NMR properties:
Chemical shifts                         ...  NO (   0 nuclei)
Spin-rotation constants                 ...  NO (   0 nuclei)
Spin-spin couplings                     ...  NO (   0 nuclei,    0 pairs)

Choice of magnetic origin               ... GIAO
Position of magnetic origin             ...     0.000000     0.000000     0.000000

Properties with geometric perturbations:
SCF Hessian                             ...  NO
IR spectrum                             ...  NO
VCD spectrum                            ...  NO
X-ray spectroscopy properties:
SCF XES/XAS/RIXS spectra                ...  NO


-------------
DIPOLE MOMENT
-------------

Method             : SCF
Type of density    : Electron Density
Multiplicity       :   2
Irrep              :   0
Energy             :  -484.1271648474332778 Eh
Relativity type    : 
Basis              : AO
                                X                 Y                 Z
Electronic contribution:     11.364839147      -2.779194461       0.006025383
Nuclear contribution   :     -9.509705297       4.310792406      -0.010848024
                        -----------------------------------------
Total Dipole Moment    :      1.855133849       1.531597945      -0.004822641
                        -----------------------------------------
Magnitude (a.u.)       :      2.405688492
Magnitude (Debye)      :      6.114774198



--------------------
Rotational spectrum 
--------------------
 
Rotational constants in cm-1:             0.121084             0.025672             0.021264 
Rotational constants in MHz :          3630.013413           769.621131           637.474527 

Dipole components along the rotational axes: 
x,y,z [a.u.] :     1.858531    -1.527478    -0.003298 
x,y,z [Debye]:     4.724011    -3.882539    -0.008383 

 

Dipole moment calculation done in   0.3 sec 

Maximum memory used throughout the entire PROP-calculation: 50.5 MB

--------------------------------
SUGGESTED CITATIONS FOR THIS RUN
--------------------------------

Below you find a list of papers that are relevant to this ORCA run
We neither can nor want to force you to cite these papers, but we appreciate if you do
You receive ORCA, which is the product of decades of hard work by many enthusiastic individuals, for free
The only thing we kindly ask in return is that you cite our papers,
We deeply appreciate it, if you show your appreciation for ORCA by not just citing the generic ORCA reference.

Please note that relegating all ORCA citations to the supporting information does *not* help us.
SI sections are not indexed - citations you put there will not count into any citation statistics
But we need these citations in order to attract the funding resources that allow us to do what we are doing

Therefore, if you are a happy ORCA user, please consider citing a few of the papers listed below in the main body of your paper

In addition to the list printed below, the program has created the file cs_rporg_143_red_opt_07.bibtex that contains the list in bibtex format
You can import this file easily into all common literature databanks and citation aid programs


List of essential papers. We consider these as the minimum necessary citations

  1. Neese,F.
     Software update: the ORCA program system, version 5.0
     WIRES Comput. Molec. Sci., 2022 12(1)e1606
     doi.org/10.1002/wcms.1606

List of papers to cite with high priority. The work reported in these papers was absolutely
necessary for this run to complete.
Our perspective: the developers of density functionals and basis sets usually get cited in chemistry papers
Good! But without the algorithms to do something with them, the functionals or basis sets would not do anything.
Hence, in our opinion, the algorithm design and method developments papers are equally worthy of getting cited

  1. Neese,F.
     An improvement of the resolution of the identity approximation for the formation of the Coulomb matrix
     J. Comp. Chem., 2003 24(14)1740-1747
     doi.org/10.1002/jcc.10318
  2. Neese,F.; Wennmohs,F.; Hansen,A.; Becker,U.
     Efficient, approximate and parallel Hartree-Fock and hybrid DFT calculations. A 'chain-of-spheres' algorithm for the Hartree-Fock exchange
     Chem. Phys., 2009 356(1-3)98-109
     doi.org/10.1016/j.chemphys.2008.10.036
  3. Garcia-Rates,M.; Neese,F.
     Effect of the Solute Cavity on the Solvation Energy and its Derivatives within the Framework of the Gaussian Charge Scheme
     J. Comput. Chem., 2020 41 922-939
     doi.org/10.1002/jcc.26139
  4. Helmich-Paris,B.; de Souza,B.; Neese,F.; Izsák,R.
     An improved chain of spheres for exchange algorithm
     J. Chem. Phys., 2021 155 104109
     doi.org/doi: 10.1063/5.0058766.
  5. Neese,F.
     The SHARK Integral Generation and Digestion System
     J. Comp. Chem., 2022  1-16
     doi.org/10.1002/jcc.26942
  6. Lehtola,S.; Steigemann,C.; Oliveira,M.; Marques,M.
     Recent developments in Libxc - A comprehensive library of functionals for density functional theory
     Software X, 2018 7 
     doi.org/10.1016/j.softx.2017.11.002
  7. Grimme,S.; Antony,J.; Ehrlich,S.; Krieg,H.
     A consistent and accurate ab initio parametrization of density functional dispersion correction (DFT-D) for the 94 elements H-Pu
     J. Chem. Phys., 2010 132 154104-XXXX
     doi.org/10.1063/1.3382344
  8. Grimme,S.; Ehrlich,S.; Goerigk,L.
     Effect of the damping function in dispersion corrected density functional theory
     J. Comput. Chem., 2011 32(7)1456-1465
     doi.org/10.1002/jcc.21759
  9. Bursch,M.; Neugebauer,H.; Ehlert,S.; Grimme,S.
     Dispersion corrected r2SCAN based global hybrid functionals: r2SCANh, r2SCAN0, and r2SCAN50
     J. Phys. Chem., 2022 156(13)134105
     doi.org/10.1063/5.0086040

List of suggested additional citations. These are papers that are important in the 'surrounding' of 
of this run, or papers that preceded the highly important papers. If you like your results we are grateful for a citation.

  1. Izsak,R.; Neese,F.
     An overlap fitted chain of spheres exchange method
     J. Chem. Phys., 2011 135 144105
     doi.org/10.1063/1.3646921
  2. Izsak,R.; Hansen,A.; Neese,F.
     The resolution of identity and chain of spheres approximations for the LPNO-CCSD singles Fock term
     Molec. Phys., 2012 110 2413-2417
     doi.org/10.1080/00268976.2012.687466
  3. Neese,F.
     The ORCA program system
     WIRES Comput. Molec. Sci., 2012 2(1)73-78
     doi.org/10.1002/wcms.81
  4. Izsak,R.; Neese,F.; Klopper,W.
     Robust fitting techniques in the chain of spheres approximation to the Fock exchange: The role of the complementary space
     J. Chem. Phys., 2013 139 
     doi.org/10.1063/1.4819264
  5. Neese,F.
     Software update: the ORCA program system, version 4.0
     WIRES Comput. Molec. Sci., 2018 8(1)1-6
     doi.org/10.1002/wcms.1327
  6. Neese,F.; Wennmohs,F.; Becker,U.; Riplinger,C.
     The ORCA quantum chemistry program package
     J. Chem. Phys., 2020 152 Art. No. L224108
     doi.org/10.1063/5.0004608
  7. Wittmann,L.; Neugebauer,H.; Grimme,S.; Bursch,M.
     Dispersion-corrected r2SCAN based double-hybrid functionals
     J. Chem. Phys., 2023 159(22)224103
     doi.org/10.1063/5.0174988

List of optional additional citations

  1. Neese,F.
     Approximate second-order SCF convergence for spin unrestricted wavefunctions
     Chem. Phys. Lett., 2000 325(1-3)93-98
     doi.org/10.1016/s0009-2614(00)00662-x

Timings for individual modules:

Sum of individual times          ...     2333.049 sec (=  38.884 min)
Startup calculation              ...       70.463 sec (=   1.174 min)   3.0 %
SCF iterations                   ...     1528.179 sec (=  25.470 min)  65.5 %
Property calculations            ...        2.360 sec (=   0.039 min)   0.1 %
SCF Gradient evaluation          ...      731.430 sec (=  12.190 min)  31.4 %
Geometry relaxation              ...        0.617 sec (=   0.010 min)   0.0 %
                             ****ORCA TERMINATED NORMALLY****
TOTAL RUN TIME: 0 days 0 hours 39 minutes 20 seconds 779 msec
