 vasp.6.3.2 27Jun22 (build Oct 25 2024 11:36:28) complex                        
  
 executed on             LinuxIFC date 2025.01.05  09:40:57
 running on   80 total cores
 distrk:  each k-point on   80 cores,    1 groups
 distr:  one band on NCORE=  10 cores,    8 groups


--------------------------------------------------------------------------------------------------------


 INCAR:
   SYSTEM = 100_red
   ISTART = 1
   ICHARG = 2
   INIWAV = 1
   METAGGA = R2SCAN
   LASPH = .TRUE.
   NELM = 100
   ALGO = fast   	
   ISPIN = 2
   EDIFF = 1E-05
   ISMEAR = 0
   SIGMA = 0.05
   PREC = accurate
   ENCUT = 500
   LREAL = auto  	
   LWAVE = .TRUE.
   LCHARG = .FALSE.
   LAECHG = .FALSE.
   LVHAR = .FALSE.
   LVTOT = .FALSE.
   EDIFFG = -0.02
   IBRION = 2
   NSW = 500
   ISIF = 2
   POTIM = 0.5
   IVDW = 12
   VDW_A1 = 0.49484001
   VDW_S8 = 0.78981345
   VDW_A2 = 5.73083694
   LPLANE = .TRUE.
   NCORE = 10
   LSCALU = .FALSE.
   NSIM = 4
   LSOL = .TRUE.
   ISOL = 2
   EPSILON_INF = 1.8069
   N_MOL = 0.0115
   P_MOL = 0.82
   R_SOLV = 2.1900
   EB_K = 35.6880

 POTCAR:    PAW_PBE C 08Apr2002                   
 POTCAR:    PAW_PBE O 08Apr2002                   
 POTCAR:    PAW_PBE H 15Jun2001                   
 -----------------------------------------------------------------------------
|                                                                             |
|           W    W    AA    RRRRR   N    N  II  N    N   GGGG   !!!           |
|           W    W   A  A   R    R  NN   N  II  NN   N  G    G  !!!           |
|           W    W  A    A  R    R  N N  N  II  N N  N  G       !!!           |
|           W WW W  AAAAAA  RRRRR   N  N N  II  N  N N  G  GGG   !            |
|           WW  WW  A    A  R   R   N   NN  II  N   NN  G    G                |
|           W    W  A    A  R    R  N    N  II  N    N   GGGG   !!!           |
|                                                                             |
|     You use a magnetic or noncollinear calculation, but did not specify     |
|     the initial magnetic moment with the MAGMOM tag. Note that a            |
|     default of 1 will be used for all atoms. This ferromagnetic setup       |
|     may break the symmetry of the crystal, in particular it may rule        |
|     out finding an antiferromagnetic solution. Thence, we recommend         |
|     setting the initial magnetic moment manually or verifying carefully     |
|     that this magnetic setup is desired.                                    |
|                                                                             |
 -----------------------------------------------------------------------------

 POTCAR:    PAW_PBE C 08Apr2002                   
   SHA256 =  253f7b50bb8d59471dbedb8285d89021f4a42ed1a2c5d38a03a736e69125dd95 C/POTCAR              
   COPYR  = (c) Copyright 08Apr2002 Georg Kresse                                                    
   COPYR  = This file is part of the software VASP. Any use, copying, and all other rights are regul
   COPYR  = If you do not have a valid VASP license, you may not use, copy or distribute this file. 
   VRHFIN =C: s2p2                                                                                  
   LEXCH  = PE                                                                                      
   EATOM  =   147.1560 eV,   10.8157 Ry                                                             
                                                                                                    
   TITEL  = PAW_PBE C 08Apr2002                                                                     
   LULTRA =        F    use ultrasoft PP ?                                                          
   IUNSCR =        1    unscreen: 0-lin 1-nonlin 2-no                                               
   RPACOR =    1.200    partial core radius                                                         
   POMASS =   12.011; ZVAL   =    4.000    mass and valenz                                          
   RCORE  =    1.500    outmost cutoff radius                                                       
   RWIGS  =    1.630; RWIGS  =    0.863    wigner-seitz radius (au A)                               
   ENMAX  =  400.000; ENMIN  =  300.000 eV                                                          
   ICORE  =        2    local potential                                                             
   LCOR   =        T    correct aug charges                                                         
   LPAW   =        T    paw PP                                                                      
   EAUG   =  644.873                                                                                
   DEXC   =    0.000                                                                                
   RMAX   =    1.529    core radius for proj-oper                                                   
   RAUG   =    1.300    factor for augmentation sphere                                              
   RDEP   =    1.501    radius for radial grids                                                     
   RDEPT  =    1.300    core radius for aug-charge                                                  
                                                                                                    
   Atomic configuration                                                                             
    4 entries                                                                                       
     n  l   j            E        occ.                                                              
     1  0  0.50      -273.3789   2.0000                                                             
     2  0  0.50       -13.7508   2.0000                                                             
     2  1  0.50        -5.2854   2.0000                                                             
     3  2  1.50        -5.4423   0.0000                                                             
   Description                                                                                      
     l       E           TYP  RCUT    TYP  RCUT                                                     
     0    -13.7508458     23  1.200                                                                 
     0     -8.2022199     23  1.200                                                                 
     1     -5.2854383     23  1.500                                                                 
     1     34.0145650     23  1.500                                                                 
     2     -5.4423304      7  1.500                                                                 
  local pseudopotential read in
  partial core-charges read in
  partial kinetic energy density read in
  atomic valenz-charges read in
  non local Contribution for L=           0  read in
    real space projection operators read in
  non local Contribution for L=           0  read in
    real space projection operators read in
  non local Contribution for L=           1  read in
    real space projection operators read in
  non local Contribution for L=           1  read in
    real space projection operators read in
    PAW grid and wavefunctions read in
 
   number of l-projection  operators is LMAX  =           4
   number of lm-projection operators is LMMAX =           8
 
 POTCAR:    PAW_PBE O 08Apr2002                   
   SHA256 =  818f92134a0a090dccd8ba1447fa70422a3b330e708bb4f08108d8ae51209ddf O/POTCAR              
   COPYR  = (c) Copyright 08Apr2002 Georg Kresse                                                    
   COPYR  = This file is part of the software VASP. Any use, copying, and all other rights are regul
   COPYR  = If you do not have a valid VASP license, you may not use, copy or distribute this file. 
   VRHFIN =O: s2p4                                                                                  
   LEXCH  = PE                                                                                      
   EATOM  =   432.3788 eV,   31.7789 Ry                                                             
                                                                                                    
   TITEL  = PAW_PBE O 08Apr2002                                                                     
   LULTRA =        F    use ultrasoft PP ?                                                          
   IUNSCR =        1    unscreen: 0-lin 1-nonlin 2-no                                               
   RPACOR =    1.200    partial core radius                                                         
   POMASS =   16.000; ZVAL   =    6.000    mass and valenz                                          
   RCORE  =    1.520    outmost cutoff radius                                                       
   RWIGS  =    1.550; RWIGS  =    0.820    wigner-seitz radius (au A)                               
   ENMAX  =  400.000; ENMIN  =  300.000 eV                                                          
   ICORE  =        2    local potential                                                             
   LCOR   =        T    correct aug charges                                                         
   LPAW   =        T    paw PP                                                                      
   EAUG   =  605.392                                                                                
   DEXC   =    0.000                                                                                
   RMAX   =    1.553    core radius for proj-oper                                                   
   RAUG   =    1.300    factor for augmentation sphere                                              
   RDEP   =    1.550    radius for radial grids                                                     
   RDEPT  =    1.329    core radius for aug-charge                                                  
                                                                                                    
   Atomic configuration                                                                             
    4 entries                                                                                       
     n  l   j            E        occ.                                                              
     1  0  0.50      -514.6923   2.0000                                                             
     2  0  0.50       -23.9615   2.0000                                                             
     2  1  0.50        -9.0305   4.0000                                                             
     3  2  1.50        -9.5241   0.0000                                                             
   Description                                                                                      
     l       E           TYP  RCUT    TYP  RCUT                                                     
     0    -23.9615318     23  1.200                                                                 
     0     -9.5240782     23  1.200                                                                 
     1     -9.0304911     23  1.520                                                                 
     1      8.1634956     23  1.520                                                                 
     2     -9.5240782      7  1.500                                                                 
  local pseudopotential read in
  partial core-charges read in
  partial kinetic energy density read in
  kinetic energy density of atom read in
  atomic valenz-charges read in
  non local Contribution for L=           0  read in
    real space projection operators read in
  non local Contribution for L=           0  read in
    real space projection operators read in
  non local Contribution for L=           1  read in
    real space projection operators read in
  non local Contribution for L=           1  read in
    real space projection operators read in
    PAW grid and wavefunctions read in
 
   number of l-projection  operators is LMAX  =           4
   number of lm-projection operators is LMMAX =           8
 
 POTCAR:    PAW_PBE H 15Jun2001                   
   SHA256 =  030f79b5d3ab3cf0e668861823c8fb652ff669f3e15e46930bd03bfd63a607b6 H/POTCAR              
   COPYR  = (c) Copyright 15Jun2001 Georg Kresse                                                    
   COPYR  = This file is part of the software VASP. Any use, copying, and all other rights are regul
   COPYR  = If you do not have a valid VASP license, you may not use, copy or distribute this file. 
   VRHFIN =H: ultrasoft test                                                                        
   LEXCH  = PE                                                                                      
   EATOM  =    12.4884 eV,    0.9179 Ry                                                             
                                                                                                    
   TITEL  = PAW_PBE H 15Jun2001                                                                     
   LULTRA =        F    use ultrasoft PP ?                                                          
   IUNSCR =        0    unscreen: 0-lin 1-nonlin 2-no                                               
   RPACOR =    0.000    partial core radius                                                         
   POMASS =    1.000; ZVAL   =    1.000    mass and valenz                                          
   RCORE  =    1.100    outmost cutoff radius                                                       
   RWIGS  =    0.700; RWIGS  =    0.370    wigner-seitz radius (au A)                               
   ENMAX  =  250.000; ENMIN  =  200.000 eV                                                          
   RCLOC  =    0.701    cutoff for local pot                                                        
   LCOR   =        T    correct aug charges                                                         
   LPAW   =        T    paw PP                                                                      
   EAUG   =  400.000                                                                                
   RMAX   =    1.123    core radius for proj-oper                                                   
   RAUG   =    1.200    factor for augmentation sphere                                              
   RDEP   =    1.112    radius for radial grids                                                     
   RDEPT  =    0.926    core radius for aug-charge                                                  
                                                                                                    
   Atomic configuration                                                                             
    2 entries                                                                                       
     n  l   j            E        occ.                                                              
     1  0  0.50        -6.4927   1.0000                                                             
     2  1  0.50        -3.4015   0.0000                                                             
   Description                                                                                      
     l       E           TYP  RCUT    TYP  RCUT                                                     
     0     -6.4927494     23  1.100                                                                 
     0      6.8029130     23  1.100                                                                 
     1     -4.0817478     23  1.100                                                                 
  local pseudopotential read in
  atomic valenz-charges read in
  non local Contribution for L=           0  read in
    real space projection operators read in
  non local Contribution for L=           0  read in
    real space projection operators read in
  non local Contribution for L=           1  read in
    real space projection operators read in
    PAW grid and wavefunctions read in
 
   number of l-projection  operators is LMAX  =           3
   number of lm-projection operators is LMMAX =           5
 
 Optimization of the real space projectors (new method)

 maximal supplied QI-value         = 25.13
 optimisation between [QCUT,QGAM] = [ 11.31, 22.87] = [ 35.82,146.48] Ry 
 Optimized for a Real-space Cutoff    1.03 Angstroem

   l    n(q)    QCUT    max X(q) W(low)/X(q) W(high)/X(q)  e(spline) 
   0      7    11.310   115.676    0.20E-03    0.90E-03    0.20E-06
   0      7    11.310    87.132    0.20E-03    0.89E-03    0.19E-06
   1      6    11.310     4.429    0.16E-03    0.28E-03    0.12E-06
   1      6    11.310     2.733    0.12E-03    0.21E-03    0.99E-07
 Optimization of the real space projectors (new method)

 maximal supplied QI-value         = 24.76
 optimisation between [QCUT,QGAM] = [ 11.39, 22.77] = [ 36.31,145.25] Ry 
 Optimized for a Real-space Cutoff    1.10 Angstroem

   l    n(q)    QCUT    max X(q) W(low)/X(q) W(high)/X(q)  e(spline) 
   0      7    11.387    20.381    0.22E-03    0.48E-03    0.18E-06
   0      7    11.387    15.268    0.22E-03    0.52E-03    0.19E-06
   1      7    11.387     5.964    0.22E-03    0.73E-03    0.24E-06
   1      7    11.387     5.382    0.19E-03    0.60E-03    0.21E-06
 Optimization of the real space projectors (new method)

 maximal supplied QI-value         = 34.20
 optimisation between [QCUT,QGAM] = [ 11.29, 22.57] = [ 35.68,142.71] Ry 
 Optimized for a Real-space Cutoff    1.20 Angstroem

   l    n(q)    QCUT    max X(q) W(low)/X(q) W(high)/X(q)  e(spline) 
   0      8    11.287    19.460    0.22E-03    0.50E-03    0.19E-06
   0      8    11.287    12.209    0.21E-03    0.48E-03    0.18E-06
   1      8    11.287     4.655    0.21E-03    0.11E-04    0.26E-06
  PAW_PBE C 08Apr2002                   :
 energy of atom  1       EATOM= -147.1560
 kinetic energy error for atom=    0.0076 (will be added to EATOM!!)
  PAW_PBE O 08Apr2002                   :
 energy of atom  2       EATOM= -432.3788
 kinetic energy error for atom=    0.0224 (will be added to EATOM!!)
  PAW_PBE H 15Jun2001                   :
 energy of atom  3       EATOM=  -12.4884
 kinetic energy error for atom=    0.0020 (will be added to EATOM!!)
 
 
 POSCAR: C O H
  positions in direct lattice
  velocities in cartesian coordinates

 METAGGA = R2SCA    LMAXTAU =  6    LMIXTAU =  F

 exchange correlation table for  LEXCH =        8
   RHO(1)=    0.500       N(1)  =     2000
   RHO(2)=  100.500       N(2)  =     4000
 
 POSCAR: C O H
  positions in direct lattice
  velocities in cartesian coordinates
 
 POSCAR: C O H
  positions in direct lattice
  velocities in cartesian coordinates
 


--------------------------------------------------------------------------------------------------------


 ion  position               nearest neighbor table
   1  0.517  0.461  0.500-  15 1.08   6 1.38   2 1.39
   2  0.548  0.478  0.500-  14 1.08   1 1.39   3 1.40
   3  0.549  0.513  0.500-  13 1.08   4 1.39   2 1.40
   4  0.520  0.532  0.500-  12 1.08   3 1.39   5 1.40
   5  0.490  0.516  0.500-   4 1.40   6 1.41   8 1.44
   6  0.489  0.481  0.500-   9 1.37   1 1.38   5 1.41
   7  0.437  0.498  0.500-  11 1.08   8 1.35   9 1.38
   8  0.455  0.526  0.500-  10 1.08   7 1.35   5 1.44
   9  0.457  0.469  0.500-   6 1.37   7 1.38
  10  0.445  0.551  0.500-   8 1.08
  11  0.410  0.493  0.500-   7 1.08
  12  0.522  0.559  0.500-   4 1.08
  13  0.574  0.525  0.500-   3 1.08
  14  0.571  0.464  0.500-   2 1.08
  15  0.516  0.434  0.500-   1 1.08
 
  LATTYP: Found a simple cubic cell.
 ALAT       =    40.0000000000
  
  Lattice vectors:
  
 A1 = (  40.0000000000,   0.0000000000,   0.0000000000)
 A2 = (   0.0000000000,  40.0000000000,   0.0000000000)
 A3 = (   0.0000000000,   0.0000000000,  40.0000000000)


Analysis of symmetry for initial positions (statically):
=====================================================================
 Subroutine PRICEL returns:
 Original cell was already a primitive cell.
 

 Routine SETGRP: Setting up the symmetry group for a 
 simple cubic supercell.


 Subroutine GETGRP returns: Found  2 space group operations
 (whereof  2 operations were pure point group operations)
 out of a pool of 48 trial point group operations.


The static configuration has the point symmetry C_1h.


Analysis of symmetry for dynamics (positions and initial velocities):
=====================================================================
 Subroutine PRICEL returns:
 Original cell was already a primitive cell.
 

 Routine SETGRP: Setting up the symmetry group for a 
 simple cubic supercell.


 Subroutine GETGRP returns: Found  2 space group operations
 (whereof  2 operations were pure point group operations)
 out of a pool of 48 trial point group operations.


The dynamic configuration has the point symmetry C_1h.


Analysis of constrained symmetry for selective dynamics:
=====================================================================
 Subroutine PRICEL returns:
 Original cell was already a primitive cell.
 

 Routine SETGRP: Setting up the symmetry group for a 
 simple cubic supercell.


 Subroutine GETGRP returns: Found  2 space group operations
 (whereof  2 operations were pure point group operations)
 out of a pool of 48 trial point group operations.


The constrained configuration has the point symmetry C_1h.


Analysis of structural, dynamic, and magnetic symmetry:
=====================================================================
 Subroutine PRICEL returns:
 Original cell was already a primitive cell.
 

 Routine SETGRP: Setting up the symmetry group for a 
 simple cubic supercell.


 Subroutine GETGRP returns: Found  2 space group operations
 (whereof  2 operations were pure point group operations)
 out of a pool of 48 trial point group operations.


The overall configuration has the point symmetry C_1h.


 Subroutine INISYM returns: Found  2 space group operations
 (whereof  2 operations are pure point group operations),
 and found     1 'primitive' translations


----------------------------------------------------------------------------------------

                                     Primitive cell                                     

  volume of cell :   64000.0000

  direct lattice vectors                    reciprocal lattice vectors
    40.000000000  0.000000000  0.000000000     0.025000000  0.000000000  0.000000000
     0.000000000 40.000000000  0.000000000     0.000000000  0.025000000  0.000000000
     0.000000000  0.000000000 40.000000000     0.000000000  0.000000000  0.025000000

  length of vectors
    40.000000000 40.000000000 40.000000000     0.025000000  0.025000000  0.025000000

  position of ions in fractional coordinates (direct lattice)
     0.517497184  0.461029649  0.500000000
     0.547929107  0.477940024  0.500000000
     0.549323843  0.513002221  0.500000000
     0.520431235  0.532297731  0.500000000
     0.489514782  0.515891175  0.500000000
     0.489096674  0.480766320  0.500000000
     0.436729419  0.497547911  0.500000000
     0.454976648  0.526034284  0.500000000
     0.456694033  0.469407726  0.500000000
     0.445101405  0.551135630  0.500000000
     0.410235944  0.492662498  0.500001000
     0.521849842  0.559367030  0.500000000
     0.573521491  0.525211316  0.500000000
     0.570993784  0.463710194  0.500000000
     0.516103609  0.433995292  0.500000000

  ion indices of the primitive-cell ions
   primitive index   ion index
                 1           1
                 2           2
                 3           3
                 4           4
                 5           5
                 6           6
                 7           7
                 8           8
                 9           9
                10          10
                11          11
                12          12
                13          13
                14          14
                15          15

----------------------------------------------------------------------------------------

 
 
 KPOINTS: K-Point Grid                            

Automatic generation of k-mesh.
 Grid dimensions read from file:
 generate k-points for:    1    1    1

 Generating k-lattice:

  Cartesian coordinates                     Fractional coordinates (reciprocal lattice)
     0.025000000  0.000000000  0.000000000     1.000000000  0.000000000  0.000000000
     0.000000000  0.025000000  0.000000000     0.000000000  1.000000000  0.000000000
     0.000000000  0.000000000  0.025000000     0.000000000  0.000000000  1.000000000

  Length of vectors
     0.025000000  0.025000000  0.025000000

  Shift w.r.t. Gamma in fractional coordinates (k-lattice)
     0.000000000  0.000000000  0.000000000

 
 Subroutine IBZKPT returns following result:
 ===========================================
 
 Found      1 irreducible k-points:
 
 Following reciprocal coordinates:
            Coordinates               Weight
  0.000000  0.000000  0.000000      1.000000
 
 Following cartesian coordinates:
            Coordinates               Weight
  0.000000  0.000000  0.000000      1.000000
 


--------------------------------------------------------------------------------------------------------




 Dimension of arrays:
   k-points           NKPTS =      1   k-points in BZ     NKDIM =      1   number of bands    NBANDS=     40
   number of dos      NEDOS =    301   number of ions     NIONS =     15
   non local maximal  LDIM  =      4   non local SUM 2l+1 LMDIM =      8
   total plane-waves  NPLWV = ******
   max r-space proj   IRMAX =   2915   max aug-charges    IRDMAX=   5350
   dimension x,y,z NGX =   294 NGY =  294 NGZ =  294
   dimension x,y,z NGXF=   588 NGYF=  588 NGZF=  588
   support grid    NGXF=   588 NGYF=  588 NGZF=  588
   ions per type =               8   1   6
   NGX,Y,Z   is equivalent  to a cutoff of  12.22, 12.22, 12.22 a.u.
   NGXF,Y,Z  is equivalent  to a cutoff of  24.44, 24.44, 24.44 a.u.

 SYSTEM =  100_red                                 
 POSCAR =  C O H                                   

 Startparameter for this run:
   NWRITE =      2    write-flag & timer
   PREC   = accura    normal or accurate (medium, high low for compatibility)
   ISTART =      1    job   : 0-new  1-cont  2-samecut
   ICHARG =      2    charge: 1-file 2-atom 10-const
   ISPIN  =      2    spin polarized calculation?
   LNONCOLLINEAR =      F non collinear calculations
   LSORBIT =      F    spin-orbit coupling
   INIWAV =      1    electr: 0-lowe 1-rand  2-diag
   LASPH  =      T    aspherical Exc in radial PAW
 Electronic Relaxation 1
   ENCUT  =  500.0 eV  36.75 Ry    6.06 a.u.  72.93 72.93 72.93*2*pi/ulx,y,z
   ENINI  =  500.0     initial cutoff
   ENAUG  =  644.9 eV  augmentation charge cutoff
   NELM   =    100;   NELMIN=  2; NELMDL=  0     # of ELM steps 
   EDIFF  = 0.1E-04   stopping-criterion for ELM
   LREAL  =      T    real-space projection
   NLSPLINE    = F    spline interpolate recip. space projectors
   LCOMPAT=      F    compatible to vasp.4.4
   GGA_COMPAT  = T    GGA compatible to vasp.4.4-vasp.4.6
   LMAXPAW     = -100 max onsite density
   LMAXMIX     =    2 max onsite mixed and CHGCAR
   VOSKOWN=      0    Vosko Wilk Nusair interpolation
   ROPT   =   -0.00025  -0.00025  -0.00025
 Ionic relaxation
   EDIFFG = -.2E-01   stopping-criterion for IOM
   NSW    =    500    number of steps for IOM
   NBLOCK =      1;   KBLOCK =    500    inner block; outer block 
   IBRION =      2    ionic relax: 0-MD 1-quasi-New 2-CG
   NFREE  =      1    steps in history (QN), initial steepest desc. (CG)
   ISIF   =      2    stress and relaxation
   IWAVPR =     11    prediction:  0-non 1-charg 2-wave 3-comb
   ISYM   =      2    0-nonsym 1-usesym 2-fastsym
   LCORR  =      T    Harris-Foulkes like correction to forces

   POTIM  = 0.5000    time-step for ionic-motion
   TEIN   =    0.0    initial temperature
   TEBEG  =    0.0;   TEEND  =   0.0 temperature during run
   SMASS  =  -3.00    Nose mass-parameter (am)
   estimated Nose-frequenzy (Omega)   =  0.10E-29 period in steps = 0.13E+47 mass=  -0.366E-25a.u.
   SCALEE = 1.0000    scale energy and forces
   NPACO  =    256;   APACO  = 10.0  distance and # of slots for P.C.
   PSTRESS=    0.0 pullay stress

  Mass of Ions in am
   POMASS =  12.01 16.00  1.00
  Ionic Valenz
   ZVAL   =   4.00  6.00  1.00
  Atomic Wigner-Seitz radii
   RWIGS  =  -1.00 -1.00 -1.00
  virtual crystal weights 
   VCA    =   1.00  1.00  1.00
   NELECT =      44.0000    total number of electrons
   NUPDOWN=      -1.0000    fix difference up-down

 DOS related values:
   EMIN   =  10.00;   EMAX   =-10.00  energy-range for DOS
   EFERMI =   0.00
   ISMEAR =     0;   SIGMA  =   0.05  broadening in eV -4-tet -1-fermi 0-gaus

 Electronic relaxation 2 (details)
   IALGO  =     68    algorithm
   LDIAG  =      T    sub-space diagonalisation (order eigenvalues)
   LSUBROT=      F    optimize rotation matrix (better conditioning)
   TURBO    =      0    0=normal 1=particle mesh
   IRESTART =      0    0=no restart 2=restart with 2 vectors
   NREBOOT  =      0    no. of reboots
   NMIN     =      0    reboot dimension
   EREF     =   0.00    reference energy to select bands
   IMIX   =      4    mixing-type and parameters
     AMIX     =   0.40;   BMIX     =  1.00
     AMIX_MAG =   1.60;   BMIX_MAG =  1.00
     AMIN     =   0.10
     WC   =   100.;   INIMIX=   1;  MIXPRE=   1;  MAXMIX= -45

 Intra band minimization:
   WEIMIN = 0.0010     energy-eigenvalue tresh-hold
   EBREAK =  0.63E-07  absolut break condition
   DEPER  =   0.30     relativ break condition  

   TIME   =   0.40     timestep for ELM

  volume/ion in A,a.u.               =    4266.67     28792.89
  Fermi-wavevector in a.u.,A,eV,Ry     =   0.144488  0.273043  0.284047  0.020877
  Thomas-Fermi vector in A             =   0.810532
 
 Write flags
   LWAVE        =      T    write WAVECAR
   LDOWNSAMPLE  =      F    k-point downsampling of WAVECAR
   LCHARG       =      F    write CHGCAR
   LVTOT        =      F    write LOCPOT, total local potential
   LVHAR        =      F    write LOCPOT, Hartree potential only
   LELF         =      F    write electronic localiz. function (ELF)
   LORBIT       =      0    0 simple, 1 ext, 2 COOP (PROOUT), +10 PAW based schemes


 Dipole corrections
   LMONO  =      F    monopole corrections only (constant potential shift)
   LDIPOL =      F    correct potential (dipole corrections)
   IDIPOL =      0    1-x, 2-y, 3-z, 4-all directions 
   EPSILON=  1.0000000 bulk dielectric constant

 Exchange correlation treatment:
   GGA     =    --    GGA type
   LEXCH   =     8    internal setting for exchange type
   LIBXC   =     F    Libxc                    
   VOSKOWN =     0    Vosko Wilk Nusair interpolation
   LHFCALC =     F    Hartree Fock is set to
   LHFONE  =     F    Hartree Fock one center treatment
   AEXX    =    0.0000 exact exchange contribution

 Linear response parameters
   LEPSILON=     F    determine dielectric tensor
   LRPA    =     F    only Hartree local field effects (RPA)
   LNABLA  =     F    use nabla operator in PAW spheres
   LVEL    =     F    velocity operator in full k-point grid
   CSHIFT  =0.1000    complex shift for real part using Kramers Kronig
   OMEGAMAX=  -1.0    maximum frequency
   DEG_THRESHOLD= 0.2000000E-02 threshold for treating states as degnerate
   RTIME   =   -0.100 relaxation time in fs
  (WPLASMAI=    0.000 imaginary part of plasma frequency in eV, 0.658/RTIME)
   DFIELD  = 0.0000000 0.0000000 0.0000000 field for delta impulse in time
 
  Optional k-point grid parameters
   LKPOINTS_OPT  =     F    use optional k-point grid
   KPOINTS_OPT_MODE=     1    mode for optional k-point grid
 
 Orbital magnetization related:
   ORBITALMAG=     F  switch on orbital magnetization
   LCHIMAG   =     F  perturbation theory with respect to B field
   DQ        =  0.001000  dq finite difference perturbation B field
   LLRAUG    =     F  two centre corrections for induced B field

 Solvation model:
   LSOL             =     T         switch on solvation model
   LSOL_SCF         =     T         include solvation in SCF
   ISOL             =     2         solvation model type
   EFERMI_ref       =  0.000000         reference Fermi level
   capacitance_init =  1.000000         initial capacitance
 Nonlinear solvation model:
   LNLDIEL     =     T         switch on non-linear dielectric mode
   LNLION      =     T         switch on non-linear ionic mode
   LNLTEST     =     F         test non-linear model in linear regime
   I_NLOC_SOL  =     1         type of nonlocal dielectric response
   NC_K        =  0.015000     cutoff charge density for cavities (1/Angstrom**3)
   TAU         =  0.000879     cavity formation energy (eV/Angstrom**2)
   SIGMA_K     =  0.600000     cavity width
   A_K         =  0.125000     smoothing length (Angstrom)
   R_SOLV      =  2.190000     solvent radius (Angstrom)
   R_CAV       =  0.000000     cavity radius (Angstrom)
   R_DIEL      =  1.000000     dielectric radius (Angstrom)
   R_ION       =  0.000000     ionic radius (Angstrom)
   R_B         =  0.000000     bound charge radius (Angstrom)
   SOLTEMP     =298.000000     solvent temperature (K)
   EB_K        = 35.688000     relative permittivity of the bulk solvent
   EPSILON_INF =  1.806900     optical relative permittivity of bulk solvent
   N_MOL       =  0.011500     molar density of solvent (1/Angstrom**3)
   P_MOL       =  0.820000     solvent dipole moment (e*Angstrom)
   C_MOLAR     =  0.000000     electrolyte concentration (mol/L)
   LAMBDA_D_K  =  0.000000     Debye length (Angstrom)
   ZION        =  1.000000     charge of ions in electrolyte (e)
   D_ION       = -1.000000     minimum ion packing diameter (Angstrom)



--------------------------------------------------------------------------------------------------------


 conjugate gradient relaxation of ions
   using selective dynamics as specified on POSCAR
 charge density and potential will be updated during run
 spin polarized calculation
 RMM-DIIS sequential band-by-band and
  variant of blocked Davidson during initial phase
 perform sub-space diagonalisation
    before iterative eigenvector-optimisation
 modified Broyden-mixing scheme, WC =      100.0
 initial mixing is a Kerker type mixing with AMIX =  0.4000 and BMIX =      1.0000
 Hartree-type preconditioning will be used
 using additional bands           18
 real space projection scheme for non local part
 use partial core corrections
 calculate Harris-corrections to forces 
   (improved forces if not selfconsistent)
 use gradient corrections 
 use of overlap-Matrix (Vanderbilt PP)
 Gauss-broadening in eV      SIGMA  =   0.05


--------------------------------------------------------------------------------------------------------


  energy-cutoff  :      500.00
  volume of cell :    64000.00
      direct lattice vectors                 reciprocal lattice vectors
    40.000000000  0.000000000  0.000000000     0.025000000  0.000000000  0.000000000
     0.000000000 40.000000000  0.000000000     0.000000000  0.025000000  0.000000000
     0.000000000  0.000000000 40.000000000     0.000000000  0.000000000  0.025000000

  length of vectors
    40.000000000 40.000000000 40.000000000     0.025000000  0.025000000  0.025000000


 
 old parameters found on file WAVECAR:
  energy-cutoff  :      500.00
  volume of cell :    64000.00
      direct lattice vectors                 reciprocal lattice vectors
    40.000000000  0.000000000  0.000000000     0.025000000  0.000000000  0.000000000
     0.000000000 40.000000000  0.000000000     0.000000000  0.025000000  0.000000000
     0.000000000  0.000000000 40.000000000     0.000000000  0.000000000  0.025000000

  length of vectors

 
 k-points in units of 2pi/SCALE and weight: K-Point Grid                            
   0.00000000  0.00000000  0.00000000       1.000
 
 k-points in reciprocal lattice and weights: K-Point Grid                            
   0.00000000  0.00000000  0.00000000       1.000
 
 position of ions in fractional coordinates (direct lattice) 
   0.51749718  0.46102965  0.50000000
   0.54792911  0.47794002  0.50000000
   0.54932384  0.51300222  0.50000000
   0.52043123  0.53229773  0.50000000
   0.48951478  0.51589118  0.50000000
   0.48909667  0.48076632  0.50000000
   0.43672942  0.49754791  0.50000000
   0.45497665  0.52603428  0.50000000
   0.45669403  0.46940773  0.50000000
   0.44510141  0.55113563  0.50000000
   0.41023594  0.49266250  0.50000100
   0.52184984  0.55936703  0.50000000
   0.57352149  0.52521132  0.50000000
   0.57099378  0.46371019  0.50000000
   0.51610361  0.43399529  0.50000000
 
 position of ions in cartesian coordinates  (Angst):
  20.69988737 18.44118596 20.00000000
  21.91716429 19.11760096 20.00000000
  21.97295373 20.52008884 20.00000000
  20.81724938 21.29190922 20.00000000
  19.58059126 20.63564700 20.00000000
  19.56386696 19.23065280 20.00000000
  17.46917678 19.90191642 20.00000000
  18.19906591 21.04137134 20.00000000
  18.26776133 18.77630905 20.00000000
  17.80405620 22.04542522 20.00000000
  16.40943777 19.70649993 20.00004000
  20.87399366 22.37468121 20.00000000
  22.94085962 21.00845264 20.00000000
  22.83975138 18.54840774 20.00000000
  20.64414434 17.35981166 20.00000000
 


--------------------------------------------------------------------------------------------------------


 k-point   1 :   0.0000 0.0000 0.0000  plane waves: 1624525

 maximum and minimum number of plane-waves per node :    162473   162437

 maximum number of plane-waves:   1624525
 maximum index in each direction: 
   IXMAX=   72   IYMAX=   72   IZMAX=   72
   IXMIN=  -72   IYMIN=  -72   IZMIN=  -72


 real space projection operators:
  total allocation   :       1679.59 KBytes
  max/ min on nodes  :        175.62        160.84


 parallel 3D FFT for wavefunctions:
    minimum data exchange during FFTs selected (reduces bandwidth)
 parallel 3D FFT for charge:
    minimum data exchange during FFTs selected (reduces bandwidth)


 total amount of memory used by VASP MPI-rank0   886812. kBytes
=======================================================================

   base      :      30000. kBytes
   nonlr-proj:        941. kBytes
   fftplans  :     167689. kBytes
   grid      :     662171. kBytes
   one-center:         12. kBytes
   wavefun   :      25999. kBytes
 
     INWAV:  cpu time      7.2419: real time      7.2587
 Broyden mixing: mesh for mixing (old mesh)
   NGX =145   NGY =145   NGZ =145
  (NGX  =588   NGY  =588   NGZ  =588)
  gives a total of ****** points

 initial charge density was supplied:
 charge density of overlapping atoms calculated
 number of electron      44.0000000 magnetization      15.0000000
 keeping initial charge density in first step


--------------------------------------------------------------------------------------------------------


 Maximum index for non-local projection operator          304
 Maximum index for augmentation-charges          319 (set IRDMAX)


--------------------------------------------------------------------------------------------------------


 First call to EWALD:  gamma=   0.044
 Maximum number of real-space cells 3x 3x 3
 Maximum number of reciprocal cells 3x 3x 3

    FEWALD:  cpu time      0.0063: real time      0.0063


--------------------------------------- Iteration      1(   1)  ---------------------------------------


    POTLOK:  cpu time      9.7772: real time      9.8012
    SETDIJ:  cpu time      0.4077: real time      0.4086
     EDDAV:  cpu time     47.4885: real time     47.5884
       DOS:  cpu time      0.0051: real time      0.0051
    CHARGE:  cpu time     50.0671: real time     50.2131
    MIXING:  cpu time      0.2419: real time      0.2420
    --------------------------------------------
      LOOP:  cpu time    107.9875: real time    108.2583

 eigenvalue-minimisations  :   216
 total energy-change (2. order) :-0.1085373E+03  (-0.5512488E+01)
 number of electron      43.9999997 magnetization      14.4220833
 augmentation part        1.5695481 magnetization      14.4527187

 Broyden mixing:
  rms(total) = 0.24709E+01    rms(broyden)= 0.24706E+01
  rms(prec ) = 0.24936E+01
  weight for this iteration     100.00

 Free energy of the ion-electron system (eV)
  ---------------------------------------------------
  alpha Z        PSCENC =         0.13892279
  Ewald energy   TEWEN  =      4456.90247422
  -Hartree energ DENC   =     -5613.57053205
  -exchange      EXHF   =         0.00000000
  -V(xc)+E(xc)   XCENC  =       176.41219359
  PAW double counting   =      1197.20214700    -1216.78604868
  entropy T*S    EENTRO =        -0.00000000
  eigenvalues    EBANDS =      -793.29884491
  atomic energy  EATOM  =      1684.46238724
  Solvation  Ecorr_sol  =         0.00000000
  ---------------------------------------------------
  free energy    TOTEN  =      -108.53730080 eV

  energy without entropy =     -108.53730080  energy(sigma->0) =     -108.53730080


--------------------------------------------------------------------------------------------------------




--------------------------------------- Iteration      1(   2)  ---------------------------------------


    --------------------------------------------
      INIT:  cpu time      0.2515: real time      0.2516
  FINALIZE:  cpu time     22.8476: real time     22.8776
    --------------------------------------------
    POTLOK:  cpu time     32.8872: real time     32.9491
    SETDIJ:  cpu time      0.4058: real time      0.4066
    EDDIAG:  cpu time      9.5675: real time      9.5871
  RMM-DIIS:  cpu time     53.2343: real time     53.3506
    ORTHCH:  cpu time      0.1284: real time      0.1288
       DOS:  cpu time      0.0023: real time      0.0023
    CHARGE:  cpu time     51.0449: real time     51.2219
    MIXING:  cpu time      0.1868: real time      0.1862
    --------------------------------------------
      LOOP:  cpu time    147.4572: real time    147.8325

 eigenvalue-minimisations  :   160
 total energy-change (2. order) : 0.1542812E+02  (-0.5363126E+01)
 number of electron      43.9999996 magnetization      13.8017027
 augmentation part        1.5767719 magnetization      13.7564046

 Broyden mixing:
  rms(total) = 0.11952E+01    rms(broyden)= 0.11952E+01
  rms(prec ) = 0.12124E+01
  weight for this iteration     100.00

 eigenvalues of (default mixing * dielectric matrix)
  average eigenvalue GAMMA=   0.9493
  0.9493

 Free energy of the ion-electron system (eV)
  ---------------------------------------------------
  alpha Z        PSCENC =         0.13892279
  Ewald energy   TEWEN  =      4456.90247422
  -Hartree energ DENC   =     -5692.67253752
  -exchange      EXHF   =         0.00000000
  -V(xc)+E(xc)   XCENC  =       191.06123097
  PAW double counting   =      2035.20591649    -2055.69038704
  entropy T*S    EENTRO =        -0.00000000
  eigenvalues    EBANDS =      -708.85781955
  atomic energy  EATOM  =      1684.46238724
  Solvation  Ecorr_sol  =        -3.65937159
  ---------------------------------------------------
  free energy    TOTEN  =       -93.10918399 eV

  energy without entropy =      -93.10918399  energy(sigma->0) =      -93.10918399


--------------------------------------------------------------------------------------------------------




--------------------------------------- Iteration      1(   3)  ---------------------------------------


    --------------------------------------------
      INIT:  cpu time      0.2515: real time      0.2509
  FINALIZE:  cpu time     27.1039: real time     27.0895
    --------------------------------------------
    POTLOK:  cpu time     37.1844: real time     37.1893
    SETDIJ:  cpu time      0.4043: real time      0.4050
    EDDIAG:  cpu time      9.5902: real time      9.6118
  RMM-DIIS:  cpu time     58.3289: real time     58.4535
    ORTHCH:  cpu time      0.1031: real time      0.1034
       DOS:  cpu time      0.0035: real time      0.0035
    CHARGE:  cpu time     51.0705: real time     50.9957
    MIXING:  cpu time      0.1949: real time      0.1949
    --------------------------------------------
      LOOP:  cpu time    156.8797: real time    156.9572

 eigenvalue-minimisations  :   175
 total energy-change (2. order) :-0.1491149E+02  (-0.1999834E+01)
 number of electron      43.9999996 magnetization      12.9702313
 augmentation part        1.5546746 magnetization      12.9163392

 Broyden mixing:
  rms(total) = 0.71824E+00    rms(broyden)= 0.71821E+00
  rms(prec ) = 0.72564E+00
  weight for this iteration     100.00

 eigenvalues of (default mixing * dielectric matrix)
  average eigenvalue GAMMA=   1.1500
  0.7996  1.5003

 Free energy of the ion-electron system (eV)
  ---------------------------------------------------
  alpha Z        PSCENC =         0.13892279
  Ewald energy   TEWEN  =      4456.90247422
  -Hartree energ DENC   =     -5752.70678863
  -exchange      EXHF   =         0.00000000
  -V(xc)+E(xc)   XCENC  =       181.55135094
  PAW double counting   =      2796.35768823    -2817.32764280
  entropy T*S    EENTRO =        -0.00000000
  eigenvalues    EBANDS =      -651.08020927
  atomic energy  EATOM  =      1684.46238724
  Solvation  Ecorr_sol  =        -6.31885350
  ---------------------------------------------------
  free energy    TOTEN  =      -108.02067078 eV

  energy without entropy =     -108.02067078  energy(sigma->0) =     -108.02067078


--------------------------------------------------------------------------------------------------------




--------------------------------------- Iteration      1(   4)  ---------------------------------------


    --------------------------------------------
      INIT:  cpu time      0.2547: real time      0.2550
  FINALIZE:  cpu time     27.1633: real time     27.1968
    --------------------------------------------
    POTLOK:  cpu time     37.2617: real time     37.3157
    SETDIJ:  cpu time      0.4060: real time      0.4069
    EDDIAG:  cpu time      9.5975: real time      9.6182
  RMM-DIIS:  cpu time     67.4488: real time     67.5922
    ORTHCH:  cpu time      0.1074: real time      0.1077
       DOS:  cpu time      0.0005: real time      0.0005
    CHARGE:  cpu time     51.0492: real time     51.2010
    MIXING:  cpu time      0.2073: real time      0.2074
    --------------------------------------------
      LOOP:  cpu time    166.0784: real time    166.4497

 eigenvalue-minimisations  :   210
 total energy-change (2. order) :-0.5165951E+01  (-0.9879527E+00)
 number of electron      43.9999996 magnetization      12.2731463
 augmentation part        1.5246391 magnetization      12.2312579

 Broyden mixing:
  rms(total) = 0.42585E+00    rms(broyden)= 0.42581E+00
  rms(prec ) = 0.42869E+00
  weight for this iteration     100.00

 eigenvalues of (default mixing * dielectric matrix)
  average eigenvalue GAMMA=   1.2564
  2.0044  1.0696  0.6953

 Free energy of the ion-electron system (eV)
  ---------------------------------------------------
  alpha Z        PSCENC =         0.13892279
  Ewald energy   TEWEN  =      4456.90247422
  -Hartree energ DENC   =     -5800.71983805
  -exchange      EXHF   =         0.00000000
  -V(xc)+E(xc)   XCENC  =       179.70874899
  PAW double counting   =      3587.47441224    -3608.57622613
  entropy T*S    EENTRO =        -0.00000000
  eigenvalues    EBANDS =      -604.44768875
  atomic energy  EATOM  =      1684.46238724
  Solvation  Ecorr_sol  =        -8.12981386
  ---------------------------------------------------
  free energy    TOTEN  =      -113.18662131 eV

  energy without entropy =     -113.18662131  energy(sigma->0) =     -113.18662131


--------------------------------------------------------------------------------------------------------




--------------------------------------- Iteration      1(   5)  ---------------------------------------


    --------------------------------------------
      INIT:  cpu time      0.2559: real time      0.2563
  FINALIZE:  cpu time     30.2961: real time     30.2958
    --------------------------------------------
    POTLOK:  cpu time     40.3603: real time     40.3914
    SETDIJ:  cpu time      0.4097: real time      0.4105
    EDDIAG:  cpu time      9.5945: real time      9.6150
  RMM-DIIS:  cpu time     74.4392: real time     74.6067
    ORTHCH:  cpu time      0.1070: real time      0.1073
       DOS:  cpu time      0.0026: real time      0.0026
    CHARGE:  cpu time     50.8023: real time     51.0148
    MIXING:  cpu time      0.2132: real time      0.2134
    --------------------------------------------
      LOOP:  cpu time    175.9289: real time    176.3618

 eigenvalue-minimisations  :   245
 total energy-change (2. order) :-0.1461048E+01  (-0.2125743E+00)
 number of electron      43.9999995 magnetization      11.2161160
 augmentation part        1.5168934 magnetization      11.1816148

 Broyden mixing:
  rms(total) = 0.28426E+00    rms(broyden)= 0.28424E+00
  rms(prec ) = 0.28624E+00
  weight for this iteration     100.00

 eigenvalues of (default mixing * dielectric matrix)
  average eigenvalue GAMMA=   1.3853
  2.3970  1.5972  0.8812  0.6658

 Free energy of the ion-electron system (eV)
  ---------------------------------------------------
  alpha Z        PSCENC =         0.13892279
  Ewald energy   TEWEN  =      4456.90247422
  -Hartree energ DENC   =     -5811.33486301
  -exchange      EXHF   =         0.00000000
  -V(xc)+E(xc)   XCENC  =       179.05651836
  PAW double counting   =      3902.07110117    -3923.08811456
  entropy T*S    EENTRO =        -0.00000000
  eigenvalues    EBANDS =      -595.02932441
  atomic energy  EATOM  =      1684.46238724
  Solvation  Ecorr_sol  =        -7.82677111
  ---------------------------------------------------
  free energy    TOTEN  =      -114.64766931 eV

  energy without entropy =     -114.64766931  energy(sigma->0) =     -114.64766931


--------------------------------------------------------------------------------------------------------




--------------------------------------- Iteration      1(   6)  ---------------------------------------


    --------------------------------------------
      INIT:  cpu time      0.2505: real time      0.2508
  FINALIZE:  cpu time     30.2751: real time     30.3185
    --------------------------------------------
    POTLOK:  cpu time     40.3582: real time     40.4308
    SETDIJ:  cpu time      0.4082: real time      0.4091
    EDDIAG:  cpu time      9.5923: real time      9.6121
  RMM-DIIS:  cpu time     72.9528: real time     73.1086
    ORTHCH:  cpu time      0.1108: real time      0.1112
       DOS:  cpu time      0.0010: real time      0.0010
    CHARGE:  cpu time     50.8984: real time     51.0295
    MIXING:  cpu time      0.2092: real time      0.2089
    --------------------------------------------
      LOOP:  cpu time    174.5310: real time    174.9112

 eigenvalue-minimisations  :   238
 total energy-change (2. order) :-0.8834670E+00  (-0.1184873E+00)
 number of electron      43.9999995 magnetization      10.5631877
 augmentation part        1.5121119 magnetization      10.5379675

 Broyden mixing:
  rms(total) = 0.16279E+00    rms(broyden)= 0.16279E+00
  rms(prec ) = 0.16360E+00
  weight for this iteration     100.00

 eigenvalues of (default mixing * dielectric matrix)
  average eigenvalue GAMMA=   1.4415
  2.8713  1.8695  1.0615  0.7655  0.6397

 Free energy of the ion-electron system (eV)
  ---------------------------------------------------
  alpha Z        PSCENC =         0.13892279
  Ewald energy   TEWEN  =      4456.90247422
  -Hartree energ DENC   =     -5816.13437557
  -exchange      EXHF   =         0.00000000
  -V(xc)+E(xc)   XCENC  =       178.55673362
  PAW double counting   =      4146.51170207    -4167.31644082
  entropy T*S    EENTRO =        -0.00000000
  eigenvalues    EBANDS =      -592.71114208
  atomic energy  EATOM  =      1684.46238724
  Solvation  Ecorr_sol  =        -5.94139780
  ---------------------------------------------------
  free energy    TOTEN  =      -115.53113633 eV

  energy without entropy =     -115.53113633  energy(sigma->0) =     -115.53113633


--------------------------------------------------------------------------------------------------------




--------------------------------------- Iteration      1(   7)  ---------------------------------------


    --------------------------------------------
      INIT:  cpu time      0.2538: real time      0.2533
  FINALIZE:  cpu time     28.7169: real time     28.7073
    --------------------------------------------
    POTLOK:  cpu time     38.7650: real time     38.7791
    SETDIJ:  cpu time      0.4048: real time      0.4056
    EDDIAG:  cpu time      9.5671: real time      9.5866
  RMM-DIIS:  cpu time     75.6292: real time     75.7911
    ORTHCH:  cpu time      0.1194: real time      0.1198
       DOS:  cpu time      0.0016: real time      0.0016
    CHARGE:  cpu time     51.0267: real time     51.1535
    MIXING:  cpu time      0.1953: real time      0.1955
    --------------------------------------------
      LOOP:  cpu time    175.7091: real time    176.0327

 eigenvalue-minimisations  :   248
 total energy-change (2. order) : 0.5504820E+00  (-0.4023133E-01)
 number of electron      43.9999995 magnetization       9.7213464
 augmentation part        1.5090940 magnetization       9.6997398

 Broyden mixing:
  rms(total) = 0.12929E+00    rms(broyden)= 0.12929E+00
  rms(prec ) = 0.12989E+00
  weight for this iteration     100.00

 eigenvalues of (default mixing * dielectric matrix)
  average eigenvalue GAMMA=   1.4015
  2.9750  2.0419  1.0920  0.9411  0.7188  0.6401

 Free energy of the ion-electron system (eV)
  ---------------------------------------------------
  alpha Z        PSCENC =         0.13892279
  Ewald energy   TEWEN  =      4456.90247422
  -Hartree energ DENC   =     -5818.51086900
  -exchange      EXHF   =         0.00000000
  -V(xc)+E(xc)   XCENC  =       179.20375261
  PAW double counting   =      4182.65206494    -4203.41152808
  entropy T*S    EENTRO =        -0.00000000
  eigenvalues    EBANDS =      -592.08271815
  atomic energy  EATOM  =      1684.46238724
  Solvation  Ecorr_sol  =        -4.33514086
  ---------------------------------------------------
  free energy    TOTEN  =      -114.98065429 eV

  energy without entropy =     -114.98065429  energy(sigma->0) =     -114.98065429


--------------------------------------------------------------------------------------------------------




--------------------------------------- Iteration      1(   8)  ---------------------------------------


    --------------------------------------------
      INIT:  cpu time      0.2491: real time      0.2494
  FINALIZE:  cpu time     30.1522: real time     30.1967
    --------------------------------------------
    POTLOK:  cpu time     40.2408: real time     40.3041
    SETDIJ:  cpu time      0.4096: real time      0.4105
    EDDIAG:  cpu time      9.5677: real time      9.5880
  RMM-DIIS:  cpu time     74.5777: real time     74.7486
    ORTHCH:  cpu time      0.1125: real time      0.1128
       DOS:  cpu time      0.0019: real time      0.0019
    CHARGE:  cpu time     50.8825: real time     51.0037
    MIXING:  cpu time      0.2003: real time      0.2004
    --------------------------------------------
      LOOP:  cpu time    175.9930: real time    176.3699

 eigenvalue-minimisations  :   243
 total energy-change (2. order) : 0.1294757E+01  (-0.3091853E-01)
 number of electron      43.9999995 magnetization       7.8411297
 augmentation part        1.5064452 magnetization       7.8228486

 Broyden mixing:
  rms(total) = 0.97929E-01    rms(broyden)= 0.97927E-01
  rms(prec ) = 0.98288E-01
  weight for this iteration     100.00

 eigenvalues of (default mixing * dielectric matrix)
  average eigenvalue GAMMA=   1.7295
  4.3870  2.6812  1.7577  1.1269  0.8087  0.7173  0.6273

 Free energy of the ion-electron system (eV)
  ---------------------------------------------------
  alpha Z        PSCENC =         0.13892279
  Ewald energy   TEWEN  =      4456.90247422
  -Hartree energ DENC   =     -5820.17671724
  -exchange      EXHF   =         0.00000000
  -V(xc)+E(xc)   XCENC  =       180.41353661
  PAW double counting   =      4148.59865813    -4169.34255150
  entropy T*S    EENTRO =        -0.00000000
  eigenvalues    EBANDS =      -592.48006821
  atomic energy  EATOM  =      1684.46238724
  Solvation  Ecorr_sol  =        -2.20253896
  ---------------------------------------------------
  free energy    TOTEN  =      -113.68589693 eV

  energy without entropy =     -113.68589693  energy(sigma->0) =     -113.68589693


--------------------------------------------------------------------------------------------------------




--------------------------------------- Iteration      1(   9)  ---------------------------------------


    --------------------------------------------
      INIT:  cpu time      0.2580: real time      0.2577
  FINALIZE:  cpu time     30.2524: real time     30.2939
    --------------------------------------------
    POTLOK:  cpu time     40.3270: real time     40.3857
    SETDIJ:  cpu time      0.4090: real time      0.4098
    EDDIAG:  cpu time      9.5612: real time      9.5799
  RMM-DIIS:  cpu time     74.4278: real time     74.5875
    ORTHCH:  cpu time      0.1101: real time      0.1104
       DOS:  cpu time      0.0004: real time      0.0004
    CHARGE:  cpu time     50.9130: real time     51.0549
    MIXING:  cpu time      0.2058: real time      0.2061
    --------------------------------------------
      LOOP:  cpu time    175.9544: real time    176.3347

 eigenvalue-minimisations  :   244
 total energy-change (2. order) : 0.1778289E+01  (-0.3446001E-01)
 number of electron      43.9999995 magnetization       7.2743544
 augmentation part        1.5051012 magnetization       7.2605381

 Broyden mixing:
  rms(total) = 0.54908E-01    rms(broyden)= 0.54904E-01
  rms(prec ) = 0.55219E-01
  weight for this iteration     100.00

 eigenvalues of (default mixing * dielectric matrix)
  average eigenvalue GAMMA=   1.7617
  5.4365  2.6446  1.9262  1.0139  0.9629  0.6213  0.7443  0.7443

 Free energy of the ion-electron system (eV)
  ---------------------------------------------------
  alpha Z        PSCENC =         0.13892279
  Ewald energy   TEWEN  =      4456.90247422
  -Hartree energ DENC   =     -5824.67908567
  -exchange      EXHF   =         0.00000000
  -V(xc)+E(xc)   XCENC  =       182.12419950
  PAW double counting   =      4113.80024545    -4134.52198263
  entropy T*S    EENTRO =        -0.00000000
  eigenvalues    EBANDS =      -592.12140388
  atomic energy  EATOM  =      1684.46238724
  Solvation  Ecorr_sol  =         1.98663470
  ---------------------------------------------------
  free energy    TOTEN  =      -111.90760828 eV

  energy without entropy =     -111.90760828  energy(sigma->0) =     -111.90760828


--------------------------------------------------------------------------------------------------------




--------------------------------------- Iteration      1(  10)  ---------------------------------------


    --------------------------------------------
      INIT:  cpu time      0.2514: real time      0.2516
  FINALIZE:  cpu time     31.6744: real time     31.7220
    --------------------------------------------
    POTLOK:  cpu time     41.7920: real time     41.8616
    SETDIJ:  cpu time      0.4281: real time      0.4289
    EDDIAG:  cpu time      9.5010: real time      9.5207
  RMM-DIIS:  cpu time     75.5913: real time     75.7521
    ORTHCH:  cpu time      0.1070: real time      0.1073
       DOS:  cpu time      0.0018: real time      0.0018
    CHARGE:  cpu time     50.8277: real time     50.9452
    MIXING:  cpu time      0.2138: real time      0.2139
    --------------------------------------------
      LOOP:  cpu time    178.4626: real time    178.8315

 eigenvalue-minimisations  :   248
 total energy-change (2. order) : 0.4386802E+00  (-0.1273945E-01)
 number of electron      43.9999995 magnetization       6.5082405
 augmentation part        1.5035449 magnetization       6.4967892

 Broyden mixing:
  rms(total) = 0.42898E-01    rms(broyden)= 0.42897E-01
  rms(prec ) = 0.43039E-01
  weight for this iteration     100.00

 eigenvalues of (default mixing * dielectric matrix)
  average eigenvalue GAMMA=   1.8579
  6.8051  2.5289  2.1853  1.3720  0.9920  0.7841  0.6204  0.7167  0.7167

 Free energy of the ion-electron system (eV)
  ---------------------------------------------------
  alpha Z        PSCENC =         0.13892279
  Ewald energy   TEWEN  =      4456.90247422
  -Hartree energ DENC   =     -5826.78697354
  -exchange      EXHF   =         0.00000000
  -V(xc)+E(xc)   XCENC  =       182.64152642
  PAW double counting   =      4123.55855305    -4144.29551934
  entropy T*S    EENTRO =        -0.00000000
  eigenvalues    EBANDS =      -590.93163869
  atomic energy  EATOM  =      1684.46238724
  Solvation  Ecorr_sol  =         2.84133976
  ---------------------------------------------------
  free energy    TOTEN  =      -111.46892811 eV

  energy without entropy =     -111.46892811  energy(sigma->0) =     -111.46892811


--------------------------------------------------------------------------------------------------------




--------------------------------------- Iteration      1(  11)  ---------------------------------------


    --------------------------------------------
      INIT:  cpu time      0.2510: real time      0.2507
  FINALIZE:  cpu time     27.2442: real time     27.2244
    --------------------------------------------
    POTLOK:  cpu time     37.2901: real time     37.2965
    SETDIJ:  cpu time      0.4052: real time      0.4060
    EDDIAG:  cpu time      9.5617: real time      9.5817
  RMM-DIIS:  cpu time     75.6545: real time     75.8200
    ORTHCH:  cpu time      0.1100: real time      0.1103
       DOS:  cpu time      0.0040: real time      0.0040
    CHARGE:  cpu time     50.9890: real time     51.1232
    MIXING:  cpu time      0.2164: real time      0.2166
    --------------------------------------------
      LOOP:  cpu time    174.2309: real time    174.5583

 eigenvalue-minimisations  :   248
 total energy-change (2. order) : 0.7890699E+00  (-0.8793702E-02)
 number of electron      43.9999995 magnetization       5.6849985
 augmentation part        1.5028436 magnetization       5.6755903

 Broyden mixing:
  rms(total) = 0.32822E-01    rms(broyden)= 0.32821E-01
  rms(prec ) = 0.32907E-01
  weight for this iteration     100.00

 eigenvalues of (default mixing * dielectric matrix)
  average eigenvalue GAMMA=   1.9450
  7.7727  2.7468  2.2305  1.7730  1.0437  1.0437  0.6265  0.7454  0.7454  0.7223

 Free energy of the ion-electron system (eV)
  ---------------------------------------------------
  alpha Z        PSCENC =         0.13892279
  Ewald energy   TEWEN  =      4456.90247422
  -Hartree energ DENC   =     -5827.88910193
  -exchange      EXHF   =         0.00000000
  -V(xc)+E(xc)   XCENC  =       183.43937650
  PAW double counting   =      4119.90184506    -4140.64722727
  entropy T*S    EENTRO =        -0.00000000
  eigenvalues    EBANDS =      -590.80026731
  atomic energy  EATOM  =      1684.46238724
  Solvation  Ecorr_sol  =         3.81173244
  ---------------------------------------------------
  free energy    TOTEN  =      -110.67985825 eV

  energy without entropy =     -110.67985825  energy(sigma->0) =     -110.67985825


--------------------------------------------------------------------------------------------------------




--------------------------------------- Iteration      1(  12)  ---------------------------------------


    --------------------------------------------
      INIT:  cpu time      0.2572: real time      0.2567
  FINALIZE:  cpu time     28.7321: real time     28.7340
    --------------------------------------------
    POTLOK:  cpu time     38.7481: real time     38.7876
    SETDIJ:  cpu time      0.4065: real time      0.4073
    EDDIAG:  cpu time      9.5849: real time      9.6052
  RMM-DIIS:  cpu time     75.6222: real time     75.7907
    ORTHCH:  cpu time      0.1116: real time      0.1119
       DOS:  cpu time      0.0009: real time      0.0009
    CHARGE:  cpu time     51.0781: real time     51.2505
    MIXING:  cpu time      0.2273: real time      0.2276
    --------------------------------------------
      LOOP:  cpu time    175.7795: real time    176.1816

 eigenvalue-minimisations  :   248
 total energy-change (2. order) : 0.8038529E+00  (-0.8048625E-03)
 number of electron      43.9999995 magnetization       4.9057622
 augmentation part        1.5024831 magnetization       4.8976046

 Broyden mixing:
  rms(total) = 0.26167E-01    rms(broyden)= 0.26166E-01
  rms(prec ) = 0.26240E-01
  weight for this iteration     100.00

 eigenvalues of (default mixing * dielectric matrix)
  average eigenvalue GAMMA=   1.9848
  8.3672  3.1472  2.2181  2.2181  1.2409  0.9075  0.9075  0.7607  0.7607  0.6288
  0.6765

 Free energy of the ion-electron system (eV)
  ---------------------------------------------------
  alpha Z        PSCENC =         0.13892279
  Ewald energy   TEWEN  =      4456.90247422
  -Hartree energ DENC   =     -5827.84361254
  -exchange      EXHF   =         0.00000000
  -V(xc)+E(xc)   XCENC  =       184.21683617
  PAW double counting   =      4112.38488538    -4133.13162671
  entropy T*S    EENTRO =        -0.00000000
  eigenvalues    EBANDS =      -591.57268250
  atomic energy  EATOM  =      1684.46238724
  Solvation  Ecorr_sol  =         4.56641064
  ---------------------------------------------------
  free energy    TOTEN  =      -109.87600530 eV

  energy without entropy =     -109.87600530  energy(sigma->0) =     -109.87600530


--------------------------------------------------------------------------------------------------------




--------------------------------------- Iteration      1(  13)  ---------------------------------------


    --------------------------------------------
      INIT:  cpu time      0.2551: real time      0.2545
  FINALIZE:  cpu time     28.8214: real time     28.8274
    --------------------------------------------
    POTLOK:  cpu time     38.8695: real time     38.9029
    SETDIJ:  cpu time      0.4049: real time      0.4057
    EDDIAG:  cpu time      9.5739: real time      9.5937
  RMM-DIIS:  cpu time     75.3938: real time     75.5568
    ORTHCH:  cpu time      0.1055: real time      0.1057
       DOS:  cpu time      0.0014: real time      0.0014
    CHARGE:  cpu time     50.9147: real time     51.0971
    MIXING:  cpu time      0.2376: real time      0.2379
    --------------------------------------------
      LOOP:  cpu time    175.5013: real time    175.9012

 eigenvalue-minimisations  :   248
 total energy-change (2. order) : 0.5979747E+00  ( 0.4909161E-02)
 number of electron      43.9999995 magnetization       4.0467772
 augmentation part        1.5016377 magnetization       4.0396215

 Broyden mixing:
  rms(total) = 0.21095E-01    rms(broyden)= 0.21094E-01
  rms(prec ) = 0.21153E-01
  weight for this iteration     100.00

 eigenvalues of (default mixing * dielectric matrix)
  average eigenvalue GAMMA=   2.1017
  9.1411  4.1249  2.4320  2.4320  1.4847  1.0381  1.0381  0.7727  0.7377  0.7377
  0.6267  0.6548

 Free energy of the ion-electron system (eV)
  ---------------------------------------------------
  alpha Z        PSCENC =         0.13892279
  Ewald energy   TEWEN  =      4456.90247422
  -Hartree energ DENC   =     -5827.28132501
  -exchange      EXHF   =         0.00000000
  -V(xc)+E(xc)   XCENC  =       184.78842759
  PAW double counting   =      4117.03802715    -4137.77906083
  entropy T*S    EENTRO =        -0.00000000
  eigenvalues    EBANDS =      -592.40528520
  atomic energy  EATOM  =      1684.46238724
  Solvation  Ecorr_sol  =         4.85740140
  ---------------------------------------------------
  free energy    TOTEN  =      -109.27803065 eV

  energy without entropy =     -109.27803065  energy(sigma->0) =     -109.27803065


--------------------------------------------------------------------------------------------------------




--------------------------------------- Iteration      1(  14)  ---------------------------------------


    --------------------------------------------
      INIT:  cpu time      0.2562: real time      0.2567
  FINALIZE:  cpu time     28.7596: real time     28.7921
    --------------------------------------------
    POTLOK:  cpu time     38.7857: real time     38.8406
    SETDIJ:  cpu time      0.4105: real time      0.4112
    EDDIAG:  cpu time      9.5513: real time      9.5789
  RMM-DIIS:  cpu time     75.6605: real time     75.8209
    ORTHCH:  cpu time      0.1187: real time      0.1191
       DOS:  cpu time      0.0037: real time      0.0037
    CHARGE:  cpu time     50.8337: real time     50.9980
    MIXING:  cpu time      0.2481: real time      0.2483
    --------------------------------------------
      LOOP:  cpu time    175.6121: real time    176.0207

 eigenvalue-minimisations  :   248
 total energy-change (2. order) : 0.5288838E+00  ( 0.2865294E-02)
 number of electron      43.9999995 magnetization       3.5404149
 augmentation part        1.5013486 magnetization       3.5338629

 Broyden mixing:
  rms(total) = 0.17089E-01    rms(broyden)= 0.17088E-01
  rms(prec ) = 0.17116E-01
  weight for this iteration     100.00

 eigenvalues of (default mixing * dielectric matrix)
  average eigenvalue GAMMA=   2.1480
  9.8298  4.9912  2.6486  2.2991  1.6479  1.1779  1.0347  0.7563  0.7563  0.7962
  0.7064  0.6304  0.6491

 Free energy of the ion-electron system (eV)
  ---------------------------------------------------
  alpha Z        PSCENC =         0.13892279
  Ewald energy   TEWEN  =      4456.90247422
  -Hartree energ DENC   =     -5826.29198577
  -exchange      EXHF   =         0.00000000
  -V(xc)+E(xc)   XCENC  =       185.27838186
  PAW double counting   =      4121.59637406    -4142.32860938
  entropy T*S    EENTRO =        -0.00000000
  eigenvalues    EBANDS =      -593.50038902
  atomic energy  EATOM  =      1684.46238724
  Solvation  Ecorr_sol  =         4.99329710
  ---------------------------------------------------
  free energy    TOTEN  =      -108.74914689 eV

  energy without entropy =     -108.74914689  energy(sigma->0) =     -108.74914689


--------------------------------------------------------------------------------------------------------




--------------------------------------- Iteration      1(  15)  ---------------------------------------


    --------------------------------------------
      INIT:  cpu time      0.2568: real time      0.2559
  FINALIZE:  cpu time     27.2667: real time     27.2570
    --------------------------------------------
    POTLOK:  cpu time     37.3131: real time     37.3261
    SETDIJ:  cpu time      0.4060: real time      0.4068
    EDDIAG:  cpu time      9.6015: real time      9.6217
  RMM-DIIS:  cpu time     75.5686: real time     75.7337
    ORTHCH:  cpu time      0.1055: real time      0.1059
       DOS:  cpu time      0.0034: real time      0.0034
    CHARGE:  cpu time     50.8394: real time     50.9822
    MIXING:  cpu time      0.2549: real time      0.2553
    --------------------------------------------
      LOOP:  cpu time    174.0926: real time    174.4352

 eigenvalue-minimisations  :   248
 total energy-change (2. order) : 0.2640657E+00  (-0.1284678E-02)
 number of electron      43.9999995 magnetization       2.7168831
 augmentation part        1.5011447 magnetization       2.7111590

 Broyden mixing:
  rms(total) = 0.15329E-01    rms(broyden)= 0.15329E-01
  rms(prec ) = 0.15350E-01
  weight for this iteration     100.00

 eigenvalues of (default mixing * dielectric matrix)
  average eigenvalue GAMMA=   2.1550
 10.2450  5.4087  2.6946  2.2969  1.9279  1.3779  0.9525  0.9525  0.9187  0.7244
  0.7244  0.6580  0.6441  0.6441

 Free energy of the ion-electron system (eV)
  ---------------------------------------------------
  alpha Z        PSCENC =         0.13892279
  Ewald energy   TEWEN  =      4456.90247422
  -Hartree energ DENC   =     -5825.88042861
  -exchange      EXHF   =         0.00000000
  -V(xc)+E(xc)   XCENC  =       185.53068244
  PAW double counting   =      4122.64347248    -4143.37572340
  entropy T*S    EENTRO =        -0.00000000
  eigenvalues    EBANDS =      -593.85466330
  atomic energy  EATOM  =      1684.46238724
  Solvation  Ecorr_sol  =         4.94779494
  ---------------------------------------------------
  free energy    TOTEN  =      -108.48508119 eV

  energy without entropy =     -108.48508119  energy(sigma->0) =     -108.48508119


--------------------------------------------------------------------------------------------------------




--------------------------------------- Iteration      1(  16)  ---------------------------------------


    --------------------------------------------
      INIT:  cpu time      0.2522: real time      0.2524
  FINALIZE:  cpu time     27.2392: real time     27.2795
    --------------------------------------------
    POTLOK:  cpu time     37.3082: real time     37.3703
    SETDIJ:  cpu time      0.4050: real time      0.4058
    EDDIAG:  cpu time      9.5928: real time      9.6134
  RMM-DIIS:  cpu time     75.5933: real time     75.7534
    ORTHCH:  cpu time      0.1021: real time      0.1024
       DOS:  cpu time      0.0036: real time      0.0036
    CHARGE:  cpu time     50.8489: real time     50.9978
    MIXING:  cpu time      0.2682: real time      0.2686
    --------------------------------------------
      LOOP:  cpu time    174.1220: real time    174.5153

 eigenvalue-minimisations  :   248
 total energy-change (2. order) : 0.4530214E+00  (-0.1152830E-02)
 number of electron      43.9999995 magnetization       1.8280989
 augmentation part        1.5009816 magnetization       1.8229626

 Broyden mixing:
  rms(total) = 0.12147E-01    rms(broyden)= 0.12146E-01
  rms(prec ) = 0.12165E-01
  weight for this iteration     100.00

 eigenvalues of (default mixing * dielectric matrix)
  average eigenvalue GAMMA=   2.2506
 10.8722  6.1890  3.1210  2.4361  2.4361  1.5349  1.0254  1.0254  0.8500  0.8500
  0.7576  0.7058  0.7058  0.6246  0.6246

 Free energy of the ion-electron system (eV)
  ---------------------------------------------------
  alpha Z        PSCENC =         0.13892279
  Ewald energy   TEWEN  =      4456.90247422
  -Hartree energ DENC   =     -5825.32221889
  -exchange      EXHF   =         0.00000000
  -V(xc)+E(xc)   XCENC  =       185.97030771
  PAW double counting   =      4123.52278444    -4144.25626369
  entropy T*S    EENTRO =        -0.00000000
  eigenvalues    EBANDS =      -594.22346659
  atomic energy  EATOM  =      1684.46238724
  Solvation  Ecorr_sol  =         4.77301301
  ---------------------------------------------------
  free energy    TOTEN  =      -108.03205976 eV

  energy without entropy =     -108.03205976  energy(sigma->0) =     -108.03205976


--------------------------------------------------------------------------------------------------------




--------------------------------------- Iteration      1(  17)  ---------------------------------------


    --------------------------------------------
      INIT:  cpu time      0.2528: real time      0.2531
  FINALIZE:  cpu time     27.3738: real time     27.4448
    --------------------------------------------
    POTLOK:  cpu time     37.4471: real time     37.5432
    SETDIJ:  cpu time      0.4052: real time      0.4060
    EDDIAG:  cpu time      9.5766: real time      9.6020
  RMM-DIIS:  cpu time     75.7461: real time     75.9118
    ORTHCH:  cpu time      0.1079: real time      0.1082
       DOS:  cpu time      0.0029: real time      0.0029
    CHARGE:  cpu time     51.0410: real time     51.1979
    MIXING:  cpu time      0.2771: real time      0.2774
    --------------------------------------------
      LOOP:  cpu time    174.6039: real time    175.0493

 eigenvalue-minimisations  :   248
 total energy-change (2. order) : 0.4570139E+00  ( 0.3500598E-03)
 number of electron      43.9999995 magnetization       1.0864470
 augmentation part        1.5008667 magnetization       1.0817540

 Broyden mixing:
  rms(total) = 0.93427E-02    rms(broyden)= 0.93422E-02
  rms(prec ) = 0.93723E-02
  weight for this iteration     100.00

 eigenvalues of (default mixing * dielectric matrix)
  average eigenvalue GAMMA=   2.3683
 11.9155  7.2144  3.9138  2.5713  2.3362  1.6578  1.3399  0.9360  0.9360  0.9524
  0.7548  0.7057  0.7057  0.7006  0.6266  0.6266

 Free energy of the ion-electron system (eV)
  ---------------------------------------------------
  alpha Z        PSCENC =         0.13892279
  Ewald energy   TEWEN  =      4456.90247422
  -Hartree energ DENC   =     -5824.88963043
  -exchange      EXHF   =         0.00000000
  -V(xc)+E(xc)   XCENC  =       186.41881587
  PAW double counting   =      4123.56340329    -4144.29848425
  entropy T*S    EENTRO =        -0.00000000
  eigenvalues    EBANDS =      -594.43926643
  atomic energy  EATOM  =      1684.46238724
  Solvation  Ecorr_sol  =         4.56633188
  ---------------------------------------------------
  free energy    TOTEN  =      -107.57504582 eV

  energy without entropy =     -107.57504582  energy(sigma->0) =     -107.57504582


--------------------------------------------------------------------------------------------------------




--------------------------------------- Iteration      1(  18)  ---------------------------------------


    --------------------------------------------
      INIT:  cpu time      0.2545: real time      0.2546
  FINALIZE:  cpu time     25.7165: real time     25.7533
    --------------------------------------------
    POTLOK:  cpu time     35.8273: real time     35.8842
    SETDIJ:  cpu time      0.4056: real time      0.4062
    EDDIAG:  cpu time      9.5909: real time      9.6131
  RMM-DIIS:  cpu time     75.5913: real time     75.7564
    ORTHCH:  cpu time      0.1073: real time      0.1076
       DOS:  cpu time      0.0032: real time      0.0032
    CHARGE:  cpu time     51.0146: real time     51.1446
    MIXING:  cpu time      0.2901: real time      0.2905
    --------------------------------------------
      LOOP:  cpu time    172.8302: real time    173.2058

 eigenvalue-minimisations  :   248
 total energy-change (2. order) : 0.3212174E+00  ( 0.3266955E-03)
 number of electron      43.9999995 magnetization       0.4723992
 augmentation part        1.5007357 magnetization       0.4678276

 Broyden mixing:
  rms(total) = 0.63400E-02    rms(broyden)= 0.63398E-02
  rms(prec ) = 0.63737E-02
  weight for this iteration     100.00

 eigenvalues of (default mixing * dielectric matrix)
  average eigenvalue GAMMA=   2.6000
 14.6495  8.4417  4.6291  2.4304  2.4304  2.1730  1.4975  1.0636  0.9492  0.9492
  0.9223  0.7150  0.7150  0.7343  0.6250  0.6250  0.6493

 Free energy of the ion-electron system (eV)
  ---------------------------------------------------
  alpha Z        PSCENC =         0.13892279
  Ewald energy   TEWEN  =      4456.90247422
  -Hartree energ DENC   =     -5824.65215135
  -exchange      EXHF   =         0.00000000
  -V(xc)+E(xc)   XCENC  =       186.73639376
  PAW double counting   =      4123.74472459    -4144.47871322
  entropy T*S    EENTRO =        -0.00000000
  eigenvalues    EBANDS =      -594.51672851
  atomic energy  EATOM  =      1684.46238724
  Solvation  Ecorr_sol  =         4.40886206
  ---------------------------------------------------
  free energy    TOTEN  =      -107.25382843 eV

[...]
 gamma     =   0.30993
 trial     =   0.48926
 opt step  =   0.29739  (harmonic =   0.29739) maximal distance =0.00046855
 next E    =  -106.936860   (d E  =  -0.00003)


--------------------------------------------------------------------------------------------------------


    WAVPRE:  cpu time      0.9707: real time      0.9845
    FEWALD:  cpu time      0.0018: real time      0.0018

 real space projection operators:
  total allocation   :       1680.38 KBytes
  max/ min on nodes  :        175.94        160.94

    ORTHCH:  cpu time      1.3601: real time      1.3621
     LOOP+:  cpu time    602.9919: real time    604.1922


--------------------------------------- Iteration      9(   1)  ---------------------------------------


    --------------------------------------------
      INIT:  cpu time      0.2475: real time      0.2477
  FINALIZE:  cpu time     39.7609: real time     39.8010
    --------------------------------------------
    POTLOK:  cpu time     49.8796: real time     49.9497
    SETDIJ:  cpu time      0.4057: real time      0.4065
     EDDAV:  cpu time     47.6085: real time     47.7075
       DOS:  cpu time      0.0002: real time      0.0002
    CHARGE:  cpu time     50.6573: real time     50.8538
    MIXING:  cpu time      0.2393: real time      0.2395
    --------------------------------------------
      LOOP:  cpu time    148.7906: real time    149.1572

 eigenvalue-minimisations  :   216
 total energy-change (2. order) :-0.2161154E-04  (-0.1295336E-03)
 number of electron      43.9999996 magnetization      -0.0005905
 augmentation part        1.5018570 magnetization      -0.0005851

 Broyden mixing:
  rms(total) = 0.87848E-03    rms(broyden)= 0.87536E-03
  rms(prec ) = 0.88529E-03
  weight for this iteration     100.00

 Free energy of the ion-electron system (eV)
  ---------------------------------------------------
  alpha Z        PSCENC =         0.13892279
  Ewald energy   TEWEN  =      4461.03929985
  -Hartree energ DENC   =     -5828.32435732
  -exchange      EXHF   =         0.00000000
  -V(xc)+E(xc)   XCENC  =       187.24741974
  PAW double counting   =      4140.60739216    -4161.34502420
  entropy T*S    EENTRO =        -0.00000000
  eigenvalues    EBANDS =      -595.02626589
  atomic energy  EATOM  =      1684.46238724
  Solvation  Ecorr_sol  =         4.38832994
  ---------------------------------------------------
  free energy    TOTEN  =      -106.81189568 eV

  energy without entropy =     -106.81189568  energy(sigma->0) =     -106.81189568


--------------------------------------------------------------------------------------------------------




--------------------------------------- Iteration      9(   2)  ---------------------------------------


    --------------------------------------------
      INIT:  cpu time      0.2513: real time      0.2520
  FINALIZE:  cpu time     28.9214: real time     28.9220
    --------------------------------------------
    POTLOK:  cpu time     39.1244: real time     39.1445
    SETDIJ:  cpu time      0.4060: real time      0.4068
    EDDIAG:  cpu time      9.5798: real time      9.5998
  RMM-DIIS:  cpu time     50.9149: real time     51.0233
    ORTHCH:  cpu time      0.1209: real time      0.1213
       DOS:  cpu time      0.0008: real time      0.0008
    --------------------------------------------
      LOOP:  cpu time    100.1467: real time    100.2964

 eigenvalue-minimisations  :   134
 total energy-change (2. order) :-0.3726014E-05  (-0.3479554E-05)
 number of electron      43.9999996 magnetization      -0.0005905
 augmentation part        1.5018570 magnetization      -0.0005851

 Free energy of the ion-electron system (eV)
  ---------------------------------------------------
  alpha Z        PSCENC =         0.13892279
  Ewald energy   TEWEN  =      4461.03929985
  -Hartree energ DENC   =     -5828.31590353
  -exchange      EXHF   =         0.00000000
  -V(xc)+E(xc)   XCENC  =       187.24701126
  PAW double counting   =      4140.60717683    -4161.34459665
  entropy T*S    EENTRO =        -0.00000000
  eigenvalues    EBANDS =      -595.03477008
  atomic energy  EATOM  =      1684.46238724
  Solvation  Ecorr_sol  =         4.38857287
  ---------------------------------------------------
  free energy    TOTEN  =      -106.81189941 eV

  energy without entropy =     -106.81189941  energy(sigma->0) =     -106.81189941


--------------------------------------------------------------------------------------------------------




 average (electrostatic) potential at core
  the test charge radii are     0.6991  0.7215  0.5201
  (the norm of the test charge is              1.0000)
       1 -61.1176       2 -60.9689       3 -60.8772       4 -61.0258       5 -61.2243
       6 -62.3152       7 -62.2950       8 -61.0355       9 -85.9179      10 -44.8453
      11 -45.2422      12 -44.4942      13 -44.3579      14 -44.4156      15 -44.6830
 
 
 
 E-fermi :  -5.4625     XC(G=0):  -0.0407     alpha+bet : -0.0163

 Fermi energy:        -5.4624879534

 spin component 1

 k-point     1 :       0.0000    0.0000    0.0000
  band No.  band energies     occupation 
      1     -29.3076      1.00000
      2     -22.5585      1.00000
      3     -20.9991      1.00000
      4     -19.6218      1.00000
      5     -19.0984      1.00000
      6     -16.4660      1.00000
      7     -15.5902      1.00000
      8     -15.1786      1.00000
      9     -13.4112      1.00000
     10     -12.7016      1.00000
     11     -12.3164      1.00000
     12     -11.7197      1.00000
     13     -11.2473      1.00000
     14     -10.7933      1.00000
     15     -10.3149      1.00000
     16      -9.7547      1.00000
     17      -9.1842      1.00000
     18      -9.1011      1.00000
     19      -8.4987      1.00000
     20      -7.6403      1.00000
     21      -6.2327      1.00000
     22      -5.7811      1.00000
     23      -1.4961      0.00000
     24      -0.6752      0.00000
     25      -0.0174      0.00000
     26       0.0420      0.00000
     27       0.0965      0.00000
     28       0.0982      0.00000
     29       0.0983      0.00000
     30       0.1008      0.00000
     31       0.1012      0.00000
     32       0.1503      0.00000
     33       0.1796      0.00000
     34       0.1846      0.00000
     35       0.1860      0.00000
     36       0.1940      0.00000
     37       0.1941      0.00000
     38       0.1946      0.00000
     39       0.1948      0.00000
     40       0.1953      0.00000
 Fermi energy:        -5.4624879534

 spin component 2

 k-point     1 :       0.0000    0.0000    0.0000
  band No.  band energies     occupation 
      1     -29.3076      1.00000
      2     -22.5585      1.00000
      3     -20.9991      1.00000
      4     -19.6218      1.00000
      5     -19.0984      1.00000
      6     -16.4660      1.00000
      7     -15.5902      1.00000
      8     -15.1786      1.00000
      9     -13.4112      1.00000
     10     -12.7016      1.00000
     11     -12.3164      1.00000
     12     -11.7197      1.00000
     13     -11.2473      1.00000
     14     -10.7933      1.00000
     15     -10.3149      1.00000
     16      -9.7547      1.00000
     17      -9.1842      1.00000
     18      -9.1011      1.00000
     19      -8.4987      1.00000
     20      -7.6403      1.00000
     21      -6.2327      1.00000
     22      -5.7810      1.00000
     23      -1.4961      0.00000
     24      -0.6752      0.00000
     25      -0.0290      0.00000
     26       0.0255      0.00000
     27       0.0743      0.00000
     28       0.0755      0.00000
     29       0.0769      0.00000
     30       0.0803      0.00000
     31       0.0822      0.00000
     32       0.1295      0.00000
     33       0.1614      0.00000
     34       0.1669      0.00000
     35       0.1685      0.00000
     36       0.1693      0.00000
     37       0.1709      0.00000
     38       0.1740      0.00000
     39       0.1756      0.00000
     40       0.1772      0.00000


--------------------------------------------------------------------------------------------------------


 soft charge-density along one line, spin component           1
         0         1         2         3         4         5         6         7         8         9
 total charge-density along one line
 
 soft charge-density along one line, spin component           2
         0         1         2         3         4         5         6         7         8         9
 total charge-density along one line
 
 pseudopotential strength for first ion, spin component:           1
 10.463  13.912  -0.000   0.000  -0.003  -0.004  -0.000   0.007
 13.912  18.499  -0.000   0.000  -0.004  -0.005  -0.000   0.010
 -0.000  -0.000  -4.377  -0.000  -0.001   8.489   0.000   0.001
  0.000   0.000  -0.000  -4.322   0.000   0.000   8.405  -0.000
 -0.003  -0.004  -0.001   0.000  -4.380   0.001  -0.000   8.495
 -0.004  -0.005   8.489   0.000   0.001 -18.735  -0.000  -0.002
 -0.000  -0.000   0.000   8.405  -0.000  -0.000 -18.621   0.000
  0.007   0.010   0.001  -0.000   8.495  -0.002   0.000 -18.742
 pseudopotential strength for first ion, spin component:           2
 10.463  13.912  -0.000   0.000  -0.003  -0.004  -0.000   0.007
 13.912  18.499  -0.000   0.000  -0.004  -0.005  -0.000   0.010
 -0.000  -0.000  -4.377  -0.000  -0.001   8.489   0.000   0.001
  0.000   0.000  -0.000  -4.322   0.000   0.000   8.405  -0.000
 -0.003  -0.004  -0.001   0.000  -4.380   0.001  -0.000   8.495
 -0.004  -0.005   8.489   0.000   0.001 -18.735  -0.000  -0.002
 -0.000  -0.000   0.000   8.405  -0.000  -0.000 -18.621   0.000
  0.007   0.010   0.001  -0.000   8.495  -0.002   0.000 -18.742
 total augmentation occupancy for first ion, spin component:           1
  9.000  -4.091   0.334   0.000  -0.049   0.066   0.000  -0.009
 -4.091   1.899  -0.224   0.000   0.049  -0.040   0.000   0.006
  0.334  -0.224   1.810   0.000   0.007   0.172   0.000  -0.002
  0.000   0.000   0.000   1.214   0.000   0.000   0.079   0.000
 -0.049   0.049   0.007   0.000   1.879  -0.002   0.000   0.187
  0.066  -0.040   0.172   0.000  -0.002   0.017   0.000  -0.000
  0.000   0.000   0.000   0.079   0.000   0.000   0.005   0.000
 -0.009   0.006  -0.002   0.000   0.187  -0.000   0.000   0.020
 total augmentation occupancy for first ion, spin component:           2
  0.000  -0.000  -0.000   0.000  -0.000  -0.000   0.000  -0.000
 -0.000   0.000   0.000   0.000   0.000   0.000   0.000   0.000
 -0.000   0.000   0.000   0.000   0.000  -0.000   0.000  -0.000
  0.000   0.000   0.000  -0.000   0.000   0.000  -0.000   0.000
 -0.000   0.000   0.000   0.000  -0.000  -0.000   0.000  -0.000
 -0.000   0.000  -0.000   0.000  -0.000  -0.000   0.000  -0.000
  0.000   0.000   0.000  -0.000   0.000   0.000  -0.000   0.000
 -0.000   0.000  -0.000   0.000  -0.000  -0.000   0.000  -0.000


------------------------ aborting loop because EDIFF is reached ----------------------------------------


    CHARGE:  cpu time      5.9701: real time      5.9829
    FORLOC:  cpu time      0.3171: real time      0.3168
    FORNL :  cpu time      3.9439: real time      3.9528
    STRESS:  cpu time    141.7548: real time    142.1035
    FORCOR:  cpu time      7.7753: real time      7.7892
    FORHAR:  cpu time      0.8324: real time      0.8322
    MIXING:  cpu time      0.1019: real time      0.1020
    OFIELD:  cpu time      0.0000: real time      0.0000

 ---------------------------------------------------------------------------------------------

         DFTD3 V3.0 Rev 1        
 Edisp (eV)   -0.12496

 E6    (eV) :    -0.0970
 E8    (eV) :    -0.0279
 % E8        : 22.36
    FORVDW:  cpu time      0.0053: real time      0.0054

  FORCE on cell =-STRESS in cart. coord.  units (eV):
  Direction    XX          YY          ZZ          XY          YZ          ZX
  --------------------------------------------------------------------------------------
  Alpha Z     0.13892     0.13892     0.13892
  Ewald    2794.82978  1997.69634  -331.48755   -27.27213    -0.00037    -0.00392
  Hartree  2844.89751  2197.89377   781.28700   -11.72824    -0.00007    -0.00089
  E(xc)    -169.93404  -169.79142  -171.35669     0.10845     0.00000     0.00001
  Local   -6057.88327 -4626.71139  -977.83019    34.87938     0.00027     0.00378
  n-local   -62.92673   -65.85996   -62.04487    -0.77135     0.00001     0.00001
  augment     2.95868     4.01746     5.16948     0.37634    -0.00000     0.00001
  Kinetic   647.77318   662.49915   755.98213     4.42833     0.00001     0.00033
  Fock        0.00000     0.00000     0.00000     0.00000     0.00000     0.00000
  vdW         0.01854     0.00586    -0.00000    -0.00381     0.00000     0.00000
  -------------------------------------------------------------------------------------
  Total      -0.12743    -0.11127    -0.14177     0.01697     0.00000     0.00000
  in kB      -0.00319    -0.00279    -0.00355     0.00042     0.00000     0.00000
  external pressure =       -0.00 kB  Pullay stress =        0.00 kB


 VOLUME and BASIS-vectors are now :
 -----------------------------------------------------------------------------
  energy-cutoff  :      500.00
  volume of cell :    64000.00
      direct lattice vectors                 reciprocal lattice vectors
    40.000000000  0.000000000  0.000000000     0.025000000  0.000000000  0.000000000
     0.000000000 40.000000000  0.000000000     0.000000000  0.025000000  0.000000000
     0.000000000  0.000000000 40.000000000     0.000000000  0.000000000  0.025000000

  length of vectors
    40.000000000 40.000000000 40.000000000     0.025000000  0.025000000  0.025000000


 FORCES acting on ions
    electron-ion (+dipol)            ewald-force                    non-local-force                 convergence-correction
 -----------------------------------------------------------------------------------------------
   -.661E+02 0.210E+03 0.193E-04   0.675E+02 -.212E+03 -.257E-04   -.145E+01 0.185E+01 0.000E+00   0.957E-03 0.448E-02 0.417E-08
   -.195E+03 0.991E+02 0.113E-04   0.196E+03 -.992E+02 -.135E-04   -.116E+01 0.960E-01 0.000E+00   -.831E-02 0.125E-03 0.339E-08
   -.200E+03 -.864E+02 0.109E-04   0.201E+03 0.868E+02 -.129E-04   -.863E+00 -.413E+00 0.000E+00   -.716E-02 -.393E-02 0.334E-08
   -.667E+02 -.206E+03 0.170E-04   0.678E+02 0.207E+03 -.223E-04   -.106E+01 -.127E+01 0.000E+00   -.193E-02 -.561E-02 0.417E-08
   -.125E+00 -.141E+03 0.339E-04   0.910E+00 0.143E+03 -.639E-04   -.801E+00 -.179E+01 0.000E+00   0.626E-02 -.194E-02 0.328E-08
   -.403E+02 0.869E+02 0.367E-04   0.477E+02 -.841E+02 -.712E-04   -.726E+01 -.280E+01 0.000E+00   0.482E-02 -.145E-02 0.270E-08
   0.274E+03 -.337E+02 0.140E-03   -.279E+03 0.405E+02 -.184E-02   0.521E+01 -.675E+01 0.000E+00   -.360E-02 0.950E-03 -.600E-07
   0.125E+03 -.217E+03 0.630E-04   -.125E+03 0.220E+03 -.207E-03   0.470E+00 -.262E+01 0.000E+00   -.112E-03 0.346E-02 -.898E-08
   0.209E+03 0.324E+03 0.110E-03   -.225E+03 -.369E+03 -.387E-03   0.152E+02 0.456E+02 0.000E+00   0.136E-01 -.504E-02 -.221E-07
   0.403E+02 -.798E+02 0.139E-04   -.425E+02 0.855E+02 -.286E-04   0.225E+01 -.569E+01 0.000E+00   0.253E-03 0.207E-04 -.327E-09
   0.919E+02 0.821E+01 -.459E-02   -.982E+02 -.929E+01 0.269E-02   0.624E+01 0.107E+01 0.000E+00   0.489E-04 0.228E-03 -.455E-07
   -.144E+02 -.877E+02 0.340E-05   0.147E+02 0.937E+02 -.407E-05   -.330E+00 -.601E+01 0.000E+00   -.362E-03 -.521E-03 0.788E-09
   -.790E+02 -.382E+02 0.173E-05   0.844E+02 0.409E+02 -.192E-05   -.537E+01 -.271E+01 0.000E+00   -.193E-03 -.358E-04 0.541E-09
   -.760E+02 0.443E+02 0.182E-05   0.811E+02 -.475E+02 -.204E-05   -.513E+01 0.316E+01 0.000E+00   -.109E-02 0.118E-03 0.553E-09
   -.854E+01 0.898E+02 0.419E-05   0.823E+01 -.959E+02 -.506E-05   0.299E+00 0.604E+01 0.000E+00   -.112E-03 0.151E-02 0.785E-09
 -----------------------------------------------------------------------------------------------
   -.629E+01 -.277E+02 -.412E-02   0.250E-12 -.142E-13 0.140E-17   0.628E+01 0.277E+02 0.000E+00   0.305E-02 -.764E-02 -.113E-06
 
 
 POSITION                                       TOTAL-FORCE (eV/Angst)
 -----------------------------------------------------------------------------------
     20.69904     18.44294     20.00000         0.000530     -0.005126      0.000000
     21.91537     19.11861     20.00000         0.002764     -0.001689      0.000000
     21.97143     20.51987     20.00000        -0.001392      0.001313      0.000000
     20.81706     21.29078     20.00000         0.002041      0.004353      0.000000
     19.58102     20.63579     20.00000        -0.007826     -0.005202      0.000000
     19.56254     19.23105     20.00000         0.005683     -0.005103      0.000000
     17.47260     19.90080     20.00000         0.007402     -0.003405      0.000000
     18.20088     21.04071     20.00000         0.006888     -0.005322      0.000000
     18.26766     18.77630     20.00000         0.012999      0.005391      0.000000
     17.80588     22.04393     20.00000         0.005827      0.009124      0.000000
     16.41332     19.70681     20.00004        -0.009842     -0.002630      0.000000
     20.87329     22.37328     20.00000        -0.004684      0.005160      0.000000
     22.93921     21.00803     20.00000        -0.000399      0.001607      0.000000
     22.83790     18.54946     20.00000        -0.009171      0.002441      0.000000
     20.64276     17.36158     20.00000        -0.010819     -0.000914      0.000000
 -----------------------------------------------------------------------------------
    total drift:                               -0.007551     -0.007611     -0.004123


--------------------------------------------------------------------------------------------------------



  FREE ENERGIE OF THE ION-ELECTRON SYSTEM (eV)
  ---------------------------------------------------
  free  energy   TOTEN  =      -106.93686171 eV

  energy  without entropy=     -106.93686171  energy(sigma->0) =     -106.93686171
 
 d Force = 0.9778393E-05[-0.229E-05, 0.218E-04]  d Energy = 0.1559156E-04-0.581E-05
 d Force = 0.2042839E+00[ 0.204E+00, 0.204E+00]  d Ewald  = 0.2042839E+00 0.507E-09


--------------------------------------------------------------------------------------------------------


    --------------------------------------------
      INIT:  cpu time      0.2551: real time      0.2544
  FINALIZE:  cpu time     27.3383: real time     27.3333
    --------------------------------------------
    POTLOK:  cpu time     37.9760: real time     37.9879


--------------------------------------------------------------------------------------------------------




--------------------------------------------------------------------------------------------------------


  
 reached required accuracy - stopping structural energy minimisation
 writing wavefunctions
     LOOP+:  cpu time    456.0333: real time    457.6848
    4ORBIT:  cpu time      0.0000: real time      0.0000

 total amount of memory used by VASP MPI-rank0   886812. kBytes
=======================================================================

   base      :      30000. kBytes
   nonlr-proj:        941. kBytes
   fftplans  :     167689. kBytes
   grid      :     662171. kBytes
   one-center:         12. kBytes
   wavefun   :      25999. kBytes
 
  
  
 General timing and accounting informations for this job:
 ========================================================
  
                  Total CPU time used (sec):    22352.422
                            User time (sec):    19716.551
                          System time (sec):     2635.870
                         Elapsed time (sec):    22393.855
  
                   Maximum memory used (kb):     6607156.
                   Average memory used (kb):          N/A
  
                          Minor page faults:    500038143
                          Major page faults:            0
                 Voluntary context switches:       718763
