
                                 *****************
                                 * O   R   C   A *
                                 *****************

                                            #,                                       
                                            ###                                      
                                            ####                                     
                                            #####                                    
                                            ######                                   
                                           ########,                                 
                                     ,,################,,,,,                         
                               ,,#################################,,                 
                          ,,##########################################,,             
                       ,#########################################, ''#####,          
                    ,#############################################,,   '####,        
                  ,##################################################,,,,####,       
                ,###########''''           ''''###############################       
              ,#####''   ,,,,##########,,,,          '''####'''          '####       
            ,##' ,,,,###########################,,,                        '##       
           ' ,,###''''                  '''############,,,                           
         ,,##''                                '''############,,,,        ,,,,,,###''
      ,#''                                            '''#######################'''  
     '                                                          ''''####''''         
             ,#######,   #######,   ,#######,      ##                                
            ,#'     '#,  ##    ##  ,#'     '#,    #''#        ,####,   ,####,        
            ##       ##  ##   ,#'  ##            #'  '#       #'       #'  '#        
            ##       ##  #######   ##           ,######,      #####,   #    #        
            '#,     ,#'  ##    ##  '#,     ,#' ,#      #,     #,   #   #,  ,#        
             '#######'   ##     ##  '#######'  #'      '#     '####' # '####'        



                #########################################################
                #                        -***-                          #
                #          Department of theory and spectroscopy        #
                #                                                       #
                #                      Frank Neese                      #
                #                                                       #
                #     Directorship, Architecture, Infrastructure        #
                #                    SHARK, DRIVERS                     #
                #        Core code/Algorithms in most modules           #
                #                                                       #
                #        Max Planck Institute fuer Kohlenforschung      #
                #                Kaiser Wilhelm Platz 1                 #
                #                 D-45470 Muelheim/Ruhr                 #
                #                      Germany                          #
                #                                                       #
                #                  All rights reserved                  #
                #                        -***-                          #
                #########################################################


                         Program Version 6.0.0  -   RELEASE  -


 With contributions from (in alphabetic order):
   Daniel Aravena         : Magnetic Suceptibility
   Michael Atanasov       : Ab Initio Ligand Field Theory (pilot matlab implementation)
   Alexander A. Auer      : GIAO ZORA, VPT2 properties, NMR spectrum
   Ute Becker             : All parallelization in ORCA, NUMFREQ, NUMCALC
   Giovanni Bistoni       : ED, misc. LED, open-shell LED, HFLD
   Martin Brehm           : Molecular dynamics
   Dmytro Bykov           : pre 5.0 version of the SCF Hessian
   Marcos Casanova-Páez   : Triplet and SCS-CIS(D). UHF-(DLPNO)-IP/EA/STEOM-CCSD. UHF-CVS-IP/STEOM-CCSD
   Vijay G. Chilkuri      : MRCI spin determinant printing, contributions to CSF-ICE
   Pauline Colinet        : FMM embedding
   Dipayan Datta          : RHF DLPNO-CCSD density
   Achintya Kumar Dutta   : EOM-CC, STEOM-CC
   Nicolas Foglia         : Exact transition moments, OPA infrastructure, MCD improvements
   Dmitry Ganyushin       : Spin-Orbit,Spin-Spin,Magnetic field MRCI
   Miquel Garcia          : C-PCM and meta-GGA Hessian, CCSD/C-PCM, Gaussian charge scheme
   Tiago L. C. Gouveia    : GS-ROHF, GS-ROCIS
   Yang Guo               : DLPNO-NEVPT2, F12-NEVPT2, CIM, IAO-localization
   Andreas Hansen         : Spin unrestricted coupled pair/coupled cluster methods
   Ingolf Harden          : AUTO-CI MPn and infrastructure 
   Benjamin Helmich-Paris : MC-RPA, TRAH-(SCF,CASSCF), AVAS, COSX integrals, SCF dyn. polar.
   Lee Huntington         : MR-EOM, pCC
   Robert Izsak           : Overlap fitted RIJCOSX, COSX-SCS-MP3, EOM
   Riya Kayal             : Wick's Theorem for AUTO-CI, AUTO-CI UHF-CCSDT
   Emily Kempfer          : AUTO-CI, RHF CISDT and CCSDT
   Christian Kollmar      : KDIIS, OOCD, Brueckner-CCSD(T), CCSD density, CASPT2, CASPT2-K, improved NEVPT2
   Axel Koslowski         : Symmetry handling
   Simone Kossmann        : Meta GGA functionals, TD-DFT gradient, OOMP2, (MP2 Hessian; deprecated post 5.0)
   Lucas Lang             : DCDCAS
   Marvin Lechner         : AUTO-CI (C++ implementation), FIC-MRCC
   Spencer Leger          : CASSCF response
   Dagmar Lenk            : GEPOL surface, SMD, ORCA-2-JSON
   Dimitrios Liakos       : Extrapolation schemes; Compound Job, initial MDCI parallelization
   Dimitrios Manganas     : Further ROCIS development; embedding schemes. LFT, Crystal Embedding
   Dimitrios Pantazis     : SARC Basis sets
   Anastasios Papadopoulos: AUTO-CI, single reference methods and gradients
   Taras Petrenko         : pre 6.0 DFT Hessian and TD-DFT gradient, (ASA, deprecated), ECA, 1-Electron XAS/XES, NRVS
   Peter Pinski           : DLPNO-MP2, DLPNO-MP2 Gradient
   Christoph Reimann      : Effective Core Potentials
   Marius Retegan         : Local ZFS, SOC
   Christoph Riplinger    : Optimizer, TS searches, QM/MM, DLPNO-CCSD(T), (RO)-DLPNO pert. Triples
   Michael Roemelt        : Original ROCIS implementation
   Masaaki Saitow         : Open-shell DLPNO-CCSD energy and density
   Barbara Sandhoefer     : DKH picture change effects
   Kantharuban Sivalingam : CASSCF convergence/infrastructure, NEVPT2 and variants, FIC-MRCI
   Bernardo de Souza      : ESD, SOC TD-DFT
   Georgi Stoychev        : AutoAux, RI-MP2 NMR, DLPNO-MP2 response, X2C
   Van Anh Tran           : RI-MP2 g-tensors
   Willem Van den Heuvel  : Paramagnetic NMR
   Zikuan Wang            : NOTCH, Electric field optimization 
   Frank Wennmohs         : Technical directorship and infrastructure
   Hang Xu                : AUTO-CI-Response properties 


 We gratefully acknowledge several colleagues who have allowed us to
 interface, adapt or use parts of their codes:
   Stefan Grimme, W. Hujo, H. Kruse, P. Pracht,  : VdW corrections, initial TS optimization,
                  C. Bannwarth, S. Ehlert,         DFT functionals, gCP, sTDA/sTD-DF
                  L. Wittmann, M. Mueller
   Ed Valeev, F. Pavosevic, A. Kumar             : LibInt (2-el integral package), F12 methods
   Garnet Chan, S. Sharma, J. Yang, R. Olivares  : DMRG
   Ulf Ekstrom                                   : XCFun DFT Library
   Mihaly Kallay                                 : mrcc  (arbitrary order and MRCC methods)
   Frank Weinhold                                : gennbo (NPA and NBO analysis)
   Simon Mueller                                 : openCOSMO-RS
   Christopher J. Cramer and Donald G. Truhlar   : smd solvation model
   Lars Goerigk                                  : TD-DFT with DH, B97 family of functionals
   V. Asgeirsson, H. Jonsson                     : NEB implementation
   FAccTs GmbH                                   : IRC, NEB, NEB-TS, DLPNO-Multilevel, CI-OPT
                                                   MM, QMMM, 2- and 3-layer-ONIOM, Crystal-QMMM,
                                                   LR-CPCM, SF, NACMEs, symmetry and pop. for TD-DFT,
                                                   nearIR, NL-DFT gradient (VV10), updates on ESD,
                                                   ML-optimized integration grids, MBIS, APM,
                                                   GOAT, DOCKER, SOLVATOR, interface openCOSMO-RS
   S Lehtola, MJT Oliveira, MAL Marques          : LibXC Library
   Liviu Ungur et al                             : ANISO software


 Your calculation uses the libint2 library for the computation of 2-el integrals
 For citations please refer to: http://libint.valeyev.net

 Your ORCA version has been built with support for libXC version: 6.2.2
 For citations please refer to: https://libxc.gitlab.io

 This ORCA versions uses:
   CBLAS   interface :  Fast vector & matrix operations
   LAPACKE interface :  Fast linear algebra routines
   SCALAPACK package :  Parallel linear algebra routines
   Shared memory     :  Shared parallel matrices
   BLAS/LAPACK       :  OpenBLAS 0.3.27  USE64BITINT DYNAMIC_ARCH NO_AFFINITY Sandybridge SINGLE_THREADED
        Core in use  :  Sandybridge
   Copyright (c) 2011-2014, The OpenBLAS Project


NOTE: MaxCore=5000 MB was set to SCF,MP2,MDCI,CIPSI,MRCI and CIS
      => If you want to overwrite this, your respective input block should be placed after the MaxCore statement
Your calculation utilizes the atom-pairwise dispersion correction
with the Becke-Johnson damping scheme (D3BJ)


Your calculation utilizes the SMD solvation module
Please cite in your paper:
A.V. Marenich, C.J. Cramer, D.G. Truhlar J. Phys. Chem. B, 113, (2009), 6378 

Warning: RI is on but no J-basis has been assigned. Assigning Def2/J (nothing to worry about!)
================================================================================

----- Orbital basis set information -----
Your calculation utilizes the basis: aug-cc-pVTZ 
    H, B-Ne : Obtained from the ccRepo (grant-hill.group.shef.ac.uk/ccrepo) Feb. 2017
              R. A. Kendall, T. H. Dunning, Jr., R. J. Harrison, J. Chem. Phys. 96, 6796 (1992)
         He : Obtained from the ccRepo (grant-hill.group.shef.ac.uk/ccrepo) Feb. 2017
              D. E. Woon, T. H. Dunning, Jr., J. Chem. Phys. 100, 2975 (1994)
  Li-Be, Na : Obtained from the ccRepo (grant-hill.group.shef.ac.uk/ccrepo) Feb. 2017
              B. P. Prascher, D. E. Woon, K. A. Peterson, T. H. Dunning, Jr., A. K. Wilson, Theor. Chem. Acc. 128, 69 (2011)
         Mg : Obtained from the Peterson Research Group Website (tyr0.chem.wsu.edu/~kipeters) Feb. 2017
              B. P. Prascher, D. E. Woon, K. A. Peterson, T. H. Dunning, Jr., A. K. Wilson, Theor. Chem. Acc. 128, 69 (2011)
      Al-Ar : Obtained from the ccRepo (grant-hill.group.shef.ac.uk/ccrepo) Feb. 2017
              D. E. Woon, T. H. Dunning, Jr., J. Chem. Phys. 98, 1358 (1993)
      Sc-Zn : Obtained from the ccRepo (grant-hill.group.shef.ac.uk/ccrepo) Feb. 2017
              N. B. Balabanov, K. A. Peterson, J. Chem. Phys. 123, 064107 (2005)
              N. B. Balabanov, K. A. Peterson, J. Chem. Phys. 125, 074110 (2006)
      Ga-Kr : Obtained from the ccRepo (grant-hill.group.shef.ac.uk/ccrepo) Feb. 2017
              A. K. Wilson, D. E. Woon, K. A. Peterson, T. H. Dunning, Jr., J. Chem. Phys. 110, 7667 (1999)
     Ag, Au : Obtained from the Peterson Research Group Website (tyr0.chem.wsu.edu/~kipeters) Feb. 2017
              K. A. Peterson, C. Puzzarini, Theor. Chem. Acc. 114, 283 (2005)

----- AuxJ basis set information -----
Your calculation utilizes the auxiliary basis: def2/J
   F. Weigend, Phys. Chem. Chem. Phys. 8, 1057 (2006).

================================================================================
                                        WARNINGS
                       Please study these warnings very carefully!
================================================================================

Using LibXC functional ID 497 : Re-regularized SCAN exchange by Furness et al
[ 1]  J. W. Furness, A. D. Kaplan, J. Ning, J. P. Perdew, and J. Sun.,  J. Phys. Chem. Lett. 11, 8208-8215 (2020)
[ 2]  J. W. Furness, A. D. Kaplan, J. Ning, J. P. Perdew, and J. Sun.,  J. Phys. Chem. Lett. 11, 9248-9248 (2020)
Using LibXC functional ID 498 : Re-regularized SCAN correlation by Furness et al
[ 1]  J. W. Furness, A. D. Kaplan, J. Ning, J. P. Perdew, and J. Sun.,  J. Phys. Chem. Lett. 11, 8208-8215 (2020)
[ 2]  J. W. Furness, A. D. Kaplan, J. Ning, J. P. Perdew, and J. Sun.,  J. Phys. Chem. Lett. 11, 9248-9248 (2020)
Using LibXC functional ID 497 : Re-regularized SCAN exchange by Furness et al
[ 1]  J. W. Furness, A. D. Kaplan, J. Ning, J. P. Perdew, and J. Sun.,  J. Phys. Chem. Lett. 11, 8208-8215 (2020)
[ 2]  J. W. Furness, A. D. Kaplan, J. Ning, J. P. Perdew, and J. Sun.,  J. Phys. Chem. Lett. 11, 9248-9248 (2020)
Using LibXC functional ID 498 : Re-regularized SCAN correlation by Furness et al
[ 1]  J. W. Furness, A. D. Kaplan, J. Ning, J. P. Perdew, and J. Sun.,  J. Phys. Chem. Lett. 11, 8208-8215 (2020)
[ 2]  J. W. Furness, A. D. Kaplan, J. Ning, J. P. Perdew, and J. Sun.,  J. Phys. Chem. Lett. 11, 9248-9248 (2020)


WARNING: Found flag for RIJCOSX approximation but no HF exchange needed!
  ===> : RIJCOSX  will be disabled and Split-RI-J is turned on

WARNING: your system is open-shell and RHF/RKS was chosen
  ===> : WILL SWITCH to UHF/UKS


================================================================================
                                       INPUT FILE
================================================================================
NAME = cs_rporg_143_red_freq_06.inp
|  1> !r2SCAN freq aug-cc-pVTZ d3 TightSCF SlowConv RIJCOSX defgrid2
|  2> 
|  3> %pal
|  4> nprocs 12
|  5> end
|  6> 
|  7> %scf
|  8> MaxIter 1500
|  9> end
| 10> 
| 11> %maxcore 5000
| 12> 
| 13> !CPCM
| 14> %cpcm smd true
| 15> SMDsolvent "MeCN"
| 16> surfacetype gepol_ses
| 17> rsolv 2.19
| 18> end 
| 19> 
| 20> * xyz -1 2
| 21> C          -0.02209031189497      1.20103549471552     -0.00039342790321
| 22> C           1.36095182691816      1.22375361961308      0.00016349986117
| 23> C           2.05584477830694      0.01586524145800      0.00009246172658
| 24> C           1.40105242515963     -1.21247353600492     -0.00101627854856
| 25> C           0.01906104170465     -1.23461671136680     -0.00136609275864
| 26> C          -0.75771191726383     -0.02818259919930     -0.00045797248655
| 27> C          -2.18520264956955     -0.08953013054024      0.00168492626163
| 28> O          -2.82430017589905     -1.19652971287463      0.00576319011910
| 29> C          -2.97039795569546      1.20877730002224     -0.00076521330209
| 30> H          -2.75954956052127      1.83095928012921      0.87782029706777
| 31> H          -2.75416125966457      1.83110004839273     -0.87791871541015
| 32> H          -4.03550628365318      0.97528683200990     -0.00389266733316
| 33> H          -0.50994279576951     -2.18009034647918     -0.00207888810379
| 34> H           1.97902885602859     -2.13066477182254     -0.00161426707540
| 35> F           3.43261725654679      0.03967885258486      0.00124050388582
| 36> H           1.90628430710037      2.16117356249509      0.00087393905348
| 37> H          -0.55158578183376      2.14658737686699      0.00015560494601
| 38> *
| 39> 
| 40>                          ****END OF INPUT****
================================================================================

                       ****************************
                       * Single Point Calculation *
                       ****************************

---------------------------------
CARTESIAN COORDINATES (ANGSTROEM)
---------------------------------
  C     -0.022090    1.201035   -0.000393
  C      1.360952    1.223754    0.000163
  C      2.055845    0.015865    0.000092
  C      1.401052   -1.212474   -0.001016
  C      0.019061   -1.234617   -0.001366
  C     -0.757712   -0.028183   -0.000458
  C     -2.185203   -0.089530    0.001685
  O     -2.824300   -1.196530    0.005763
  C     -2.970398    1.208777   -0.000765
  H     -2.759550    1.830959    0.877820
  H     -2.754161    1.831100   -0.877919
  H     -4.035506    0.975287   -0.003893
  H     -0.509943   -2.180090   -0.002079
  H      1.979029   -2.130665   -0.001614
  F      3.432617    0.039679    0.001241
  H      1.906284    2.161174    0.000874
  H     -0.551586    2.146587    0.000156

----------------------------
CARTESIAN COORDINATES (A.U.)
----------------------------
  NO LB      ZA    FRAG     MASS         X           Y           Z
   0 C     6.0000    0    12.011   -0.041745    2.269628   -0.000743
   1 C     6.0000    0    12.011    2.571826    2.312559    0.000309
   2 C     6.0000    0    12.011    3.884984    0.029981    0.000175
   3 C     6.0000    0    12.011    2.647605   -2.291243   -0.001920
   4 C     6.0000    0    12.011    0.036020   -2.333087   -0.002582
   5 C     6.0000    0    12.011   -1.431868   -0.053257   -0.000865
   6 C     6.0000    0    12.011   -4.129435   -0.169187    0.003184
   7 O     8.0000    0    15.999   -5.337154   -2.261113    0.010891
   8 C     6.0000    0    12.011   -5.613239    2.284258   -0.001446
   9 H     1.0000    0     1.008   -5.214793    3.460012    1.658840
  10 H     1.0000    0     1.008   -5.204611    3.460278   -1.659026
  11 H     1.0000    0     1.008   -7.626002    1.843025   -0.007356
  12 H     1.0000    0     1.008   -0.963652   -4.119774   -0.003929
  13 H     1.0000    0     1.008    3.739823   -4.026373   -0.003051
  14 F     9.0000    0    18.998    6.486707    0.074982    0.002344
  15 H     1.0000    0     1.008    3.602355    4.084026    0.001652
  16 H     1.0000    0     1.008   -1.042346    4.056462    0.000294

--------------------------------
INTERNAL COORDINATES (ANGSTROEM)
--------------------------------
 C      0   0   0     0.000000000000     0.00000000     0.00000000
 C      1   0   0     1.383228824562     0.00000000     0.00000000
 C      2   1   0     1.393510155334   118.97056029     0.00000000
 C      3   2   1     1.391966381514   122.02755541     0.02401857
 C      4   3   2     1.382168812602   118.97875870   359.96619820
 C      1   2   3     1.432520950234   121.83934106     0.02739688
 C      6   1   2     1.428809960224   123.35904517   179.86986688
 O      7   6   1     1.278245029595   122.45979019   180.22165586
 C      7   6   1     1.517280414492   118.70381818     0.21220265
 H      9   7   6     1.097032342800   112.61535902   299.59433375
 H      9   7   6     1.097015122097   112.62519442    59.79984916
 H      9   7   6     1.090405121919   108.80039236   179.70926934
 H      5   4   3     1.083404801001   120.14549121   180.00896786
 H      4   3   2     1.084957260800   119.74990940   179.96460771
 F      3   2   1     1.376978889785   118.92068894   180.02820418
 H      2   1   3     1.084501806351   121.12925053   180.01380486
 H      1   2   3     1.083713115157   118.30711275   179.97071547

---------------------------
INTERNAL COORDINATES (A.U.)
---------------------------
 C      0   0   0     0.000000000000     0.00000000     0.00000000
 C      1   0   0     2.613923658969     0.00000000     0.00000000
 C      2   1   0     2.633352558419   118.97056029     0.00000000
 C      3   2   1     2.630435248686   122.02755541     0.02401857
 C      4   3   2     2.611920526664   118.97875870   359.96619820
 C      1   2   3     2.707072277047   121.83934106     0.02739688
 C      6   1   2     2.700059522242   123.35904517   179.86986688
 O      7   6   1     2.415533037981   122.45979019   180.22165586
 C      7   6   1     2.867244451752   118.70381818     0.21220265
 H      9   7   6     2.073090687946   112.61535902   299.59433375
 H      9   7   6     2.073058145534   112.62519442    59.79984916
 H      9   7   6     2.060567055451   108.80039236   179.70926934
 H      5   4   3     2.047338366068   120.14549121   180.00896786
 H      4   3   2     2.050272089921   119.74990940   179.96460771
 F      3   2   1     2.602112993885   118.92068894   180.02820418
 H      2   1   3     2.049411405746   121.12925053   180.01380486
 H      1   2   3     2.047920995385   118.30711275   179.97071547

---------------------
BASIS SET INFORMATION
---------------------
There are 4 groups of distinct atoms

 Group   1 Type C   : 19s6p3d2f contracted to 5s4p3d2f pattern {88111/3111/111/11}
 Group   2 Type O   : 19s6p3d2f contracted to 5s4p3d2f pattern {88111/3111/111/11}
 Group   3 Type H   : 6s3p2d contracted to 4s3p2d pattern {3111/111/11}
 Group   4 Type F   : 19s6p3d2f contracted to 5s4p3d2f pattern {88111/3111/111/11}

Atom   0C    basis set group =>   1
Atom   1C    basis set group =>   1
Atom   2C    basis set group =>   1
Atom   3C    basis set group =>   1
Atom   4C    basis set group =>   1
Atom   5C    basis set group =>   1
Atom   6C    basis set group =>   1
Atom   7O    basis set group =>   2
Atom   8C    basis set group =>   1
Atom   9H    basis set group =>   3
Atom  10H    basis set group =>   3
Atom  11H    basis set group =>   3
Atom  12H    basis set group =>   3
Atom  13H    basis set group =>   3
Atom  14F    basis set group =>   4
Atom  15H    basis set group =>   3
Atom  16H    basis set group =>   3
---------------------------------
AUXILIARY/J BASIS SET INFORMATION
---------------------------------
There are 4 groups of distinct atoms

 Group   1 Type C   : 12s5p4d2f1g contracted to 6s4p3d1f1g pattern {711111/2111/211/2/1}
 Group   2 Type O   : 12s5p4d2f1g contracted to 6s4p3d1f1g pattern {711111/2111/211/2/1}
 Group   3 Type H   : 5s2p1d contracted to 3s1p1d pattern {311/2/1}
 Group   4 Type F   : 12s5p4d2f1g contracted to 6s4p3d1f1g pattern {711111/2111/211/2/1}

Atom   0C    basis set group =>   1
Atom   1C    basis set group =>   1
Atom   2C    basis set group =>   1
Atom   3C    basis set group =>   1
Atom   4C    basis set group =>   1
Atom   5C    basis set group =>   1
Atom   6C    basis set group =>   1
Atom   7O    basis set group =>   2
Atom   8C    basis set group =>   1
Atom   9H    basis set group =>   3
Atom  10H    basis set group =>   3
Atom  11H    basis set group =>   3
Atom  12H    basis set group =>   3
Atom  13H    basis set group =>   3
Atom  14F    basis set group =>   4
Atom  15H    basis set group =>   3
Atom  16H    basis set group =>   3


           ************************************************************
           *        Program running with 12 parallel MPI-processes    *
           *              working on a common directory               *
           ************************************************************
------------------------------------------------------------------------------
                             ORCA STARTUP CALCULATIONS
                           -- RI-GTO INTEGRALS CHOSEN --
------------------------------------------------------------------------------
------------------------------------------------------------------------------
                   ___                                                        
                  /   \      - P O W E R E D   B Y -                         
                 /     \                                                     
                 |  |  |   _    _      __       _____    __    __             
                 |  |  |  | |  | |    /  \     |  _  \  |  |  /  |          
                  \  \/   | |  | |   /    \    | | | |  |  | /  /          
                 / \  \   | |__| |  /  /\  \   | |_| |  |  |/  /          
                |  |  |   |  __  | /  /__\  \  |    /   |      \           
                |  |  |   | |  | | |   __   |  |    \   |  |\   \          
                \     /   | |  | | |  |  |  |  | |\  \  |  | \   \       
                 \___/    |_|  |_| |__|  |__|  |_| \__\ |__|  \__/        
                                                                              
                      - O R C A' S   B I G   F R I E N D -                    
                                      &                                       
                       - I N T E G R A L  F E E D E R -                       
                                                                              
 v1 FN, 2020, v2 2021, v3 2022-2024                                           
------------------------------------------------------------------------------


----------------------
SHARK INTEGRAL PACKAGE
----------------------

Number of atoms                             ...     17
Number of basis functions                   ...    681
Number of shells                            ...    263
Maximum angular momentum                    ...      3
Integral batch strategy                     ... SHARK/LIBINT Hybrid
RI-J (if used) integral strategy            ... SPLIT-RIJ (Revised 2003 algorithm where possible)
Printlevel                                  ...      1
Contraction scheme used                     ... PARTIAL GENERAL contraction
Prescreening option                         ... SCHWARTZ
   Thresh                                   ... 2.500e-11
   Tcut                                     ... 2.500e-12
   Tpresel                                  ... 2.500e-12 
Coulomb Range Separation                    ... NOT USED
Exchange Range Separation                   ... NOT USED
Multipole approximations                    ... NOT USED
Finite Nucleus Model                        ... NOT USED
CABS basis                                  ... NOT available
Auxiliary Coulomb fitting basis             ... AVAILABLE
   # of basis functions in Aux-J            ...    567
   # of shells in Aux-J                     ...    185
   Maximum angular momentum in Aux-J        ...      4
Auxiliary J/K fitting basis                 ... NOT available
Auxiliary Correlation fitting basis         ... NOT available
Auxiliary 'external' fitting basis          ... NOT available

Checking pre-screening integrals            ... done (  0.1 sec) Dimension = 263
Save PGC pre-screening integrals            ... done (  0.2 sec) Dimension = 263
Calculate PGC overlap integrals             ... done (  0.2 sec) Dimension = 203
Calculating pre-screening integrals (ORCA)  ... done (  0.3 sec) Dimension = 203
Check shell pair data                       ... done (  0.1 sec)
Shell pair information
Shell pair cut-off parameter TPreSel        ...   2.5e-12
Total number of shell pairs                 ...     34716
Shell pairs after pre-screening             ...     28435
Total number of primitive shell pairs       ...     44304
Primitive shell pairs kept                  ...     33871
          la=0 lb=0:   6437 shell pairs
          la=1 lb=0:   7194 shell pairs
          la=1 lb=1:   1780 shell pairs
          la=2 lb=0:   5083 shell pairs
          la=2 lb=1:   2499 shell pairs
          la=2 lb=2:    909 shell pairs
          la=3 lb=0:   2362 shell pairs
          la=3 lb=1:   1149 shell pairs
          la=3 lb=2:    824 shell pairs
          la=3 lb=3:    198 shell pairs

Calculating one electron integrals          ... done (  0.1 sec)
Calculating RI/J V-Matrix + Cholesky decomp.... done (  0.1 sec)
Calculating Nuclear repulsion               ... done (  0.0 sec) ENN=    479.181582855796 Eh

Diagonalization of the overlap matrix:
Smallest eigenvalue                        ... 6.885e-07
Time for diagonalization                   ...    0.135 sec
Threshold for overlap eigenvalues          ... 1.000e-07
Number of eigenvalues below threshold      ... 0

IMPORTANT:
Smallest eigenvalue of S below the DiffSThresh (1.000e-06) while
Thresh>1e-12 and/or TCut>1e-13! In order to avoid SCF convergence issues,
Thresh will be set to at least 1e-12 and TCut to at least 1e-13.
This can be turned off by adding %SCF DiffSThresh -1 END to the input.

Time for construction of square roots      ...    0.089 sec
Total time needed                          ...    0.321 sec

-------------------
DFT GRID GENERATION
-------------------

General Integration Accuracy     IntAcc      ... 4.388
Radial Grid Type                 RadialGrid  ... OptM3 with GC (2021)
Angular Grid (max. ang.)         AngularGrid ... 4 (Lebedev-302)
Angular grid pruning method      GridPruning ... 4 (adaptive)
Weight generation scheme         WeightScheme... mBecke (2022)
Basis function cutoff            BFCut       ... 1.0000e-11
Integration weight cutoff        WCut        ... 1.0000e-14
Partially contracted basis set               ... off
Rotationally invariant grid construction     ... off
Angular grids for H and He will be reduced by one unit
Diffuse basis detected: some atoms will have their outermost
                        angular grid increased by 1.

Total number of grid points                  ...    86690
Total number of batches                      ...     1363
Average number of points per batch           ...       63
Average number of grid points per atom       ...     5099

---------------------
SHARK GRID GENERATION
---------------------

General Integration Accuracy     IntAcc      ... 4.388
Radial Grid Type                 RadialGrid  ... OptM3 with GC (2021)
Angular Grid (max. ang.)         AngularGrid ... 4 (Lebedev-302)
Angular grid pruning method      GridPruning ... 4 (adaptive)
Weight generation scheme         WeightScheme... mBecke (2022)
Basis function cutoff            BFCut       ... 1.0000e-11
Integration weight cutoff        WCut        ... 1.0000e-14
Partially contracted basis set               ... off
Rotationally invariant grid construction     ... off
Angular grids for H and He will be reduced by one unit
Diffuse basis detected: some atoms will have their outermost
                        angular grid increased by 1.
Steep s-basis detected: some atoms will have their radial
                        grid points doubled.

Total number of grid points                  ...   150025
Total number of batches                      ...     2353
Average number of points per batch           ...       63
Average number of grid points per atom       ...     8825
Initializing property integral containers    ... done (  0.3 sec)

SHARK setup successfully completed in   5.5 seconds

Maximum memory used throughout the entire STARTUP-calculation: 64.8 MB


           ************************************************************
           *        Program running with 12 parallel MPI-processes    *
           *              working on a common directory               *
           ************************************************************
-------------------------------------------------------------------------------
                                 ORCA GUESS
                   Start orbitals & Density for SCF / CASSCF
-------------------------------------------------------------------------------

------------
SCF SETTINGS
------------
Hamiltonian:
 Density Functional     Method          .... DFT(GTOs)
  Functional kind                       .... Exchange
  Functional name                       .... Re-regularized SCAN exchange by Furness et al
  Functional family                     .... MGGA
  Functional refs                              
    [ 0] J. W. Furness, A. D. Kaplan, J. Ning, J. P. Perdew, and J. Sun.,  J. Phys. Chem. Lett. 11, 8208-8215 (2020), doi: 10.1021/acs.jpclett.0c02405
    [ 1] J. W. Furness, A. D. Kaplan, J. Ning, J. P. Perdew, and J. Sun.,  J. Phys. Chem. Lett. 11, 9248-9248 (2020), doi: 10.1021/acs.jpclett.0c03077
  Functional external parameters        .... 6
    Parameter  0 _c1        =  6.670000e-01 : c1 parameter        
    Parameter  1 _c2        =  8.000000e-01 : c2 parameter        
    Parameter  2 _d         =  1.240000e+00 : d parameter         
    Parameter  3 _k1        =  6.500000e-02 : k1 parameter        
    Parameter  4 _eta       =  1.000000e-03 : eta parameter       
    Parameter  5 _dp2       =  3.610000e-01 : dp2 parameter       
  Functional kind                       .... Correlation
  Functional name                       .... Re-regularized SCAN correlation by Furness et al
  Functional family                     .... MGGA
  Functional refs                              
    [ 0] J. W. Furness, A. D. Kaplan, J. Ning, J. P. Perdew, and J. Sun.,  J. Phys. Chem. Lett. 11, 8208-8215 (2020), doi: 10.1021/acs.jpclett.0c02405
    [ 1] J. W. Furness, A. D. Kaplan, J. Ning, J. P. Perdew, and J. Sun.,  J. Phys. Chem. Lett. 11, 9248-9248 (2020), doi: 10.1021/acs.jpclett.0c03077
  Functional external parameters        .... 1
    Parameter  0 _eta       =  1.000000e-03 : Regularization parameter
 Gradients option       PostSCFGGA      .... off
   NL short-range parameter             .... 12.300000
 RI-approximation to the Coulomb term is turned on
   Number of AuxJ basis functions       .... 567


General Settings:
 Integral files         IntName         .... cs_rporg_143_red_freq_06
 Hartree-Fock type      HFTyp           .... UHF
 Total Charge           Charge          ....   -1
 Multiplicity           Mult            ....    2
 Number of Electrons    NEL             ....   73
 Basis Dimension        Dim             ....  621
 Nuclear Repulsion      ENuc            ....    479.1815828558 Eh

Convergence Acceleration:
 AO-DIIS                CNVDIIS         .... on
   Start iteration      DIISMaxIt       ....     0
   Startup error        DIISStart       ....  0.200000
   # of expansion vecs  DIISMaxEq       ....     5
   Bias factor          DIISBfac        ....   1.050
   Max. coefficient     DIISMaxC        ....  10.000
 MO-DIIS                CNVKDIIS        .... off
 Trust-Rad. Augm. Hess. CNVTRAH         .... auto
   Auto Start mean grad. ratio tolernc. ....  1.125000
   Auto Start start iteration           ....    50
   Auto Start num. interpolation iter.  ....    10
   Max. Number of Micro iterations      ....    24
   Max. Number of Macro iterations      .... Maxiter - #DIIS iter
   Number of Davidson start vectors     ....     2
   Converg. threshold    (grad. norm)   ....   1.000e-05
   Grad. Scal. Fac. for Micro threshold ....   0.100
   Minimum threshold for Micro iter.    ....   1.000e-02
   NR start threshold (gradient norm)   ....   1.000e-04
   Initial trust radius                 ....   0.400
   Minimum AH scaling param. (alpha)    ....   1.000
   Maximum AH scaling param. (alpha)    .... 1000.000
   Quad. conv. algorithm                .... NR
   White noise on init. David. guess    .... on
   Maximum white noise                  ....   0.010
   Pseudo random numbers                .... off
   Inactive MOs                         .... canonical
   Orbital update algorithm             .... Taylor
   Preconditioner                       .... Diag
   Full preconditioner red. dimension   ....   250
 SOSCF                  CNVSOSCF        .... on
   Start iteration      SOSCFMaxIt      ....   150
   Startup grad/error   SOSCFStart      ....  0.001000
   Hessian update       SOSCFHessUp     .... L-BFGS
 Level Shifting         CNVShift        .... on
   Level shift para.    LevelShift      ....    0.2500
   Turn off err/grad.   ShiftErr        ....    0.0000
 Zerner damping         CNVZerner       .... off
 Static damping         CNVDamp         .... on
   Fraction old density DampFac         ....    0.8500
   Max. Damping (<1)    DampMax         ....    0.9800
   Min. Damping (>=0)   DampMin         ....    0.0000
   Turn off err/grad.   DampErr         ....    0.0300

SCF Procedure:
 Maximum # iterations   MaxIter         ....  1500
 SCF integral mode      SCFMode         .... Direct
   Integral package                     .... SHARK and LIBINT hybrid scheme
 Reset frequency        DirectResetFreq ....    20
 Integral Threshold     Thresh          ....  1.000e-12 Eh
 Primitive CutOff       TCut            ....  1.000e-13 Eh

Convergence Tolerance:
 Convergence Check Mode ConvCheckMode   .... Total+1el-Energy
 Convergence forced     ConvForced      .... 0
 Energy Change          TolE            ....  1.000e-08 Eh
 1-El. energy change                    ....  1.000e-05 Eh
 Orbital Gradient       TolG            ....  1.000e-05
 Orbital Rotation angle TolX            ....  1.000e-05
 DIIS Error             TolErr          ....  5.000e-07

------------------------------
INITIAL GUESS: MODEL POTENTIAL
------------------------------
Loading Hartree-Fock densities                     ... done
Calculating cut-offs                               ... done
Initializing the effective Hamiltonian             ... done
Setting up the integral package (SHARK)            ... done
Starting the Coulomb interaction                   ... done (   0.7 sec)
Making the grid                                    ... done (   0.4 sec)
Mapping shells                                     ... done
Starting the XC term evaluation                    ... done (   0.3 sec)
  promolecular density results
     # of electrons  =     71.999166674
     EX              =    -61.068190730
     EC              =     -2.401622863
     EX+EC           =    -63.469813593
Transforming the Hamiltonian                       ... done (   0.1 sec)
Diagonalizing the Hamiltonian                      ... done (   0.1 sec)
Back transforming the eigenvectors                 ... done (   0.2 sec)
Now organizing SCF variables                       ... done
                      ------------------
                      INITIAL GUESS DONE (   2.8 sec)
                      ------------------
             **** ENERGY FILE WAS UPDATED (cs_rporg_143_red_freq_06.en.tmp) ****
Finished Guess after   5.4 sec
Maximum memory used throughout the entire GUESS-calculation: 44.5 MB


           ************************************************************
           *        Program running with 12 parallel MPI-processes    *
           *              working on a common directory               *
           ************************************************************

-------------------------------------------------------------------------------------------
                                      ORCA LEAN-SCF
                              memory conserving SCF solver
-------------------------------------------------------------------------------------------

--------------------
CPCM SOLVATION MODEL
--------------------
CPCM parameters:
  Epsilon                                         ...      35.6880
  Refrac                                          ...       1.3442
  Rsolv                                           ...       2.1900
  Surface type                                    ...    GEPOL SES
  Discretization scheme                           ... Constant num. charges
  Epsilon function type                           ...         CPCM
Solvent:                                          ... ACETONITRILE
SMD-CDS solvent descriptors:
  Soln                                            ...       1.3442
  Soln25                                          ...       1.3416
  Sola                                            ...       0.0700
  Solb                                            ...       0.3200
  Solg                                            ...      41.2500
  Solc                                            ...       0.0000
  Solh                                            ...       0.0000
Radii:
  Scheme                                          ... Element-dependent radii
  Radius for C  used is    3.4960 Bohr (=   1.8500 Ang.)
  Radius for O  used is    4.0969 Bohr (=   2.1680 Ang.)
  Radius for H  used is    2.2677 Bohr (=   1.2000 Ang.)
  Radius for F  used is    3.2692 Bohr (=   1.7300 Ang.)
Calculating surface                               ...        done! (  0.0s)
Cavity surface points                             ...          577
Cavity Volume                                     ...    1090.3932
Cavity Surface-area                               ...     617.7166
Calculating surface distance matrix               ...        done! (  0.0s)
Performing Cholesky decomposition & store         ...        done! (  0.0s)
Overall time for CPCM initialization              ...                 0.1s

----------------------------------------D-I-I-S--------------------------------------------
Iteration    Energy (Eh)           Delta-E    RMSDP     MaxDP     DIISErr   Damp  Time(sec)
-------------------------------------------------------------------------------------------
               ***  Starting incremental Fock matrix formation  ***
    1    -483.8379718548651454     0.00e+00  6.73e-04  6.20e-02  1.71e-01  0.850  11.5
Warning: op=0 Small HOMO/LUMO gap (  -0.006) - skipping pre-diagonalization
         Will do a full diagonalization
    2    -483.9246139991497557    -8.66e-02  8.60e-04  1.26e-01  1.17e-01  0.850  12.3
                               ***Turning on AO-DIIS***
    3    -483.9792329050625312    -5.46e-02  4.64e-04  4.13e-02  6.72e-02  0.850  11.2
    4    -484.0126004453184123    -3.34e-02  3.34e-04  1.96e-02  5.55e-02  0.850  11.0
    5    -484.0364783375571278    -2.39e-02  2.70e-04  1.38e-02  4.98e-02  0.850  11.6
    6    -484.0554246762833372    -1.89e-02  2.33e-04  1.14e-02  4.38e-02  0.850  10.9
    7    -484.0711259356248775    -1.57e-02  2.02e-04  9.79e-03  3.67e-02  0.850  10.9
    8    -484.0842104146116753    -1.31e-02  1.69e-04  8.71e-03  2.93e-02  0.850  10.9
    9    -484.0949633215815311    -1.08e-02  9.51e-04  5.06e-02  2.45e-02  0.000  10.6
   10    -484.1512216908533901    -5.63e-02  7.60e-05  5.15e-03  3.49e-03  0.000  10.5
   11    -484.1512401651614255    -1.85e-05  5.53e-05  6.74e-03  6.08e-03  0.000  10.9
                              *** Initializing SOSCF ***
---------------------------------------S-O-S-C-F--------------------------------------
Iteration    Energy (Eh)           Delta-E    RMSDP     MaxDP     MaxGrad    Time(sec)
--------------------------------------------------------------------------------------
   12    -484.1513964624838309    -1.56e-04  2.66e-05  2.38e-03  8.73e-04    11.7
               *** Restarting incremental Fock matrix formation ***
   13    -484.1514187490380436    -2.23e-05  3.14e-05  3.70e-03  7.17e-04    10.6
   14    -484.1514322447543464    -1.35e-05  5.55e-05  6.30e-03  5.98e-04     9.4
   15    -484.1514408504729090    -8.61e-06  2.63e-05  3.20e-03  2.90e-04    11.1
   16    -484.1514448432836843    -3.99e-06  1.57e-05  1.90e-03  1.71e-04    11.4
   17    -484.1514447363443878     1.07e-07  5.72e-06  6.18e-04  2.48e-04     9.3
   18    -484.1514455371623171    -8.01e-07  1.40e-06  9.15e-05  2.31e-05     9.2
   19    -484.1514455341135772     3.05e-09  9.91e-07  1.08e-04  1.81e-05     9.1
                 **** Energy Check signals convergence ****

               *****************************************************
               *                     SUCCESS                       *
               *           SCF CONVERGED AFTER  19 CYCLES          *
               *****************************************************


SMD CDS free energy correction energy :                -1.63727     Kcal/mol
Total Energy after SMD CDS correction =              -484.154054692 Eh
             **** ENERGY FILE WAS UPDATED (cs_rporg_143_red_freq_06.en.tmp) ****

----------------
TOTAL SCF ENERGY
----------------

Total Energy       :       -484.15405469212038 Eh          -13174.50161 eV

Components:
Nuclear Repulsion  :        479.18158285579625 Eh           13039.19377 eV
Electronic Energy  :       -963.24927867480142 Eh          -26211.34543 eV
One Electron Energy:      -1622.99535462880021 Eh          -44163.94885 eV
Two Electron Energy:        659.74607595399880 Eh           17952.60342 eV
CPCM Dielectric    :         -0.08374971510839 Eh              -2.27895 eV
SMD CDS (Gcds)     :         -0.00260915800679 Eh              -0.07100 eV

Virial components:
Potential Energy   :       -965.77818372177580 Eh          -26280.16044 eV
Kinetic Energy     :        481.62412902965542 Eh           13105.65883 eV
Virial Ratio       :          2.00525290472378

DFT components:
N(Alpha)           :       37.000019875820 electrons
N(Beta)            :       36.000041009796 electrons
N(Total)           :       73.000060885616 electrons
E(X)               :      -62.723793800878 Eh       
E(C)               :       -2.390011444569 Eh       
E(XC)              :      -65.113805245447 Eh       

CPCM Solvation Model Properties:
Surface-charge          :          0.95834125361026
Corrected charge        :          1.00000000000000
Outlying charge corr.   :          0.00012251064884 Eh               0.00333 eV
Free-energy (cav+disp)  :         -0.00260915800679 Eh              -0.07100 eV

---------------
SCF CONVERGENCE
---------------

  Last Energy change         ...   -3.0487e-09  Tolerance :   1.0000e-08
  Last MAX-Density change    ...    1.0805e-04  Tolerance :   1.0000e-07
  Last RMS-Density change    ...    9.9085e-07  Tolerance :   5.0000e-09
  Last DIIS Error            ...    8.7305e-04  Tolerance :   5.0000e-07
  Last Orbital Gradient      ...    1.8061e-05  Tolerance :   1.0000e-05
  Last Orbital Rotation      ...    7.4704e-05  Tolerance :   1.0000e-05


----------------------
UHF SPIN CONTAMINATION
----------------------

Warning: in a DFT calculation there is little theoretical justification to 
         calculate <S**2> as in Hartree-Fock theory. We will do it anyways
         but you should keep in mind that the values have only limited relevance

Expectation value of <S**2>     :     0.770391
Ideal value S*(S+1) for S=0.5   :     0.750000
Deviation                       :     0.020391

----------------
ORBITAL ENERGIES
----------------
                 SPIN UP ORBITALS
  NO   OCC          E(Eh)            E(eV) 
   0   1.0000     -24.484483      -666.2566 
   1   1.0000     -18.871586      -513.5220 
   2   1.0000     -10.088102      -274.5112 
   3   1.0000     -10.046805      -273.3875 
   4   1.0000     -10.022212      -272.7183 
   5   1.0000     -10.021831      -272.7079 
   6   1.0000     -10.019784      -272.6522 
   7   1.0000     -10.015011      -272.5223 
   8   1.0000     -10.006904      -272.3017 
   9   1.0000     -10.001482      -272.1542 
  10   1.0000      -1.161218       -31.5984 
  11   1.0000      -0.915410       -24.9096 
  12   1.0000      -0.801276       -21.8038 
  13   1.0000      -0.708480       -19.2787 
  14   1.0000      -0.699828       -19.0433 
  15   1.0000      -0.659186       -17.9374 
  16   1.0000      -0.576374       -15.6839 
  17   1.0000      -0.560652       -15.2561 
  18   1.0000      -0.494118       -13.4456 
  19   1.0000      -0.486369       -13.2348 
  20   1.0000      -0.429102       -11.6765 
  21   1.0000      -0.413170       -11.2429 
  22   1.0000      -0.406687       -11.0665 
  23   1.0000      -0.391866       -10.6632 
  24   1.0000      -0.375273       -10.2117 
  25   1.0000      -0.375082       -10.2065 
  26   1.0000      -0.354833        -9.6555 
  27   1.0000      -0.345883        -9.4119 
  28   1.0000      -0.321781        -8.7561 
  29   1.0000      -0.321462        -8.7474 
  30   1.0000      -0.308709        -8.4004 
  31   1.0000      -0.280218        -7.6251 
  32   1.0000      -0.279895        -7.6163 
  33   1.0000      -0.230808        -6.2806 
  34   1.0000      -0.208618        -5.6768 
  35   1.0000      -0.170759        -4.6466 
  36   1.0000      -0.076344        -2.0774 
  37   0.0000      -0.023810        -0.6479 
  38   0.0000       0.005443         0.1481 
  39   0.0000       0.020152         0.5484 
  40   0.0000       0.023436         0.6377 
  41   0.0000       0.029068         0.7910 
  42   0.0000       0.033913         0.9228 
  43   0.0000       0.036250         0.9864 
  44   0.0000       0.042601         1.1592 
  45   0.0000       0.046678         1.2702 
  46   0.0000       0.064936         1.7670 
  47   0.0000       0.065513         1.7827 

                 SPIN DOWN ORBITALS
  NO   OCC          E(Eh)            E(eV) 
   0   1.0000     -24.483432      -666.2281 
   1   1.0000     -18.865155      -513.3470 
   2   1.0000     -10.082800      -274.3669 
   3   1.0000     -10.041471      -273.2423 
   4   1.0000     -10.023978      -272.7663 
   5   1.0000     -10.023372      -272.7498 
   6   1.0000     -10.017033      -272.5773 
   7   1.0000     -10.011673      -272.4315 
   8   1.0000     -10.005978      -272.2765 
   9   1.0000     -10.001926      -272.1663 
  10   1.0000      -1.159248       -31.5447 
  11   1.0000      -0.904828       -24.6216 
  12   1.0000      -0.797603       -21.7039 
  13   1.0000      -0.702991       -19.1294 
  14   1.0000      -0.695664       -18.9300 
  15   1.0000      -0.656372       -17.8608 
  16   1.0000      -0.568131       -15.4596 
  17   1.0000      -0.558150       -15.1880 
  18   1.0000      -0.490895       -13.3579 
  19   1.0000      -0.482031       -13.1167 
  20   1.0000      -0.428111       -11.6495 
  21   1.0000      -0.403660       -10.9841 
  22   1.0000      -0.402511       -10.9529 
  23   1.0000      -0.390277       -10.6200 
  24   1.0000      -0.374762       -10.1978 
  25   1.0000      -0.364630        -9.9221 
  26   1.0000      -0.353020        -9.6062 
  27   1.0000      -0.344379        -9.3710 
  28   1.0000      -0.319206        -8.6860 
  29   1.0000      -0.313148        -8.5212 
  30   1.0000      -0.305909        -8.3242 
  31   1.0000      -0.278398        -7.5756 
  32   1.0000      -0.258771        -7.0415 
  33   1.0000      -0.223228        -6.0744 
  34   1.0000      -0.191040        -5.1985 
  35   1.0000      -0.165789        -4.5114 
  36   0.0000      -0.036876        -1.0034 
  37   0.0000      -0.017801        -0.4844 
  38   0.0000       0.008351         0.2272 
  39   0.0000       0.021749         0.5918 
  40   0.0000       0.026040         0.7086 
  41   0.0000       0.037357         1.0165 
  42   0.0000       0.038558         1.0492 
  43   0.0000       0.044096         1.1999 
  44   0.0000       0.048667         1.3243 
  45   0.0000       0.053117         1.4454 
  46   0.0000       0.067628         1.8402 
*Only the first 10 virtual orbitals were printed.

                    ********************************
                    * MULLIKEN POPULATION ANALYSIS *
                    ********************************

--------------------------------------------
MULLIKEN ATOMIC CHARGES AND SPIN POPULATIONS
--------------------------------------------
   0 C :   -0.423174    0.265383
   1 C :   -0.881034   -0.179934
   2 C :    0.595845    0.328252
   3 C :   -0.712479   -0.184572
   4 C :   -0.900842    0.286038
   5 C :    1.680729    0.004989
   6 C :    0.430258    0.289986
   7 O :   -1.100910    0.228589
   8 C :   -0.547947   -0.059501
   9 H :    0.197000    0.023529
  10 H :    0.197500    0.023275
  11 H :    0.133611   -0.008378
  12 H :    0.095735   -0.020651
  13 H :    0.407610   -0.002440
  14 F :   -0.552584    0.020066
  15 H :    0.396973   -0.003108
  16 H :   -0.016291   -0.011522
Sum of atomic charges         :   -1.0000000
Sum of atomic spin populations:    1.0000000

-----------------------------------------------------
MULLIKEN REDUCED ORBITAL CHARGES AND SPIN POPULATIONS
-----------------------------------------------------
CHARGE
  0 C s       :     3.902873  s :     3.902873
      pz      :     1.038405  p :     2.470046
      px      :     0.457559
      py      :     0.974082
      dz2     :    -0.028548  d :     0.066808
      dxz     :     0.011541
      dyz     :     0.026151
      dx2y2   :    -0.098583
      dxy     :     0.156247
      f0      :     0.001280  f :    -0.016554
      f+1     :    -0.000446
      f-1     :    -0.000528
      f+2     :    -0.000893
      f-2     :    -0.000825
      f+3     :     0.003259
      f-3     :    -0.018401

  1 C s       :     3.840895  s :     3.840895
      pz      :     1.000144  p :     2.862034
      px      :     1.033790
      py      :     0.828101
      dz2     :     0.019516  d :     0.197958
      dxz     :     0.046004
      dyz     :     0.017804
      dx2y2   :     0.082252
      dxy     :     0.032381
      f0      :     0.000148  f :    -0.019854
      f+1     :    -0.001196
      f-1     :     0.000588
      f+2     :     0.000695
      f-2     :    -0.002223
      f+3     :     0.001774
      f-3     :    -0.019640

  2 C s       :     3.240642  s :     3.240642
      pz      :     1.060269  p :     2.194134
      px      :     0.359182
      py      :     0.774683
      dz2     :    -0.026166  d :    -0.018262
      dxz     :     0.014965
      dyz     :     0.035933
      dx2y2   :    -0.009297
      dxy     :    -0.033697
      f0      :     0.001083  f :    -0.012358
      f+1     :    -0.001698
      f-1     :    -0.000472
      f+2     :     0.000677
      f-2     :     0.000222
      f+3     :    -0.002449
      f-3     :    -0.009722

  3 C s       :     3.698895  s :     3.698895
      pz      :     0.991924  p :     2.842768
      px      :     0.960023
      py      :     0.890822
      dz2     :     0.013108  d :     0.186594
      dxz     :     0.050842
      dyz     :     0.023739
      dx2y2   :     0.081831
      dxy     :     0.017073
      f0      :     0.000156  f :    -0.015778
      f+1     :    -0.000587
      f-1     :     0.000850
      f+2     :     0.000659
      f-2     :    -0.002147
      f+3     :     0.002068
      f-3     :    -0.016777

  4 C s       :     4.143581  s :     4.143581
      pz      :     1.021609  p :     2.735615
      px      :     0.696143
      py      :     1.017863
      dz2     :    -0.025383  d :     0.037974
      dxz     :     0.019041
      dyz     :     0.017707
      dx2y2   :    -0.060077
      dxy     :     0.086687
      f0      :     0.000913  f :    -0.016328
      f+1     :    -0.001386
      f-1     :    -0.000618
      f+2     :    -0.000465
      f-2     :    -0.000739
      f+3     :     0.003387
      f-3     :    -0.017420

  5 C s       :     2.697068  s :     2.697068
      pz      :     1.023229  p :     1.701463
      px      :     0.180697
      py      :     0.497537
      dz2     :    -0.015891  d :     0.037317
      dxz     :     0.047087
      dyz     :    -0.013201
      dx2y2   :    -0.008014
      dxy     :     0.027336
      f0      :    -0.000176  f :    -0.116577
      f+1     :    -0.005618
      f-1     :    -0.000779
      f+2     :     0.000616
      f-2     :    -0.007097
      f+3     :    -0.010167
      f-3     :    -0.093356

  6 C s       :     3.503344  s :     3.503344
      pz      :     0.812413  p :     1.981502
      px      :     0.628202
      py      :     0.540888
      dz2     :     0.008703  d :     0.123069
      dxz     :     0.030767
      dyz     :     0.033659
      dx2y2   :     0.068597
      dxy     :    -0.018656
      f0      :     0.000306  f :    -0.038174
      f+1     :    -0.000564
      f-1     :    -0.000278
      f+2     :     0.004028
      f-2     :     0.000347
      f+3     :    -0.007081
      f-3     :    -0.034931

  7 O s       :     4.141062  s :     4.141062
      pz      :     1.587405  p :     4.907660
      px      :     1.797095
      py      :     1.523159
      dz2     :     0.000622  d :     0.046808
      dxz     :     0.006777
      dyz     :     0.015242
      dx2y2   :     0.013419
      dxy     :     0.010749
      f0      :     0.000814  f :     0.005380
      f+1     :     0.000252
      f-1     :     0.000122
      f+2     :     0.000234
      f-2     :     0.000897
      f+3     :     0.000756
      f-3     :     0.002305

  8 C s       :     3.386863  s :     3.386863
      pz      :     1.100569  p :     3.074384
      px      :     0.997180
      py      :     0.976635
      dz2     :     0.006035  d :     0.081884
      dxz     :     0.009543
      dyz     :     0.044552
      dx2y2   :     0.016975
      dxy     :     0.004779
      f0      :     0.000829  f :     0.004816
      f+1     :    -0.000556
      f-1     :    -0.001079
      f+2     :     0.000900
      f-2     :     0.001614
      f+3     :     0.003770
      f-3     :    -0.000662

  9 H s       :     0.751931  s :     0.751931
      pz      :     0.008276  p :     0.043844
      px      :     0.011376
      py      :     0.024191
      dz2     :     0.002342  d :     0.007226
      dxz     :     0.001542
      dyz     :     0.000514
      dx2y2   :     0.002094
      dxy     :     0.000734

 10 H s       :     0.751541  s :     0.751541
      pz      :     0.008136  p :     0.043752
      px      :     0.011304
      py      :     0.024313
      dz2     :     0.002337  d :     0.007207
      dxz     :     0.001530
      dyz     :     0.000512
      dx2y2   :     0.002099
      dxy     :     0.000728

 11 H s       :     0.826509  s :     0.826509
      pz      :     0.017525  p :     0.032987
      px      :     0.007926
      py      :     0.007536
      dz2     :    -0.000042  d :     0.006893
      dxz     :     0.002446
      dyz     :     0.000765
      dx2y2   :     0.001542
      dxy     :     0.002182

 12 H s       :     0.888566  s :     0.888566
      pz      :     0.026763  p :     0.008986
      px      :    -0.030085
      py      :     0.012309
      dz2     :    -0.000414  d :     0.006713
      dxz     :     0.000870
      dyz     :     0.004127
      dx2y2   :     0.002741
      dxy     :    -0.000611

 13 H s       :     0.599525  s :     0.599525
      pz      :     0.019189  p :    -0.012710
      px      :    -0.014325
      py      :    -0.017573
      dz2     :    -0.000816  d :     0.005575
      dxz     :     0.000897
      dyz     :     0.004008
      dx2y2   :    -0.000048
      dxy     :     0.001533

 14 F s       :     4.069488  s :     4.069488
      pz      :     1.943097  p :     5.444808
      px      :     1.505879
      py      :     1.995832
      dz2     :     0.001772  d :     0.034691
      dxz     :     0.013562
      dyz     :     0.000082
      dx2y2   :     0.005341
      dxy     :     0.013934
      f0      :     0.000434  f :     0.003597
      f+1     :     0.000456
      f-1     :     0.000080
      f+2     :     0.000634
      f-2     :     0.000020
      f+3     :     0.000764
      f-3     :     0.001210

 15 H s       :     0.602503  s :     0.602503
      pz      :     0.020894  p :    -0.005255
      px      :    -0.012471
      py      :    -0.013678
      dz2     :    -0.000649  d :     0.005778
      dxz     :     0.000776
      dyz     :     0.004328
      dx2y2   :    -0.000619
      dxy     :     0.001942

 16 H s       :     0.990458  s :     0.990458
      pz      :     0.024236  p :     0.015419
      px      :    -0.022187
      py      :     0.013369
      dz2     :    -0.000225  d :     0.010414
      dxz     :     0.000133
      dyz     :     0.003987
      dx2y2   :     0.004995
      dxy     :     0.001524


SPIN
  0 C s       :     0.040024  s :     0.040024
      pz      :     0.164428  p :     0.210954
      px      :     0.040425
      py      :     0.006101
      dz2     :     0.000937  d :     0.016109
      dxz     :     0.001270
      dyz     :     0.004383
      dx2y2   :     0.010806
      dxy     :    -0.001286
      f0      :     0.000213  f :    -0.001705
      f+1     :     0.000010
      f-1     :    -0.000420
      f+2     :    -0.000820
      f-2     :    -0.000506
      f+3     :     0.000786
      f-3     :    -0.000967

  1 C s       :    -0.063569  s :    -0.063569
      pz      :    -0.089028  p :    -0.130190
      px      :    -0.028987
      py      :    -0.012175
      dz2     :    -0.000752  d :     0.014698
      dxz     :     0.008080
      dyz     :     0.003097
      dx2y2   :     0.000686
      dxy     :     0.003588
      f0      :     0.000248  f :    -0.000873
      f+1     :     0.000211
      f-1     :     0.000045
      f+2     :     0.000437
      f-2     :    -0.000975
      f+3     :     0.000024
      f-3     :    -0.000862

  2 C s       :     0.044172  s :     0.044172
      pz      :     0.250242  p :     0.288953
      px      :     0.004397
      py      :     0.034314
      dz2     :    -0.000761  d :    -0.002852
      dxz     :    -0.000222
      dyz     :    -0.001082
      dx2y2   :    -0.000056
      dxy     :    -0.000732
      f0      :     0.000344  f :    -0.002021
      f+1     :    -0.000476
      f-1     :    -0.000398
      f+2     :    -0.000588
      f-2     :     0.000285
      f+3     :     0.000171
      f-3     :    -0.001359

  3 C s       :    -0.057257  s :    -0.057257
      pz      :    -0.100483  p :    -0.147838
      px      :    -0.033430
      py      :    -0.013926
      dz2     :    -0.000329  d :     0.021577
      dxz     :     0.013121
      dyz     :     0.004800
      dx2y2   :     0.001349
      dxy     :     0.002635
      f0      :     0.000331  f :    -0.001054
      f+1     :     0.000213
      f-1     :     0.000059
      f+2     :     0.000177
      f-2     :    -0.000802
      f+3     :     0.000079
      f-3     :    -0.001110

  4 C s       :     0.057226  s :     0.057226
      pz      :     0.207138  p :     0.226569
      px      :     0.016707
      py      :     0.002724
      dz2     :    -0.000140  d :     0.004508
      dxz     :     0.001168
      dyz     :     0.002931
      dx2y2   :     0.001018
      dxy     :    -0.000469
      f0      :     0.000102  f :    -0.002265
      f+1     :    -0.000170
      f-1     :    -0.000462
      f+2     :    -0.000923
      f-2     :    -0.000464
      f+3     :     0.000858
      f-3     :    -0.001206

  5 C s       :    -0.033347  s :    -0.033347
      pz      :     0.030224  p :     0.023764
      px      :     0.002210
      py      :    -0.008670
      dz2     :    -0.001577  d :     0.020366
      dxz     :     0.020355
      dyz     :    -0.006754
      dx2y2   :     0.010967
      dxy     :    -0.002625
      f0      :     0.000154  f :    -0.005794
      f+1     :     0.000032
      f-1     :    -0.000300
      f+2     :    -0.000328
      f-2     :    -0.002638
      f+3     :    -0.000780
      f-3     :    -0.001934

  6 C s       :     0.026701  s :     0.026701
      pz      :     0.246355  p :     0.250965
      px      :     0.017617
      py      :    -0.013007
      dz2     :    -0.001303  d :     0.018587
      dxz     :     0.010318
      dyz     :     0.004415
      dx2y2   :     0.004589
      dxy     :     0.000567
      f0      :     0.000857  f :    -0.006268
      f+1     :    -0.000208
      f-1     :    -0.000337
      f+2     :    -0.000397
      f-2     :    -0.002344
      f+3     :    -0.000634
      f-3     :    -0.003204

  7 O s       :     0.016091  s :     0.016091
      pz      :     0.193185  p :     0.207522
      px      :     0.007704
      py      :     0.006633
      dz2     :     0.000101  d :     0.004969
      dxz     :     0.001288
      dyz     :     0.003543
      dx2y2   :     0.000170
      dxy     :    -0.000132
      f0      :     0.000000  f :     0.000006
      f+1     :     0.000001
      f-1     :    -0.000020
      f+2     :    -0.000021
      f-2     :     0.000075
      f+3     :    -0.000003
      f-3     :    -0.000026

  8 C s       :    -0.038838  s :    -0.038838
      pz      :    -0.014542  p :    -0.035009
      px      :    -0.008390
      py      :    -0.012078
      dz2     :     0.001912  d :     0.014807
      dxz     :    -0.002734
      dyz     :     0.018665
      dx2y2   :    -0.001734
      dxy     :    -0.001303
      f0      :     0.000242  f :    -0.000461
      f+1     :     0.000262
      f-1     :    -0.000373
      f+2     :    -0.000195
      f-2     :     0.000209
      f+3     :    -0.000280
      f-3     :    -0.000326

  9 H s       :     0.017667  s :     0.017667
      pz      :     0.001498  p :     0.005668
      px      :     0.000898
      py      :     0.003271
      dz2     :     0.000103  d :     0.000194
      dxz     :    -0.000028
      dyz     :    -0.000059
      dx2y2   :     0.000126
      dxy     :     0.000051

 10 H s       :     0.017559  s :     0.017559
      pz      :     0.001428  p :     0.005522
      px      :     0.000893
      py      :     0.003201
      dz2     :     0.000101  d :     0.000194
      dxz     :    -0.000028
      dyz     :    -0.000059
      dx2y2   :     0.000127
      dxy     :     0.000052

 11 H s       :    -0.007257  s :    -0.007257
      pz      :    -0.000606  p :    -0.001099
      px      :    -0.000284
      py      :    -0.000208
      dz2     :     0.000012  d :    -0.000022
      dxz     :    -0.000081
      dyz     :    -0.000091
      dx2y2   :     0.000068
      dxy     :     0.000069

 12 H s       :    -0.018888  s :    -0.018888
      pz      :     0.001979  p :    -0.001141
      px      :    -0.000359
      py      :    -0.002761
      dz2     :     0.000124  d :    -0.000622
      dxz     :    -0.000169
      dyz     :     0.000004
      dx2y2   :    -0.000237
      dxy     :    -0.000343

 13 H s       :     0.002198  s :     0.002198
      pz      :    -0.003641  p :    -0.003787
      px      :    -0.000440
      py      :     0.000294
      dz2     :    -0.000061  d :    -0.000851
      dxz     :    -0.000366
      dyz     :    -0.000511
      dx2y2   :    -0.000008
      dxy     :     0.000094

 14 F s       :     0.003259  s :     0.003259
      pz      :     0.015296  p :     0.015361
      px      :    -0.002297
      py      :     0.002363
      dz2     :     0.000154  d :     0.001353
      dxz     :     0.001539
      dyz     :    -0.000013
      dx2y2   :     0.000001
      dxy     :    -0.000328
      f0      :     0.000026  f :     0.000093
      f+1     :     0.000029
      f-1     :     0.000001
      f+2     :     0.000040
      f-2     :    -0.000004
      f+3     :     0.000010
      f-3     :    -0.000009

 15 H s       :     0.001129  s :     0.001129
      pz      :    -0.003112  p :    -0.003552
      px      :    -0.000596
      py      :     0.000156
      dz2     :    -0.000040  d :    -0.000685
      dxz     :    -0.000271
      dyz     :    -0.000468
      dx2y2   :     0.000010
      dxy     :     0.000084

 16 H s       :    -0.008503  s :    -0.008503
      pz      :    -0.001214  p :    -0.002177
      px      :    -0.001938
      py      :     0.000975
      dz2     :     0.000165  d :    -0.000842
      dxz     :    -0.000201
      dyz     :    -0.000198
      dx2y2   :    -0.000332
      dxy     :    -0.000276



                     *******************************
                     * LOEWDIN POPULATION ANALYSIS *
                     *******************************

-------------------------------------------
LOEWDIN ATOMIC CHARGES AND SPIN POPULATIONS
-------------------------------------------
   0 C :    0.151202    0.088285
   1 C :    0.140822    0.020672
   2 C :   -0.565461    0.129547
   3 C :    0.134742    0.020227
   4 C :    0.141051    0.100555
   5 C :   -0.211443    0.116621
   6 C :   -0.665970    0.196951
   7 O :    0.315279    0.199568
   8 C :    0.502638    0.038804
   9 H :   -0.186219    0.009926
  10 H :   -0.186515    0.009841
  11 H :   -0.208728   -0.000791
  12 H :   -0.222426    0.024150
  13 H :   -0.195293   -0.007284
  14 F :    0.462490    0.038807
  15 H :   -0.195286   -0.005951
  16 H :   -0.210883    0.020069

----------------------------------------------------
LOEWDIN REDUCED ORBITAL CHARGES AND SPIN POPULATIONS
----------------------------------------------------
CHARGE
  0 C s       :     2.480383  s :     2.480383
      pz      :     0.621916  p :     2.285273
      px      :     0.840374
      py      :     0.822982
      dz2     :     0.069735  d :     0.739779
      dxz     :     0.129929
      dyz     :     0.072433
      dx2y2   :     0.214622
      dxy     :     0.253060
      f0      :     0.021770  f :     0.343363
      f+1     :     0.028283
      f-1     :     0.021651
      f+2     :     0.046753
      f-2     :     0.029666
      f+3     :     0.062037
      f-3     :     0.133201

  1 C s       :     2.496796  s :     2.496796
      pz      :     0.636717  p :     2.317261
      px      :     0.848901
      py      :     0.831643
      dz2     :     0.067819  d :     0.704836
      dxz     :     0.122337
      dyz     :     0.075929
      dx2y2   :     0.186838
      dxy     :     0.251912
      f0      :     0.020442  f :     0.340286
      f+1     :     0.028621
      f-1     :     0.023448
      f+2     :     0.053739
      f-2     :     0.029414
      f+3     :     0.061657
      f-3     :     0.122965

  2 C s       :     2.495058  s :     2.495058
      pz      :     0.717797  p :     2.274592
      px      :     0.642078
      py      :     0.914717
      dz2     :     0.103575  d :     1.095065
      dxz     :     0.174839
      dyz     :     0.139059
      dx2y2   :     0.380493
      dxy     :     0.297099
      f0      :     0.048226  f :     0.700746
      f+1     :     0.058384
      f-1     :     0.035489
      f+2     :     0.101952
      f-2     :     0.058178
      f+3     :     0.131840
      f-3     :     0.266677

  3 C s       :     2.498523  s :     2.498523
      pz      :     0.632485  p :     2.317317
      px      :     0.852457
      py      :     0.832375
      dz2     :     0.068058  d :     0.709347
      dxz     :     0.120645
      dyz     :     0.078829
      dx2y2   :     0.184660
      dxy     :     0.257154
      f0      :     0.020150  f :     0.340071
      f+1     :     0.028210
      f-1     :     0.023761
      f+2     :     0.056681
      f-2     :     0.026578
      f+3     :     0.061183
      f-3     :     0.123508

  4 C s       :     2.485681  s :     2.485681
      pz      :     0.622741  p :     2.293649
      px      :     0.845633
      py      :     0.825275
      dz2     :     0.070273  d :     0.733815
      dxz     :     0.125635
      dyz     :     0.068258
      dx2y2   :     0.218746
      dxy     :     0.250905
      f0      :     0.022106  f :     0.345803
      f+1     :     0.029300
      f-1     :     0.021308
      f+2     :     0.044444
      f-2     :     0.031809
      f+3     :     0.062599
      f-3     :     0.134238

  5 C s       :     2.472862  s :     2.472862
      pz      :     0.658642  p :     2.317680
      px      :     0.841572
      py      :     0.817466
      dz2     :     0.089044  d :     0.930943
      dxz     :     0.161874
      dyz     :     0.112892
      dx2y2   :     0.295992
      dxy     :     0.271142
      f0      :     0.030247  f :     0.489958
      f+1     :     0.036509
      f-1     :     0.032237
      f+2     :     0.050236
      f-2     :     0.064748
      f+3     :     0.078131
      f-3     :     0.197849

  6 C s       :     2.491145  s :     2.491145
      pz      :     0.630131  p :     2.274502
      px      :     0.841348
      py      :     0.803023
      dz2     :     0.101441  d :     1.252172
      dxz     :     0.175945
      dyz     :     0.201753
      dx2y2   :     0.385825
      dxy     :     0.387208
      f0      :     0.045275  f :     0.648152
      f+1     :     0.037178
      f-1     :     0.040832
      f+2     :     0.073139
      f-2     :     0.074365
      f+3     :     0.123697
      f-3     :     0.253666

  7 O s       :     3.215095  s :     3.215095
      pz      :     1.291281  p :     4.158008
      px      :     1.454250
      py      :     1.412477
      dz2     :     0.024915  d :     0.238807
      dxz     :     0.021506
      dyz     :     0.043867
      dx2y2   :     0.080380
      dxy     :     0.068139
      f0      :     0.006927  f :     0.072811
      f+1     :     0.003662
      f-1     :     0.007046
      f+2     :     0.003108
      f-2     :     0.011548
      f+3     :     0.014290
      f-3     :     0.026230

  8 C s       :     2.461029  s :     2.461029
      pz      :     0.769105  p :     2.307431
      px      :     0.768263
      py      :     0.770063
      dz2     :     0.082660  d :     0.533102
      dxz     :     0.033066
      dyz     :     0.161551
      dx2y2   :     0.155317
      dxy     :     0.100508
      f0      :     0.015223  f :     0.195800
      f+1     :     0.015125
      f-1     :     0.030628
      f+2     :     0.018153
      f-2     :     0.029755
      f+3     :     0.030380
      f-3     :     0.056537

  9 H s       :     0.624230  s :     0.624230
      pz      :     0.130178  p :     0.332153
      px      :     0.096660
      py      :     0.105316
      dz2     :     0.078187  d :     0.229836
      dxz     :     0.041707
      dyz     :     0.046810
      dx2y2   :     0.031031
      dxy     :     0.032102

 10 H s       :     0.624128  s :     0.624128
      pz      :     0.130064  p :     0.332354
      px      :     0.096944
      py      :     0.105346
      dz2     :     0.078284  d :     0.230033
      dxz     :     0.041475
      dyz     :     0.046741
      dx2y2   :     0.031337
      dxy     :     0.032197

 11 H s       :     0.638389  s :     0.638389
      pz      :     0.093212  p :     0.332068
      px      :     0.141774
      py      :     0.097082
      dz2     :     0.016817  d :     0.238271
      dxz     :     0.071770
      dyz     :     0.016723
      dx2y2   :     0.052260
      dxy     :     0.080699

 12 H s       :     0.657365  s :     0.657365
      pz      :     0.093481  p :     0.335986
      px      :     0.116278
      py      :     0.126227
      dz2     :     0.026238  d :     0.229074
      dxz     :     0.021804
      dyz     :     0.044350
      dx2y2   :     0.078988
      dxy     :     0.057695

 13 H s       :     0.666416  s :     0.666416
      pz      :     0.087686  p :     0.307858
      px      :     0.096662
      py      :     0.123510
      dz2     :     0.022844  d :     0.221019
      dxz     :     0.022950
      dyz     :     0.045338
      dx2y2   :     0.076416
      dxy     :     0.053471

 14 F s       :     3.428132  s :     3.428132
      pz      :     1.701879  p :     4.919406
      px      :     1.515220
      py      :     1.702307
      dz2     :     0.014581  d :     0.162626
      dxz     :     0.055702
      dyz     :     0.001402
      dx2y2   :     0.036461
      dxy     :     0.054480
      f0      :     0.003220  f :     0.027346
      f+1     :     0.002694
      f-1     :     0.000600
      f+2     :     0.006332
      f-2     :     0.000314
      f+3     :     0.004816
      f-3     :     0.009371

 15 H s       :     0.665442  s :     0.665442
      pz      :     0.089219  p :     0.308692
      px      :     0.094056
      py      :     0.125416
      dz2     :     0.022882  d :     0.221152
      dxz     :     0.021258
      dyz     :     0.047368
      dx2y2   :     0.074392
      dxy     :     0.055253

 16 H s       :     0.644660  s :     0.644660
      pz      :     0.093532  p :     0.334193
      px      :     0.116019
      py      :     0.124642
      dz2     :     0.024771  d :     0.232030
      dxz     :     0.024055
      dyz     :     0.045234
      dx2y2   :     0.081695
      dxy     :     0.056274


SPIN
  0 C s       :     0.003033  s :     0.003033
      pz      :     0.074910  p :     0.077595
      px      :     0.001487
      py      :     0.001198
      dz2     :    -0.000765  d :     0.008524
      dxz     :    -0.000396
      dyz     :     0.011445
      dx2y2   :    -0.000960
      dxy     :    -0.000800
      f0      :     0.001184  f :    -0.000867
      f+1     :    -0.000096
      f-1     :    -0.000307
      f+2     :    -0.003598
      f-2     :     0.003005
      f+3     :    -0.000258
      f-3     :    -0.000798

  1 C s       :    -0.002178  s :    -0.002178
      pz      :    -0.035222  p :    -0.041366
      px      :    -0.003437
      py      :    -0.002707
      dz2     :     0.000464  d :     0.046836
      dxz     :     0.026026
      dyz     :     0.017858
      dx2y2   :     0.001073
      dxy     :     0.001416
      f0      :     0.002347  f :     0.017379
      f+1     :    -0.000020
      f-1     :    -0.000001
      f+2     :     0.009279
      f-2     :     0.004751
      f+3     :     0.000777
      f-3     :     0.000246

  2 C s       :     0.006636  s :     0.006636
      pz      :     0.134413  p :     0.139600
      px      :     0.001114
      py      :     0.004073
      dz2     :    -0.000540  d :    -0.015678
      dxz     :    -0.000882
      dyz     :    -0.012274
      dx2y2   :    -0.000948
      dxy     :    -0.001035
      f0      :     0.004447  f :    -0.001010
      f+1     :    -0.000190
      f-1     :    -0.000100
      f+2     :    -0.000731
      f-2     :    -0.003282
      f+3     :    -0.000356
      f-3     :    -0.000798

  3 C s       :    -0.002408  s :    -0.002408
      pz      :    -0.040692  p :    -0.047269
      px      :    -0.003607
      py      :    -0.002970
      dz2     :     0.000526  d :     0.051047
      dxz     :     0.029481
      dyz     :     0.018269
      dx2y2   :     0.001219
      dxy     :     0.001552
      f0      :     0.002481  f :     0.018857
      f+1     :    -0.000036
      f-1     :     0.000019
      f+2     :     0.011145
      f-2     :     0.004111
      f+3     :     0.000816
      f-3     :     0.000322

  4 C s       :     0.003667  s :     0.003667
      pz      :     0.091778  p :     0.095134
      px      :     0.001764
      py      :     0.001592
      dz2     :    -0.000961  d :     0.003695
      dxz     :    -0.004158
      dyz     :     0.010862
      dx2y2   :    -0.001059
      dxy     :    -0.000988
      f0      :     0.000801  f :    -0.001942
      f+1     :    -0.000107
      f-1     :    -0.000346
      f+2     :    -0.003563
      f-2     :     0.002428
      f+3     :    -0.000338
      f-3     :    -0.000817

  5 C s       :     0.000068  s :     0.000068
      pz      :     0.034825  p :     0.028967
      px      :    -0.004351
      py      :    -0.001508
      dz2     :    -0.000076  d :     0.058672
      dxz     :     0.048095
      dyz     :     0.007825
      dx2y2   :     0.002040
      dxy     :     0.000789
      f0      :     0.003570  f :     0.028914
      f+1     :    -0.000235
      f-1     :    -0.000130
      f+2     :     0.020186
      f-2     :     0.004143
      f+3     :     0.001048
      f-3     :     0.000333

  6 C s       :     0.005756  s :     0.005756
      pz      :     0.137753  p :     0.138145
      px      :     0.000070
      py      :     0.000322
      dz2     :    -0.000852  d :     0.032312
      dxz     :     0.020785
      dyz     :     0.013796
      dx2y2   :    -0.000610
      dxy     :    -0.000807
      f0      :     0.004262  f :     0.020738
      f+1     :    -0.000182
      f-1     :    -0.000210
      f+2     :     0.011351
      f-2     :     0.005525
      f+3     :     0.000495
      f-3     :    -0.000503

  7 O s       :     0.003476  s :     0.003476
      pz      :     0.147130  p :     0.150459
      px      :     0.002565
      py      :     0.000765
      dz2     :     0.000213  d :     0.036408
      dxz     :     0.010608
      dyz     :     0.024805
      dx2y2   :     0.000197
      dxy     :     0.000584
      f0      :     0.003100  f :     0.009225
      f+1     :     0.000000
      f-1     :    -0.000032
      f+2     :     0.000891
      f-2     :     0.005032
      f+3     :     0.000171
      f-3     :     0.000064

  8 C s       :    -0.001142  s :    -0.001142
      pz      :    -0.001913  p :    -0.008293
      px      :    -0.001982
      py      :    -0.004397
      dz2     :     0.000180  d :     0.031971
      dxz     :     0.006448
      dyz     :     0.024366
      dx2y2   :    -0.000214
      dxy     :     0.001191
[...]
     42      -0.019921   0.005852   0.000236  -0.000001  -0.000004   0.000453
     43       0.001404  -0.000876   0.000033   0.000001   0.000010   0.000084
     44      -0.000018  -0.000010   0.000001  -0.000033  -0.000001   0.000002
     45       0.342548  -0.235600   0.000326   0.000023   0.002826   0.012614
     46      -0.181973   0.224784   0.000595   0.000037   0.005215   0.024015
     47      -0.000617   0.000670  -0.000004   0.000195   0.000004   0.000021
     48       0.252980   0.276094   0.008908   0.000032   0.012098   0.014447
     49       0.056432   0.268568  -0.014916   0.000094  -0.019100  -0.026861
     50      -0.000119  -0.000646   0.000050  -0.000658   0.000019  -0.000015
                 48         49         50    
      0      -0.024879  -0.027317   0.021115
      1       0.047426   0.044095  -0.035778
      2       0.000024   0.000021  -0.000014
      3      -0.031093   0.023926  -0.017683
      4      -0.056466   0.040147  -0.029295
      5      -0.000046   0.000034  -0.000024
      6      -0.002140   0.000879  -0.003349
      7       0.000364  -0.004072  -0.000566
      8      -0.000002  -0.000001  -0.000004
      9       0.002155  -0.014367  -0.018524
     10      -0.001202   0.021024   0.027843
     11       0.000001   0.000010   0.000013
     12       0.001591   0.024175   0.030373
     13       0.002172   0.040298   0.052417
     14       0.000002   0.000032   0.000040
     15      -0.000865  -0.000391   0.002024
     16       0.000135  -0.001714   0.000306
     17       0.000000   0.000000   0.000001
     18      -0.000220   0.000051   0.000834
     19       0.000388   0.000937   0.000583
     20       0.000001   0.000000  -0.000003
     21       0.000149   0.000315  -0.000086
     22      -0.000019  -0.000213  -0.000459
     23      -0.000001  -0.000009  -0.000009
     24       0.001299   0.000878  -0.000211
     25       0.001193   0.000899  -0.000527
     26       0.000006   0.000012  -0.000006
     27      -0.003149  -0.002535   0.001848
     28      -0.006224  -0.005020   0.003646
     29      -0.010289  -0.008144   0.005928
     30      -0.003263  -0.002622   0.001902
     31      -0.006194  -0.004958   0.003553
     32       0.010227   0.008052  -0.005785
     33      -0.014094  -0.010736  -0.000616
     34      -0.004366  -0.003158   0.001267
     35      -0.000040  -0.000028   0.000001
     36      -0.018200  -0.261592  -0.335058
     37      -0.031011  -0.475063  -0.612512
     38      -0.000017  -0.000242  -0.000308
     39      -0.014905   0.146430   0.193318
     40       0.022967  -0.234674  -0.311664
     41       0.000019  -0.000142  -0.000188
     42       0.000309  -0.000167   0.000513
     43      -0.000026   0.000240   0.000026
     44       0.000000  -0.000002  -0.000002
     45       0.373717  -0.257971   0.189670
     46       0.659053  -0.450241   0.331972
     47       0.000533  -0.000374   0.000280
     48       0.316964   0.293829  -0.233083
     49      -0.562054  -0.515457   0.412002
     50      -0.000274  -0.000240   0.000195


-----------
IR SPECTRUM
-----------

 Mode   freq       eps      Int      T**2         TX        TY        TZ
       cm**-1   L/(mol*cm) km/mol    a.u.
----------------------------------------------------------------------------
  6:     92.22   0.000036    0.18  0.000123  ( 0.000144  0.000186 -0.011079)
  7:    102.00   0.001138    5.75  0.003482  (-0.000212  0.000480 -0.059006)
  8:    130.68   0.000470    2.37  0.001121  ( 0.000101  0.000146 -0.033483)
  9:    186.74   0.001473    7.44  0.002462  ( 0.048047 -0.012381 -0.000213)
 10:    250.66   0.000012    0.06  0.000015  ( 0.000259  0.000073  0.003884)
 11:    332.57   0.000254    1.29  0.000239  ( 0.002935 -0.015151 -0.000712)
 12:    349.39   0.002229   11.26  0.001991  (-0.000071 -0.000104  0.044617)
 13:    378.70   0.001144    5.78  0.000942  ( 0.024712  0.018214 -0.000017)
 14:    440.72   0.000240    1.21  0.000170  (-0.000003  0.000113  0.013039)
 15:    465.23   0.000264    1.33  0.000177  ( 0.012272 -0.005141  0.000029)
 16:    527.11   0.006626   33.48  0.003923  (-0.000171 -0.000116 -0.062631)
 17:    543.16   0.010246   51.78  0.005887  ( 0.070337 -0.030649  0.000295)
 18:    634.52   0.000106    0.54  0.000052  (-0.000978  0.007166 -0.000183)
 19:    672.87   0.003723   18.81  0.001726  ( 0.000309  0.000066  0.041549)
 20:    676.55   0.018531   93.65  0.008547  (-0.090876 -0.016999 -0.000080)
 21:    756.75   0.020322  102.70  0.008380  ( 0.000256 -0.000107 -0.091543)
 22:    773.73   0.006075   30.70  0.002450  (-0.000804 -0.000255 -0.049494)
 23:    793.04   0.033580  169.70  0.013214  (-0.114814 -0.005617  0.000114)
 24:    917.48   0.000368    1.86  0.000125  (-0.000334  0.000273 -0.011181)
 25:    936.83   0.003698   18.69  0.001232  ( 0.034858 -0.003376 -0.002329)
 26:    937.55   0.020036  101.26  0.006669  (-0.081286  0.007804 -0.000925)
 27:    988.52   0.009050   45.74  0.002857  ( 0.052874 -0.007829 -0.000306)
 28:    991.43   0.000306    1.55  0.000096  ( 0.001108 -0.000207  0.009753)
 29:   1058.93   0.001340    6.77  0.000395  ( 0.008195 -0.018105 -0.000055)
 30:   1089.49   0.014486   73.20  0.004149  ( 0.028188  0.057919 -0.000029)
 31:   1140.46   0.003458   17.48  0.000946  ( 0.030717  0.001638  0.000179)
 32:   1187.24   0.039856  201.41  0.010476  ( 0.102308  0.003012  0.000108)
 33:   1264.89   0.011027   55.72  0.002720  (-0.039857 -0.033643  0.000193)
 34:   1301.84   0.007984   40.35  0.001914  ( 0.023347  0.036996 -0.000119)
 35:   1341.57   0.013803   69.75  0.003211  (-0.029994  0.048073 -0.000094)
 36:   1351.57   0.010958   55.38  0.002530  (-0.013982 -0.048318 -0.000045)
 37:   1407.35   0.012966   65.52  0.002875  (-0.026504 -0.046610  0.000140)
 38:   1434.00   0.083232  420.62  0.018113  (-0.124428 -0.051286  0.000323)
 39:   1451.37   0.001909    9.65  0.000410  (-0.000866 -0.000208 -0.020239)
 40:   1480.96   0.056435  285.20  0.011892  ( 0.104502  0.031162 -0.000256)
 41:   1489.92   0.004373   22.10  0.000916  ( 0.029644  0.006088 -0.000072)
 42:   1522.91   0.063244  319.61  0.012959  (-0.097090 -0.059437  0.000391)
 43:   1606.03   0.005950   30.07  0.001156  (-0.022250 -0.025710 -0.000015)
 44:   2973.23   0.030936  156.34  0.003247  ( 0.039957 -0.040625 -0.000298)
 45:   3017.42   0.016665   84.22  0.001724  ( 0.000011 -0.000026  0.041515)
 46:   3099.66   0.008206   41.47  0.000826  (-0.025988 -0.012278 -0.000067)
 47:   3156.28   0.003856   19.48  0.000381  (-0.018576  0.006011 -0.000014)
 48:   3157.88   0.002880   14.55  0.000285  (-0.016864  0.000442 -0.000046)
 49:   3174.64   0.010044   50.76  0.000987  (-0.000905  0.031409  0.000000)
 50:   3176.83   0.000955    4.83  0.000094  (-0.009176  0.003099  0.000045)

* The epsilon (eps) is given for a Dirac delta lineshape.
** The dipole moment derivative (T) already includes vibrational overlap.

The first frequency considered to be a vibration is 6
The total number of vibrations considered is 45


--------------------------
THERMOCHEMISTRY AT 298.15K
--------------------------

Temperature         ...   298.15 K
Pressure            ...     1.00 atm
Total Mass          ...   138.14 AMU
Quasi RRHO          ...     True
Cut-Off Frequency   ...     1.00 cm^-1

Throughout the following assumptions are being made:
  (1) The electronic state is orbitally nondegenerate
      but the spin degeneracy is treated
  (2) There are no thermally accessible electronically excited states
  (3) Hindered rotations indicated by low frequency modes are not
      treated as such but are treated as vibrations and this may
      cause some error
  (4) All equations used are the standard statistical mechanics
      equations for an ideal gas
  (5) All vibrations are strictly harmonic

freq.      92.22  E(vib)   ...       0.47 
freq.     102.00  E(vib)   ...       0.46 
freq.     130.68  E(vib)   ...       0.43 
freq.     186.74  E(vib)   ...       0.37 
freq.     250.66  E(vib)   ...       0.30 
freq.     332.57  E(vib)   ...       0.24 
freq.     349.39  E(vib)   ...       0.23 
freq.     378.70  E(vib)   ...       0.21 
freq.     440.72  E(vib)   ...       0.17 
freq.     465.23  E(vib)   ...       0.16 
freq.     527.11  E(vib)   ...       0.13 
freq.     543.16  E(vib)   ...       0.12 
freq.     634.52  E(vib)   ...       0.09 
freq.     672.87  E(vib)   ...       0.08 
freq.     676.55  E(vib)   ...       0.08 
freq.     756.75  E(vib)   ...       0.06 
freq.     773.73  E(vib)   ...       0.05 
freq.     793.04  E(vib)   ...       0.05 
freq.     917.48  E(vib)   ...       0.03 
freq.     936.83  E(vib)   ...       0.03 
freq.     937.55  E(vib)   ...       0.03 
freq.     988.52  E(vib)   ...       0.02 
freq.     991.43  E(vib)   ...       0.02 
freq.    1058.93  E(vib)   ...       0.02 
freq.    1089.49  E(vib)   ...       0.02 
freq.    1140.46  E(vib)   ...       0.01 
freq.    1187.24  E(vib)   ...       0.01 
freq.    1264.89  E(vib)   ...       0.01 
freq.    1301.84  E(vib)   ...       0.01 
freq.    1341.57  E(vib)   ...       0.01 
freq.    1351.57  E(vib)   ...       0.01 
freq.    1407.35  E(vib)   ...       0.00 
freq.    1434.00  E(vib)   ...       0.00 
freq.    1451.37  E(vib)   ...       0.00 
freq.    1480.96  E(vib)   ...       0.00 
freq.    1489.92  E(vib)   ...       0.00 
freq.    1522.91  E(vib)   ...       0.00 
freq.    1606.03  E(vib)   ...       0.00 
freq.    2973.23  E(vib)   ...       0.00 
freq.    3017.42  E(vib)   ...       0.00 
freq.    3099.66  E(vib)   ...       0.00 
freq.    3156.28  E(vib)   ...       0.00 
freq.    3157.88  E(vib)   ...       0.00 
freq.    3174.64  E(vib)   ...       0.00 
freq.    3176.83  E(vib)   ...       0.00 

------------
INNER ENERGY
------------

The inner energy is: U= E(el) + E(ZPE) + E(vib) + E(rot) + E(trans)
    E(el)   - is the total energy from the electronic structure calculation
              = E(kin-el) + E(nuc-el) + E(el-el) + E(nuc-nuc)
    E(ZPE)  - the the zero temperature vibrational energy from the frequency calculation
    E(vib)  - the the finite temperature correction to E(ZPE) due to population
              of excited vibrational states
    E(rot)  - is the rotational thermal energy
    E(trans)- is the translational thermal energy

Summary of contributions to the inner energy U:
Electronic energy                ...   -484.15926113 Eh
Zero point energy                ...      0.12475910 Eh      78.29 kcal/mol
Thermal vibrational correction   ...      0.00626353 Eh       3.93 kcal/mol
Thermal rotational correction    ...      0.00141627 Eh       0.89 kcal/mol
Thermal translational correction ...      0.00141627 Eh       0.89 kcal/mol
-----------------------------------------------------------------------
Total thermal energy                   -484.02540595 Eh


Summary of corrections to the electronic energy:
(perhaps to be used in another calculation)
Total thermal correction                  0.00909607 Eh       5.71 kcal/mol
Non-thermal (ZPE) correction              0.12475910 Eh      78.29 kcal/mol
-----------------------------------------------------------------------
Total correction                          0.13385517 Eh      84.00 kcal/mol


--------
ENTHALPY
--------

The enthalpy is H = U + kB*T
                kB is Boltzmann's constant
Total thermal energy              ...   -484.02540595 Eh 
Thermal Enthalpy correction       ...      0.00094421 Eh       0.59 kcal/mol
-----------------------------------------------------------------------
Total Enthalpy                    ...   -484.02446174 Eh


Note: Only C1 symmetry has been detected, increase convergence thresholds 
      if your molecule has a higher symmetry. Symmetry factor of 1.0 is   
      used for the rotational entropy correction. 
 

Note: Rotational entropy computed according to Herzberg 
Infrared and Raman Spectra, Chapter V,1, Van Nostrand Reinhold, 1945 
Point Group:  C1, Symmetry Number:   1  
Rotational constants in cm-1:     0.120534     0.025551     0.021164 

Vibrational entropy computed according to the QRRHO of S. Grimme
Chem.Eur.J. 2012 18 9955 using a reference frequency of 100.0 cm-1


-------
ENTROPY
-------

The entropy contributions are T*S = T*(S(el)+S(vib)+S(rot)+S(trans))
     S(el)   - electronic entropy
     S(vib)  - vibrational entropy
     S(rot)  - rotational entropy
     S(trans)- translational entropy
The entropies will be listed as multiplied by the temperature to get
units of energy

Electronic entropy                ...      0.00065446 Eh      0.41 kcal/mol
Vibrational entropy               ...      0.01052402 Eh      6.60 kcal/mol
Rotational entropy                ...      0.01406098 Eh      8.82 kcal/mol
Translational entropy             ...      0.01932885 Eh     12.13 kcal/mol
-----------------------------------------------------------------------
Final entropy term                ...      0.04456831 Eh     27.97 kcal/mol

In case the symmetry of your molecule has not been determined correctly
or in case you have a reason to use a different symmetry number we print 
out the resulting rotational entropy values for sn=1,12:

 non-linear molecules -----------------------------------
|  sn= 1 | S(rot)=       0.01406098 Eh      8.82 kcal/mol|
|  sn= 2 | S(rot)=       0.01340653 Eh      8.41 kcal/mol|
|  sn= 3 | S(rot)=       0.01302370 Eh      8.17 kcal/mol|
|  sn= 4 | S(rot)=       0.01275207 Eh      8.00 kcal/mol|
|  sn= 5 | S(rot)=       0.01254138 Eh      7.87 kcal/mol|
|  sn= 6 | S(rot)=       0.01236924 Eh      7.76 kcal/mol|
|  sn= 7 | S(rot)=       0.01222369 Eh      7.67 kcal/mol|
|  sn= 8 | S(rot)=       0.01209761 Eh      7.59 kcal/mol|
|  sn= 9 | S(rot)=       0.01198641 Eh      7.52 kcal/mol|
|  sn=10 | S(rot)=       0.01188693 Eh      7.46 kcal/mol|
|  sn=11 | S(rot)=       0.01179694 Eh      7.40 kcal/mol|
|  sn=12 | S(rot)=       0.01171478 Eh      7.35 kcal/mol|
 linear molecules ---------------------------------------
|  Dinfh | S(rot)=       0.00896604 Eh      5.63 kcal/mol|
|  Cinfv | S(rot)=       0.00962050 Eh      6.04 kcal/mol|
 --------------------------------------------------------


-------------------
GIBBS FREE ENERGY
-------------------

The Gibbs free energy is G = H - T*S

Total enthalpy                    ...   -484.02446174 Eh 
Total entropy correction          ...     -0.04456831 Eh    -27.97 kcal/mol
-----------------------------------------------------------------------
Final Gibbs free energy         ...   -484.06903006 Eh

For completeness - the Gibbs free energy minus the electronic energy
G-E(el)                           ...      0.09023107 Eh     56.62 kcal/mol


Maximum memory used throughout the entire PROP-calculation: 124.1 MB

--------------------------------
SUGGESTED CITATIONS FOR THIS RUN
--------------------------------

Below you find a list of papers that are relevant to this ORCA run
We neither can nor want to force you to cite these papers, but we appreciate if you do
You receive ORCA, which is the product of decades of hard work by many enthusiastic individuals, for free
The only thing we kindly ask in return is that you cite our papers,
We deeply appreciate it, if you show your appreciation for ORCA by not just citing the generic ORCA reference.

Please note that relegating all ORCA citations to the supporting information does *not* help us.
SI sections are not indexed - citations you put there will not count into any citation statistics
But we need these citations in order to attract the funding resources that allow us to do what we are doing

Therefore, if you are a happy ORCA user, please consider citing a few of the papers listed below in the main body of your paper

In addition to the list printed below, the program has created the file cs_rporg_143_red_freq_06.bibtex that contains the list in bibtex format
You can import this file easily into all common literature databanks and citation aid programs


List of essential papers. We consider these as the minimum necessary citations

  1. Neese,F.
     Software update: the ORCA program system, version 5.0
     WIRES Comput. Molec. Sci., 2022 12(1)e1606
     doi.org/10.1002/wcms.1606

List of papers to cite with high priority. The work reported in these papers was absolutely
necessary for this run to complete.
Our perspective: the developers of density functionals and basis sets usually get cited in chemistry papers
Good! But without the algorithms to do something with them, the functionals or basis sets would not do anything.
Hence, in our opinion, the algorithm design and method developments papers are equally worthy of getting cited

  1. Neese,F.
     An improvement of the resolution of the identity approximation for the formation of the Coulomb matrix
     J. Comp. Chem., 2003 24(14)1740-1747
     doi.org/10.1002/jcc.10318
  2. Bykov,D.; Petrenko,T.; Izsak,R.; Kossmann,S.; Becker,U.; Valeev,E.; Neese,F.
     Efficient implementation of the analytic second derivatives of Hartree-Fock and hybrid DFT energies: a detailed analysis of different approximations
     Molec. Phys., 2015 113 1961-1977
     doi.org/10.1080/00268976.2015.1025114
  3. Garcia-Rates,M.; Neese,F.
     Efficient implementation of the analytical second derivatives of hartree-fock and hybrid DFT energies within the framework of the conductor-like polarizable continuum model
     J. Comput. Chem., 2019 40 1816-1828
     doi.org/10.1002/jcc.25833
  4. Garcia-Rates,M.; Neese,F.
     Effect of the Solute Cavity on the Solvation Energy and its Derivatives within the Framework of the Gaussian Charge Scheme
     J. Comput. Chem., 2020 41 922-939
     doi.org/10.1002/jcc.26139
  5. Neese,F.
     The SHARK Integral Generation and Digestion System
     J. Comp. Chem., 2022  1-16
     doi.org/10.1002/jcc.26942
  6. Lehtola,S.; Steigemann,C.; Oliveira,M.; Marques,M.
     Recent developments in Libxc - A comprehensive library of functionals for density functional theory
     Software X, 2018 7 
     doi.org/10.1016/j.softx.2017.11.002
  7. Grimme,S.; Antony,J.; Ehrlich,S.; Krieg,H.
     A consistent and accurate ab initio parametrization of density functional dispersion correction (DFT-D) for the 94 elements H-Pu
     J. Chem. Phys., 2010 132 154104-XXXX
     doi.org/10.1063/1.3382344
  8. Grimme,S.; Ehrlich,S.; Goerigk,L.
     Effect of the damping function in dispersion corrected density functional theory
     J. Comput. Chem., 2011 32(7)1456-1465
     doi.org/10.1002/jcc.21759

List of suggested additional citations. These are papers that are important in the 'surrounding' of 
of this run, or papers that preceded the highly important papers. If you like your results we are grateful for a citation.

  1. Neese,F.
     The ORCA program system
     WIRES Comput. Molec. Sci., 2012 2(1)73-78
     doi.org/10.1002/wcms.81
  2. Neese,F.
     Software update: the ORCA program system, version 4.0
     WIRES Comput. Molec. Sci., 2018 8(1)1-6
     doi.org/10.1002/wcms.1327
  3. Neese,F.; Wennmohs,F.; Becker,U.; Riplinger,C.
     The ORCA quantum chemistry program package
     J. Chem. Phys., 2020 152 Art. No. L224108
     doi.org/10.1063/5.0004608

List of optional additional citations

  1. Neese,F.
     Approximate second-order SCF convergence for spin unrestricted wavefunctions
     Chem. Phys. Lett., 2000 325(1-3)93-98
     doi.org/10.1016/s0009-2614(00)00662-x

Timings for individual modules:

Sum of individual times          ...     2268.016 sec (=  37.800 min)
Startup calculation              ...        7.198 sec (=   0.120 min)   0.3 %
SCF iterations                   ...      219.853 sec (=   3.664 min)   9.7 %
Property integrals               ...     1004.111 sec (=  16.735 min)  44.3 %
SCF Response                     ...      884.195 sec (=  14.737 min)  39.0 %
Property calculations            ...      152.659 sec (=   2.544 min)   6.7 %
                             ****ORCA TERMINATED NORMALLY****
TOTAL RUN TIME: 0 days 0 hours 37 minutes 52 seconds 116 msec
