
                                 *****************
                                 * O   R   C   A *
                                 *****************

                                            #,                                       
                                            ###                                      
                                            ####                                     
                                            #####                                    
                                            ######                                   
                                           ########,                                 
                                     ,,################,,,,,                         
                               ,,#################################,,                 
                          ,,##########################################,,             
                       ,#########################################, ''#####,          
                    ,#############################################,,   '####,        
                  ,##################################################,,,,####,       
                ,###########''''           ''''###############################       
              ,#####''   ,,,,##########,,,,          '''####'''          '####       
            ,##' ,,,,###########################,,,                        '##       
           ' ,,###''''                  '''############,,,                           
         ,,##''                                '''############,,,,        ,,,,,,###''
      ,#''                                            '''#######################'''  
     '                                                          ''''####''''         
             ,#######,   #######,   ,#######,      ##                                
            ,#'     '#,  ##    ##  ,#'     '#,    #''#        ,####,   ,####,        
            ##       ##  ##   ,#'  ##            #'  '#       #'       #'  '#        
            ##       ##  #######   ##           ,######,      #####,   #    #        
            '#,     ,#'  ##    ##  '#,     ,#' ,#      #,     #,   #   #,  ,#        
             '#######'   ##     ##  '#######'  #'      '#     '####' # '####'        



                #########################################################
                #                        -***-                          #
                #          Department of theory and spectroscopy        #
                #                                                       #
                #                      Frank Neese                      #
                #                                                       #
                #     Directorship, Architecture, Infrastructure        #
                #                    SHARK, DRIVERS                     #
                #        Core code/Algorithms in most modules           #
                #                                                       #
                #        Max Planck Institute fuer Kohlenforschung      #
                #                Kaiser Wilhelm Platz 1                 #
                #                 D-45470 Muelheim/Ruhr                 #
                #                      Germany                          #
                #                                                       #
                #                  All rights reserved                  #
                #                        -***-                          #
                #########################################################


                         Program Version 6.0.0  -   RELEASE  -


 With contributions from (in alphabetic order):
   Daniel Aravena         : Magnetic Suceptibility
   Michael Atanasov       : Ab Initio Ligand Field Theory (pilot matlab implementation)
   Alexander A. Auer      : GIAO ZORA, VPT2 properties, NMR spectrum
   Ute Becker             : All parallelization in ORCA, NUMFREQ, NUMCALC
   Giovanni Bistoni       : ED, misc. LED, open-shell LED, HFLD
   Martin Brehm           : Molecular dynamics
   Dmytro Bykov           : pre 5.0 version of the SCF Hessian
   Marcos Casanova-Páez   : Triplet and SCS-CIS(D). UHF-(DLPNO)-IP/EA/STEOM-CCSD. UHF-CVS-IP/STEOM-CCSD
   Vijay G. Chilkuri      : MRCI spin determinant printing, contributions to CSF-ICE
   Pauline Colinet        : FMM embedding
   Dipayan Datta          : RHF DLPNO-CCSD density
   Achintya Kumar Dutta   : EOM-CC, STEOM-CC
   Nicolas Foglia         : Exact transition moments, OPA infrastructure, MCD improvements
   Dmitry Ganyushin       : Spin-Orbit,Spin-Spin,Magnetic field MRCI
   Miquel Garcia          : C-PCM and meta-GGA Hessian, CCSD/C-PCM, Gaussian charge scheme
   Tiago L. C. Gouveia    : GS-ROHF, GS-ROCIS
   Yang Guo               : DLPNO-NEVPT2, F12-NEVPT2, CIM, IAO-localization
   Andreas Hansen         : Spin unrestricted coupled pair/coupled cluster methods
   Ingolf Harden          : AUTO-CI MPn and infrastructure 
   Benjamin Helmich-Paris : MC-RPA, TRAH-(SCF,CASSCF), AVAS, COSX integrals, SCF dyn. polar.
   Lee Huntington         : MR-EOM, pCC
   Robert Izsak           : Overlap fitted RIJCOSX, COSX-SCS-MP3, EOM
   Riya Kayal             : Wick's Theorem for AUTO-CI, AUTO-CI UHF-CCSDT
   Emily Kempfer          : AUTO-CI, RHF CISDT and CCSDT
   Christian Kollmar      : KDIIS, OOCD, Brueckner-CCSD(T), CCSD density, CASPT2, CASPT2-K, improved NEVPT2
   Axel Koslowski         : Symmetry handling
   Simone Kossmann        : Meta GGA functionals, TD-DFT gradient, OOMP2, (MP2 Hessian; deprecated post 5.0)
   Lucas Lang             : DCDCAS
   Marvin Lechner         : AUTO-CI (C++ implementation), FIC-MRCC
   Spencer Leger          : CASSCF response
   Dagmar Lenk            : GEPOL surface, SMD, ORCA-2-JSON
   Dimitrios Liakos       : Extrapolation schemes; Compound Job, initial MDCI parallelization
   Dimitrios Manganas     : Further ROCIS development; embedding schemes. LFT, Crystal Embedding
   Dimitrios Pantazis     : SARC Basis sets
   Anastasios Papadopoulos: AUTO-CI, single reference methods and gradients
   Taras Petrenko         : pre 6.0 DFT Hessian and TD-DFT gradient, (ASA, deprecated), ECA, 1-Electron XAS/XES, NRVS
   Peter Pinski           : DLPNO-MP2, DLPNO-MP2 Gradient
   Christoph Reimann      : Effective Core Potentials
   Marius Retegan         : Local ZFS, SOC
   Christoph Riplinger    : Optimizer, TS searches, QM/MM, DLPNO-CCSD(T), (RO)-DLPNO pert. Triples
   Michael Roemelt        : Original ROCIS implementation
   Masaaki Saitow         : Open-shell DLPNO-CCSD energy and density
   Barbara Sandhoefer     : DKH picture change effects
   Kantharuban Sivalingam : CASSCF convergence/infrastructure, NEVPT2 and variants, FIC-MRCI
   Bernardo de Souza      : ESD, SOC TD-DFT
   Georgi Stoychev        : AutoAux, RI-MP2 NMR, DLPNO-MP2 response, X2C
   Van Anh Tran           : RI-MP2 g-tensors
   Willem Van den Heuvel  : Paramagnetic NMR
   Zikuan Wang            : NOTCH, Electric field optimization 
   Frank Wennmohs         : Technical directorship and infrastructure
   Hang Xu                : AUTO-CI-Response properties 


 We gratefully acknowledge several colleagues who have allowed us to
 interface, adapt or use parts of their codes:
   Stefan Grimme, W. Hujo, H. Kruse, P. Pracht,  : VdW corrections, initial TS optimization,
                  C. Bannwarth, S. Ehlert,         DFT functionals, gCP, sTDA/sTD-DF
                  L. Wittmann, M. Mueller
   Ed Valeev, F. Pavosevic, A. Kumar             : LibInt (2-el integral package), F12 methods
   Garnet Chan, S. Sharma, J. Yang, R. Olivares  : DMRG
   Ulf Ekstrom                                   : XCFun DFT Library
   Mihaly Kallay                                 : mrcc  (arbitrary order and MRCC methods)
   Frank Weinhold                                : gennbo (NPA and NBO analysis)
   Simon Mueller                                 : openCOSMO-RS
   Christopher J. Cramer and Donald G. Truhlar   : smd solvation model
   Lars Goerigk                                  : TD-DFT with DH, B97 family of functionals
   V. Asgeirsson, H. Jonsson                     : NEB implementation
   FAccTs GmbH                                   : IRC, NEB, NEB-TS, DLPNO-Multilevel, CI-OPT
                                                   MM, QMMM, 2- and 3-layer-ONIOM, Crystal-QMMM,
                                                   LR-CPCM, SF, NACMEs, symmetry and pop. for TD-DFT,
                                                   nearIR, NL-DFT gradient (VV10), updates on ESD,
                                                   ML-optimized integration grids, MBIS, APM,
                                                   GOAT, DOCKER, SOLVATOR, interface openCOSMO-RS
   S Lehtola, MJT Oliveira, MAL Marques          : LibXC Library
   Liviu Ungur et al                             : ANISO software


 Your calculation uses the libint2 library for the computation of 2-el integrals
 For citations please refer to: http://libint.valeyev.net

 Your ORCA version has been built with support for libXC version: 6.2.2
 For citations please refer to: https://libxc.gitlab.io

 This ORCA versions uses:
   CBLAS   interface :  Fast vector & matrix operations
   LAPACKE interface :  Fast linear algebra routines
   SCALAPACK package :  Parallel linear algebra routines
   Shared memory     :  Shared parallel matrices
   BLAS/LAPACK       :  OpenBLAS 0.3.27  USE64BITINT DYNAMIC_ARCH NO_AFFINITY Sandybridge SINGLE_THREADED
        Core in use  :  Sandybridge
   Copyright (c) 2011-2014, The OpenBLAS Project


NOTE: MaxCore=5000 MB was set to SCF,MP2,MDCI,CIPSI,MRCI and CIS
      => If you want to overwrite this, your respective input block should be placed after the MaxCore statement
Your calculation utilizes the atom-pairwise dispersion correction
with the Becke-Johnson damping scheme (D3BJ)


Your calculation utilizes the SMD solvation module
Please cite in your paper:
A.V. Marenich, C.J. Cramer, D.G. Truhlar J. Phys. Chem. B, 113, (2009), 6378 

Warning: RI is on but no J-basis has been assigned. Assigning Def2/J (nothing to worry about!)
================================================================================

----- Orbital basis set information -----
Your calculation utilizes the basis: aug-cc-pVTZ 
    H, B-Ne : Obtained from the ccRepo (grant-hill.group.shef.ac.uk/ccrepo) Feb. 2017
              R. A. Kendall, T. H. Dunning, Jr., R. J. Harrison, J. Chem. Phys. 96, 6796 (1992)
         He : Obtained from the ccRepo (grant-hill.group.shef.ac.uk/ccrepo) Feb. 2017
              D. E. Woon, T. H. Dunning, Jr., J. Chem. Phys. 100, 2975 (1994)
  Li-Be, Na : Obtained from the ccRepo (grant-hill.group.shef.ac.uk/ccrepo) Feb. 2017
              B. P. Prascher, D. E. Woon, K. A. Peterson, T. H. Dunning, Jr., A. K. Wilson, Theor. Chem. Acc. 128, 69 (2011)
         Mg : Obtained from the Peterson Research Group Website (tyr0.chem.wsu.edu/~kipeters) Feb. 2017
              B. P. Prascher, D. E. Woon, K. A. Peterson, T. H. Dunning, Jr., A. K. Wilson, Theor. Chem. Acc. 128, 69 (2011)
      Al-Ar : Obtained from the ccRepo (grant-hill.group.shef.ac.uk/ccrepo) Feb. 2017
              D. E. Woon, T. H. Dunning, Jr., J. Chem. Phys. 98, 1358 (1993)
      Sc-Zn : Obtained from the ccRepo (grant-hill.group.shef.ac.uk/ccrepo) Feb. 2017
              N. B. Balabanov, K. A. Peterson, J. Chem. Phys. 123, 064107 (2005)
              N. B. Balabanov, K. A. Peterson, J. Chem. Phys. 125, 074110 (2006)
      Ga-Kr : Obtained from the ccRepo (grant-hill.group.shef.ac.uk/ccrepo) Feb. 2017
              A. K. Wilson, D. E. Woon, K. A. Peterson, T. H. Dunning, Jr., J. Chem. Phys. 110, 7667 (1999)
     Ag, Au : Obtained from the Peterson Research Group Website (tyr0.chem.wsu.edu/~kipeters) Feb. 2017
              K. A. Peterson, C. Puzzarini, Theor. Chem. Acc. 114, 283 (2005)

----- AuxJ basis set information -----
Your calculation utilizes the auxiliary basis: def2/J
   F. Weigend, Phys. Chem. Chem. Phys. 8, 1057 (2006).

================================================================================
                                        WARNINGS
                       Please study these warnings very carefully!
================================================================================


================================================================================
                                       INPUT FILE
================================================================================
NAME = cs_rporg_002_red_freq_08.inp
|  1> !TPSSh freq aug-cc-pVTZ d3 TightSCF SlowConv RIJCOSX defgrid2
|  2> 
|  3> %pal
|  4> nprocs 12
|  5> end
|  6> 
|  7> %scf
|  8> MaxIter 1500
|  9> end
| 10> 
| 11> %maxcore 5000
| 12> 
| 13> !CPCM
| 14> %cpcm smd true
| 15> SMDsolvent "MeCN"
| 16> surfacetype gepol_ses
| 17> rsolv 2.19
| 18> end 
| 19> 
| 20> * xyz 0 1
| 21> C          -0.72988942010251     -1.02100360732575      0.00094610715936
| 22> C          -1.30961804329032      0.25075356321136      0.00084828744372
| 23> C          -0.49270542425432      1.38845631475069      0.00021577526647
| 24> C           0.88212835270050      1.25665557172225     -0.00023306730924
| 25> C           1.48174819149659     -0.01603373718826      0.00000483644024
| 26> C           0.65310766145970     -1.14528339090363      0.00059035856467
| 27> H           1.09645100298623     -2.13293426395180      0.00030356028119
| 28> C           2.89898590059267     -0.15199311522117     -0.00081764127893
| 29> C           4.10133636443804     -0.26612673327215      0.00040913643859
| 30> H           5.16284324514094     -0.36597281136586     -0.00102206185537
| 31> H           1.50623582591864      2.14108879262581     -0.00095446391687
| 32> H          -0.95359374920347      2.36821988523173      0.00028400813385
| 33> O          -2.64664466132984      0.47733790158746      0.00133813261094
| 34> C          -3.51193050402283     -0.66572600251635     -0.00047967575910
| 35> H          -4.52283496795798     -0.26527785388266     -0.00074351789849
| 36> H          -3.35339127167101     -1.27041955023293     -0.89642287975392
| 37> H          -3.35487492849018     -1.27254769789148      0.89429125586492
| 38> H          -1.34159547441083     -1.91173446537726      0.00162404956797
| 39> *
| 40> 
| 41>                          ****END OF INPUT****
================================================================================

                       ****************************
                       * Single Point Calculation *
                       ****************************

---------------------------------
CARTESIAN COORDINATES (ANGSTROEM)
---------------------------------
  C     -0.729889   -1.021004    0.000946
  C     -1.309618    0.250754    0.000848
  C     -0.492705    1.388456    0.000216
  C      0.882128    1.256656   -0.000233
  C      1.481748   -0.016034    0.000005
  C      0.653108   -1.145283    0.000590
  H      1.096451   -2.132934    0.000304
  C      2.898986   -0.151993   -0.000818
  C      4.101336   -0.266127    0.000409
  H      5.162843   -0.365973   -0.001022
  H      1.506236    2.141089   -0.000954
  H     -0.953594    2.368220    0.000284
  O     -2.646645    0.477338    0.001338
  C     -3.511931   -0.665726   -0.000480
  H     -4.522835   -0.265278   -0.000744
  H     -3.353391   -1.270420   -0.896423
  H     -3.354875   -1.272548    0.894291
  H     -1.341595   -1.911734    0.001624

----------------------------
CARTESIAN COORDINATES (A.U.)
----------------------------
  NO LB      ZA    FRAG     MASS         X           Y           Z
   0 C     6.0000    0    12.011   -1.379291   -1.929417    0.001788
   1 C     6.0000    0    12.011   -2.474819    0.473856    0.001603
   2 C     6.0000    0    12.011   -0.931078    2.623802    0.000408
   3 C     6.0000    0    12.011    1.666981    2.374735   -0.000440
   4 C     6.0000    0    12.011    2.800098   -0.030299    0.000009
   5 C     6.0000    0    12.011    1.234195   -2.164272    0.001116
   6 H     1.0000    0     1.008    2.071992   -4.030662    0.000574
   7 C     6.0000    0    12.011    5.478289   -0.287225   -0.001545
   8 C     6.0000    0    12.011    7.750403   -0.502907    0.000773
   9 H     1.0000    0     1.008    9.756360   -0.691588   -0.001931
  10 H     1.0000    0     1.008    2.846373    4.046071   -0.001804
  11 H     1.0000    0     1.008   -1.802031    4.475287    0.000537
  12 O     8.0000    0    15.999   -5.001434    0.902038    0.002529
  13 C     6.0000    0    12.011   -6.636587   -1.258040   -0.000906
  14 H     1.0000    0     1.008   -8.546919   -0.501302   -0.001405
  15 H     1.0000    0     1.008   -6.336991   -2.400745   -1.693994
  16 H     1.0000    0     1.008   -6.339795   -2.404767    1.689966
  17 H     1.0000    0     1.008   -2.535248   -3.612655    0.003069

--------------------------------
INTERNAL COORDINATES (ANGSTROEM)
--------------------------------
 C      0   0   0     0.000000000000     0.00000000     0.00000000
 C      1   0   0     1.397659324344     0.00000000     0.00000000
 C      2   1   0     1.400612072657   119.81445430     0.00000000
 C      3   2   1     1.381137050252   120.20372753     0.00000000
 C      4   3   2     1.406869604722   120.70319959     0.00000000
 C      1   2   3     1.388569954584   119.64075607     0.00000000
 H      6   1   2     1.082593020374   119.30963802   180.02213271
 C      5   4   3     1.423744483055   120.70693885   179.98315818
 C      8   5   4     1.207756029032   179.89226957    57.96733503
 H      9   8   5     1.066193296461   179.85624388   232.03762421
 H      4   3   2     1.082466064492   119.73300078   179.98576186
 H      3   2   1     1.082753299128   119.12759630   180.00834590
 O      2   1   3     1.356090291865   124.12425970   180.00019445
 C     13   2   1     1.433638023651   117.50677090   359.88844521
 H     14  13   2     1.087330043989   105.51536147   180.05542416
 H     14  13   2     1.092475720384   110.77951581   298.81671579
 H     14  13   2     1.092480683519   110.79746443    61.29551851
 H      1   2   3     1.080549035430   121.01500984   179.98799043

---------------------------
INTERNAL COORDINATES (A.U.)
---------------------------
 C      0   0   0     0.000000000000     0.00000000     0.00000000
 C      1   0   0     2.641193351531     0.00000000     0.00000000
 C      2   1   0     2.646773237185   119.81445430     0.00000000
 C      3   2   1     2.609970778388   120.20372753     0.00000000
 C      4   3   2     2.658598259063   120.70319959     0.00000000
 C      1   2   3     2.624016931955   119.64075607     0.00000000
 H      6   1   2     2.045804323001   119.30963802   180.02213271
 C      5   4   3     2.690487157655   120.70693885   179.98315818
 C      8   5   4     2.282328131462   179.89226957    57.96733503
 H      9   8   5     2.014813336134   179.85624388   232.03762421
 H      4   3   2     2.045564411154   119.73300078   179.98576186
 H      3   2   1     2.046107205951   119.12759630   180.00834590
 O      2   1   3     2.562639264495   124.12425970   180.00019445
 C     13   2   1     2.709183239876   117.50677090   359.88844521
 H     14  13   2     2.054756000324   105.51536147   180.05542416
 H     14  13   2     2.064479919485   110.77951581   298.81671579
 H     14  13   2     2.064489298451   110.79746443    61.29551851
 H      1   2   3     2.041941751235   121.01500984   179.98799043

---------------------
BASIS SET INFORMATION
---------------------
There are 3 groups of distinct atoms

 Group   1 Type C   : 19s6p3d2f contracted to 5s4p3d2f pattern {88111/3111/111/11}
 Group   2 Type H   : 6s3p2d contracted to 4s3p2d pattern {3111/111/11}
 Group   3 Type O   : 19s6p3d2f contracted to 5s4p3d2f pattern {88111/3111/111/11}

Atom   0C    basis set group =>   1
Atom   1C    basis set group =>   1
Atom   2C    basis set group =>   1
Atom   3C    basis set group =>   1
Atom   4C    basis set group =>   1
Atom   5C    basis set group =>   1
Atom   6H    basis set group =>   2
Atom   7C    basis set group =>   1
Atom   8C    basis set group =>   1
Atom   9H    basis set group =>   2
Atom  10H    basis set group =>   2
Atom  11H    basis set group =>   2
Atom  12O    basis set group =>   3
Atom  13C    basis set group =>   1
Atom  14H    basis set group =>   2
Atom  15H    basis set group =>   2
Atom  16H    basis set group =>   2
Atom  17H    basis set group =>   2
---------------------------------
AUXILIARY/J BASIS SET INFORMATION
---------------------------------
There are 3 groups of distinct atoms

 Group   1 Type C   : 12s5p4d2f1g contracted to 6s4p3d1f1g pattern {711111/2111/211/2/1}
 Group   2 Type H   : 5s2p1d contracted to 3s1p1d pattern {311/2/1}
 Group   3 Type O   : 12s5p4d2f1g contracted to 6s4p3d1f1g pattern {711111/2111/211/2/1}

Atom   0C    basis set group =>   1
Atom   1C    basis set group =>   1
Atom   2C    basis set group =>   1
Atom   3C    basis set group =>   1
Atom   4C    basis set group =>   1
Atom   5C    basis set group =>   1
Atom   6H    basis set group =>   2
Atom   7C    basis set group =>   1
Atom   8C    basis set group =>   1
Atom   9H    basis set group =>   2
Atom  10H    basis set group =>   2
Atom  11H    basis set group =>   2
Atom  12O    basis set group =>   3
Atom  13C    basis set group =>   1
Atom  14H    basis set group =>   2
Atom  15H    basis set group =>   2
Atom  16H    basis set group =>   2
Atom  17H    basis set group =>   2


           ************************************************************
           *        Program running with 12 parallel MPI-processes    *
           *              working on a common directory               *
           ************************************************************
------------------------------------------------------------------------------
                             ORCA STARTUP CALCULATIONS
                           -- RI-GTO INTEGRALS CHOSEN --
------------------------------------------------------------------------------
------------------------------------------------------------------------------
                   ___                                                        
                  /   \      - P O W E R E D   B Y -                         
                 /     \                                                     
                 |  |  |   _    _      __       _____    __    __             
                 |  |  |  | |  | |    /  \     |  _  \  |  |  /  |          
                  \  \/   | |  | |   /    \    | | | |  |  | /  /          
                 / \  \   | |__| |  /  /\  \   | |_| |  |  |/  /          
                |  |  |   |  __  | /  /__\  \  |    /   |      \           
                |  |  |   | |  | | |   __   |  |    \   |  |\   \          
                \     /   | |  | | |  |  |  |  | |\  \  |  | \   \       
                 \___/    |_|  |_| |__|  |__|  |_| \__\ |__|  \__/        
                                                                              
                      - O R C A' S   B I G   F R I E N D -                    
                                      &                                       
                       - I N T E G R A L  F E E D E R -                       
                                                                              
 v1 FN, 2020, v2 2021, v3 2022-2024                                           
------------------------------------------------------------------------------


----------------------
SHARK INTEGRAL PACKAGE
----------------------

Number of atoms                             ...     18
Number of basis functions                   ...    704
Number of shells                            ...    272
Maximum angular momentum                    ...      3
Integral batch strategy                     ... SHARK/LIBINT Hybrid
RI-J (if used) integral strategy            ... SPLIT-RIJ (Revised 2003 algorithm where possible)
Printlevel                                  ...      1
Contraction scheme used                     ... PARTIAL GENERAL contraction
Prescreening option                         ... SCHWARTZ
   Thresh                                   ... 2.500e-11
   Tcut                                     ... 2.500e-12
   Tpresel                                  ... 2.500e-12 
Coulomb Range Separation                    ... NOT USED
Exchange Range Separation                   ... NOT USED
Multipole approximations                    ... NOT USED
Finite Nucleus Model                        ... NOT USED
CABS basis                                  ... NOT available
Auxiliary Coulomb fitting basis             ... AVAILABLE
   # of basis functions in Aux-J            ...    578
   # of shells in Aux-J                     ...    190
   Maximum angular momentum in Aux-J        ...      4
Auxiliary J/K fitting basis                 ... NOT available
Auxiliary Correlation fitting basis         ... NOT available
Auxiliary 'external' fitting basis          ... NOT available

Checking pre-screening integrals            ... done (  0.8 sec) Dimension = 272
Save PGC pre-screening integrals            ... done (  0.9 sec) Dimension = 272
Calculate PGC overlap integrals             ... done (  1.0 sec) Dimension = 212
Calculating pre-screening integrals (ORCA)  ... done (  1.1 sec) Dimension = 212
Check shell pair data                       ... done (  0.3 sec)
Shell pair information
Shell pair cut-off parameter TPreSel        ...   2.5e-12
Total number of shell pairs                 ...     37128
Shell pairs after pre-screening             ...     30179
Total number of primitive shell pairs       ...     47640
Primitive shell pairs kept                  ...     35943
          la=0 lb=0:   6836 shell pairs
          la=1 lb=0:   7675 shell pairs
          la=1 lb=1:   1924 shell pairs
          la=2 lb=0:   5388 shell pairs
          la=2 lb=1:   2685 shell pairs
          la=2 lb=2:    984 shell pairs
          la=3 lb=0:   2437 shell pairs
          la=3 lb=1:   1196 shell pairs
          la=3 lb=2:    853 shell pairs
          la=3 lb=3:    201 shell pairs

Calculating one electron integrals          ... done (  0.1 sec)
Calculating RI/J V-Matrix + Cholesky decomp.... done (  0.1 sec)
Calculating Nuclear repulsion               ... done (  0.0 sec) ENN=    456.457843938039 Eh

Diagonalization of the overlap matrix:
Smallest eigenvalue                        ... 5.817e-07
Time for diagonalization                   ...    0.118 sec
Threshold for overlap eigenvalues          ... 1.000e-07
Number of eigenvalues below threshold      ... 0

IMPORTANT:
Smallest eigenvalue of S below the DiffSThresh (1.000e-06) while
Thresh>1e-12 and/or TCut>1e-13! In order to avoid SCF convergence issues,
Thresh will be set to at least 1e-12 and TCut to at least 1e-13.
This can be turned off by adding %SCF DiffSThresh -1 END to the input.

Time for construction of square roots      ...    0.123 sec
Total time needed                          ...    0.530 sec

-------------------
DFT GRID GENERATION
-------------------

General Integration Accuracy     IntAcc      ... 4.388
Radial Grid Type                 RadialGrid  ... OptM3 with GC (2021)
Angular Grid (max. ang.)         AngularGrid ... 4 (Lebedev-302)
Angular grid pruning method      GridPruning ... 4 (adaptive)
Weight generation scheme         WeightScheme... mBecke (2022)
Basis function cutoff            BFCut       ... 1.0000e-11
Integration weight cutoff        WCut        ... 1.0000e-14
Partially contracted basis set               ... off
Rotationally invariant grid construction     ... off
Angular grids for H and He will be reduced by one unit
Diffuse basis detected: some atoms will have their outermost
                        angular grid increased by 1.

Total number of grid points                  ...    90139
Total number of batches                      ...     1417
Average number of points per batch           ...       63
Average number of grid points per atom       ...     5008

---------------------
SHARK GRID GENERATION
---------------------

General Integration Accuracy     IntAcc      ... 4.388
Radial Grid Type                 RadialGrid  ... OptM3 with GC (2021)
Angular Grid (max. ang.)         AngularGrid ... 4 (Lebedev-302)
Angular grid pruning method      GridPruning ... 4 (adaptive)
Weight generation scheme         WeightScheme... mBecke (2022)
Basis function cutoff            BFCut       ... 1.0000e-11
Integration weight cutoff        WCut        ... 1.0000e-14
Partially contracted basis set               ... off
Rotationally invariant grid construction     ... off
Angular grids for H and He will be reduced by one unit
Diffuse basis detected: some atoms will have their outermost
                        angular grid increased by 1.
Steep s-basis detected: some atoms will have their radial
                        grid points doubled.

Total number of grid points                  ...   153409
Total number of batches                      ...     2406
Average number of points per batch           ...       63
Average number of grid points per atom       ...     8523

--------------------
COSX GRID GENERATION
--------------------

GRIDX 1
-------
General Integration Accuracy     IntAcc      ... 3.816
Radial Grid Type                 RadialGrid  ... OptM3 with GC (2021)
Angular Grid (max. ang.)         AngularGrid ... 1 (Lebedev-50)
Angular grid pruning method      GridPruning ... 4 (adaptive)
Weight generation scheme         WeightScheme... mBecke (2022)
Basis function cutoff            BFCut       ... 1.0000e-11
Integration weight cutoff        WCut        ... 1.0000e-14
Partially contracted basis set               ... on
Rotationally invariant grid construction     ... off
Angular grids for H and He will be reduced by one unit
Diffuse basis detected: some atoms will have their outermost
                        angular grid increased by 1.

Total number of grid points                  ...    11330
Total number of batches                      ...       97
Average number of points per batch           ...      116
Average number of grid points per atom       ...      629
UseSFitting                                  ... on

GRIDX 2
-------
General Integration Accuracy     IntAcc      ... 4.020
Radial Grid Type                 RadialGrid  ... OptM3 with GC (2021)
Angular Grid (max. ang.)         AngularGrid ... 2 (Lebedev-110)
Angular grid pruning method      GridPruning ... 4 (adaptive)
Weight generation scheme         WeightScheme... mBecke (2022)
Basis function cutoff            BFCut       ... 1.0000e-11
Integration weight cutoff        WCut        ... 1.0000e-14
Partially contracted basis set               ... on
Rotationally invariant grid construction     ... off
Angular grids for H and He will be reduced by one unit
Diffuse basis detected: some atoms will have their outermost
                        angular grid increased by 1.

Total number of grid points                  ...    27788
Total number of batches                      ...      226
Average number of points per batch           ...      122
Average number of grid points per atom       ...     1544
UseSFitting                                  ... on

GRIDX 3
-------
General Integration Accuracy     IntAcc      ... 4.338
Radial Grid Type                 RadialGrid  ... OptM3 with GC (2021)
Angular Grid (max. ang.)         AngularGrid ... 3 (Lebedev-194)
Angular grid pruning method      GridPruning ... 4 (adaptive)
Weight generation scheme         WeightScheme... mBecke (2022)
Basis function cutoff            BFCut       ... 1.0000e-11
Integration weight cutoff        WCut        ... 1.0000e-14
Partially contracted basis set               ... on
Rotationally invariant grid construction     ... off
Angular grids for H and He will be reduced by one unit
Diffuse basis detected: some atoms will have their outermost
                        angular grid increased by 1.

Total number of grid points                  ...    61607
Total number of batches                      ...      489
Average number of points per batch           ...      125
Average number of grid points per atom       ...     3423
UseSFitting                                  ... on
Initializing property integral containers    ... done (  0.6 sec)

SHARK setup successfully completed in  12.1 seconds

Maximum memory used throughout the entire STARTUP-calculation: 66.4 MB


           ************************************************************
           *        Program running with 12 parallel MPI-processes    *
           *              working on a common directory               *
           ************************************************************
-------------------------------------------------------------------------------
                                 ORCA GUESS
                   Start orbitals & Density for SCF / CASSCF
-------------------------------------------------------------------------------

------------
SCF SETTINGS
------------
Hamiltonian:
 Density Functional     Method          .... DFT(GTOs)
 Exchange Functional    Exchange        .... TPSS
 Correlation Functional Correlation     .... TPSS
 LDA part of GGA corr.  LDAOpt          .... PW91-LDA
 Gradients option       PostSCFGGA      .... off
 Hybrid DFT is turned on
   Fraction HF Exchange ScalHFX         ....  0.100000
   Scaling of DF-GGA-X  ScalDFX         ....  0.900000
   Scaling of DF-GGA-C  ScalDFC         ....  1.000000
   Scaling of DF-LDA-C  ScalLDAC        ....  1.000000
   Perturbative correction              ....  0.000000
   NL short-range parameter             ....  5.200000
 RI-approximation to the Coulomb term is turned on
   Number of AuxJ basis functions       .... 578
   RIJ-COSX (HFX calculated with COS-X)).... on


General Settings:
 Integral files         IntName         .... cs_rporg_002_red_freq_08
 Hartree-Fock type      HFTyp           .... RHF
 Total Charge           Charge          ....    0
 Multiplicity           Mult            ....    1
 Number of Electrons    NEL             ....   70
 Basis Dimension        Dim             ....  644
 Nuclear Repulsion      ENuc            ....    456.4578439380 Eh

Convergence Acceleration:
 AO-DIIS                CNVDIIS         .... on
   Start iteration      DIISMaxIt       ....     0
   Startup error        DIISStart       ....  0.200000
   # of expansion vecs  DIISMaxEq       ....     5
   Bias factor          DIISBfac        ....   1.050
   Max. coefficient     DIISMaxC        ....  10.000
 MO-DIIS                CNVKDIIS        .... off
 Trust-Rad. Augm. Hess. CNVTRAH         .... auto
   Auto Start mean grad. ratio tolernc. ....  1.125000
   Auto Start start iteration           ....    50
   Auto Start num. interpolation iter.  ....    10
   Max. Number of Micro iterations      ....    24
   Max. Number of Macro iterations      .... Maxiter - #DIIS iter
   Number of Davidson start vectors     ....     2
   Converg. threshold    (grad. norm)   ....   1.000e-05
   Grad. Scal. Fac. for Micro threshold ....   0.100
   Minimum threshold for Micro iter.    ....   1.000e-02
   NR start threshold (gradient norm)   ....   1.000e-04
   Initial trust radius                 ....   0.400
   Minimum AH scaling param. (alpha)    ....   1.000
   Maximum AH scaling param. (alpha)    .... 1000.000
   Quad. conv. algorithm                .... NR
   White noise on init. David. guess    .... on
   Maximum white noise                  ....   0.010
   Pseudo random numbers                .... off
   Inactive MOs                         .... canonical
   Orbital update algorithm             .... Taylor
   Preconditioner                       .... Diag
   Full preconditioner red. dimension   ....   250
 SOSCF                  CNVSOSCF        .... on
   Start iteration      SOSCFMaxIt      ....   150
   Startup grad/error   SOSCFStart      ....  0.001000
   Hessian update       SOSCFHessUp     .... L-BFGS
 Level Shifting         CNVShift        .... on
   Level shift para.    LevelShift      ....    0.2500
   Turn off err/grad.   ShiftErr        ....    0.0000
 Zerner damping         CNVZerner       .... off
 Static damping         CNVDamp         .... on
   Fraction old density DampFac         ....    0.8500
   Max. Damping (<1)    DampMax         ....    0.9800
   Min. Damping (>=0)   DampMin         ....    0.0000
   Turn off err/grad.   DampErr         ....    0.0300

SCF Procedure:
 Maximum # iterations   MaxIter         ....  1500
 SCF integral mode      SCFMode         .... Direct
   Integral package                     .... SHARK and LIBINT hybrid scheme
 Reset frequency        DirectResetFreq ....    20
 Integral Threshold     Thresh          ....  1.000e-12 Eh
 Primitive CutOff       TCut            ....  1.000e-13 Eh

Convergence Tolerance:
 Convergence Check Mode ConvCheckMode   .... Total+1el-Energy
 Convergence forced     ConvForced      .... 0
 Energy Change          TolE            ....  1.000e-08 Eh
 1-El. energy change                    ....  1.000e-05 Eh
 Orbital Gradient       TolG            ....  1.000e-05
 Orbital Rotation angle TolX            ....  1.000e-05
 DIIS Error             TolErr          ....  5.000e-07

------------------------------
INITIAL GUESS: MODEL POTENTIAL
------------------------------
Loading Hartree-Fock densities                     ... done
Calculating cut-offs                               ... done
Initializing the effective Hamiltonian             ... done
Setting up the integral package (SHARK)            ... done
Starting the Coulomb interaction                   ... done (   0.8 sec)
Making the grid                                    ... done (   0.6 sec)
Mapping shells                                     ... done
Starting the XC term evaluation                    ... done (   0.4 sec)
  promolecular density results
     # of electrons  =     69.995018301
     EX              =    -56.491882082
     EC              =     -2.304775562
     EX+EC           =    -58.796657644
Transforming the Hamiltonian                       ... done (   0.3 sec)
Diagonalizing the Hamiltonian                      ... done (   0.1 sec)
Back transforming the eigenvectors                 ... done (   0.3 sec)
Now organizing SCF variables                       ... done
                      ------------------
                      INITIAL GUESS DONE (   4.3 sec)
                      ------------------
             **** ENERGY FILE WAS UPDATED (cs_rporg_002_red_freq_08.en.tmp) ****
Finished Guess after   7.8 sec
Maximum memory used throughout the entire GUESS-calculation: 47.0 MB


           ************************************************************
           *        Program running with 12 parallel MPI-processes    *
           *              working on a common directory               *
           ************************************************************

-------------------------------------------------------------------------------------------
                                      ORCA LEAN-SCF
                              memory conserving SCF solver
-------------------------------------------------------------------------------------------

--------------------
CPCM SOLVATION MODEL
--------------------
CPCM parameters:
  Epsilon                                         ...      35.6880
  Refrac                                          ...       1.3442
  Rsolv                                           ...       2.1900
  Surface type                                    ...    GEPOL SES
  Discretization scheme                           ... Constant num. charges
  Epsilon function type                           ...         CPCM
Solvent:                                          ... ACETONITRILE
SMD-CDS solvent descriptors:
  Soln                                            ...       1.3442
  Soln25                                          ...       1.3416
  Sola                                            ...       0.0700
  Solb                                            ...       0.3200
  Solg                                            ...      41.2500
  Solc                                            ...       0.0000
  Solh                                            ...       0.0000
Radii:
  Scheme                                          ... Element-dependent radii
  Radius for C  used is    3.4960 Bohr (=   1.8500 Ang.)
  Radius for H  used is    2.2677 Bohr (=   1.2000 Ang.)
  Radius for O  used is    4.0969 Bohr (=   2.1680 Ang.)
Calculating surface                               ...        done! (  0.0s)
Cavity surface points                             ...          591
Cavity Volume                                     ...    1077.1807
Cavity Surface-area                               ...     626.7570
Calculating surface distance matrix               ...        done! (  0.0s)
Performing Cholesky decomposition & store         ...        done! (  0.0s)
Overall time for CPCM initialization              ...                 0.1s

----------------------------------------D-I-I-S--------------------------------------------
Iteration    Energy (Eh)           Delta-E    RMSDP     MaxDP     DIISErr   Damp  Time(sec)
-------------------------------------------------------------------------------------------
               ***  Starting incremental Fock matrix formation  ***
    1    -422.9095515073409501     0.00e+00  2.34e-03  1.96e-01  1.50e-01  0.850  20.3
    2    -422.9568410797060665    -4.73e-02  2.03e-03  1.60e-01  1.12e-01  0.850  17.9
                               ***Turning on AO-DIIS***
    3    -422.9904753753667705    -3.36e-02  1.25e-03  8.69e-02  7.80e-02  0.850  17.5
    4    -423.0130829823405634    -2.26e-02  9.50e-04  6.10e-02  6.49e-02  0.850  17.3
    5    -423.0297281255078019    -1.66e-02  7.67e-04  5.30e-02  5.53e-02  0.850  18.8
    6    -423.0428138832740501    -1.31e-02  6.35e-04  4.64e-02  4.69e-02  0.850  17.7
    7    -423.0534661055514221    -1.07e-02  5.33e-04  4.05e-02  3.90e-02  0.850  18.5
    8    -423.0622267247685500    -8.76e-03  4.49e-04  3.48e-02  3.23e-02  0.850  17.4
    9    -423.0694339889792559    -7.21e-03  3.78e-04  2.96e-02  2.73e-02  0.850  18.8
   10    -423.0753821620547228    -5.95e-03  2.12e-03  1.68e-01  2.32e-02  0.000  17.5
   11    -423.1062394955735613    -3.09e-02  1.59e-04  1.41e-02  1.87e-03  0.000  17.5
                              *** Initializing SOSCF ***
---------------------------------------S-O-S-C-F--------------------------------------
Iteration    Energy (Eh)           Delta-E    RMSDP     MaxDP     MaxGrad    Time(sec)
--------------------------------------------------------------------------------------
   12    -423.1062607631143351    -2.13e-05  1.90e-05  1.56e-03  4.28e-04    18.5
               *** Restarting incremental Fock matrix formation ***
   13    -423.1062674834034283    -6.72e-06  2.74e-04  1.74e-02  5.82e-05    18.6
   14    -423.1062672176995534     2.66e-07  3.86e-05  2.41e-03  1.39e-04    17.8
   15    -423.1062676760588488    -4.58e-07  4.73e-05  2.97e-03  2.19e-05    16.8
   16    -423.1062676639970164     1.21e-08  5.89e-06  3.07e-04  2.58e-05    14.7
   17    -423.1062676965311198    -3.25e-08  8.54e-06  5.87e-04  3.24e-06    12.8
   18    -423.1062676941236873     2.41e-09  2.71e-06  1.29e-04  3.84e-06    13.0
                 **** Energy Check signals convergence ****

               *****************************************************
               *                     SUCCESS                       *
               *           SCF CONVERGED AFTER  18 CYCLES          *
               *****************************************************

Recomputing exchange energy using gridx3       ... done (   12.645 sec)
Old exchange energy                            :     -5.772561529 Eh
New exchange energy                            :     -5.772555634 Eh
Exchange energy change after final integration :      0.000005895 Eh
Total energy after final integration           :   -423.106261799 Eh

SMD CDS free energy correction energy :                -0.35922     Kcal/mol
Total Energy after SMD CDS correction =              -423.106834260 Eh
             **** ENERGY FILE WAS UPDATED (cs_rporg_002_red_freq_08.en.tmp) ****

----------------
TOTAL SCF ENERGY
----------------

Total Energy       :       -423.10683426027771 Eh          -11513.32229 eV

Components:
Nuclear Repulsion  :        456.45784393803871 Eh           12420.84940 eV
Electronic Energy  :       -879.55025800835938 Eh          -23933.77929 eV
One Electron Energy:      -1476.29559930039431 Eh          -40172.04556 eV
Two Electron Energy:        596.74534129203494 Eh           16238.26627 eV
CPCM Dielectric    :         -0.01385362380299 Eh              -0.37698 eV
SMD CDS (Gcds)     :         -0.00057246124671 Eh              -0.01558 eV

Virial components:
Potential Energy   :       -843.96630455220861 Eh          -22965.49069 eV
Kinetic Energy     :        420.85947029193096 Eh           11452.16840 eV
Virial Ratio       :          2.00533993916494

DFT components:
N(Alpha)           :       35.000048786212 electrons
N(Beta)            :       35.000048786212 electrons
N(Total)           :       70.000097572423 electrons
E(X)               :      -52.378580221244 Eh       
E(C)               :       -2.318748951541 Eh       
E(XC)              :      -54.697329172785 Eh       

CPCM Solvation Model Properties:
Surface-charge          :         -0.04252063532681
Corrected charge        :         -0.00000000000000
Outlying charge corr.   :          0.00012584902291 Eh               0.00342 eV
Free-energy (cav+disp)  :         -0.00057246124671 Eh              -0.01558 eV

---------------
SCF CONVERGENCE
---------------

  Last Energy change         ...   -2.4074e-09  Tolerance :   1.0000e-08
  Last MAX-Density change    ...    1.2886e-04  Tolerance :   1.0000e-07
  Last RMS-Density change    ...    2.7060e-06  Tolerance :   5.0000e-09
  Last DIIS Error            ...    4.2839e-04  Tolerance :   5.0000e-07
  Last Orbital Gradient      ...    3.8413e-06  Tolerance :   1.0000e-05
  Last Orbital Rotation      ...    6.8937e-06  Tolerance :   1.0000e-05


----------------
ORBITAL ENERGIES
----------------

  NO   OCC          E(Eh)            E(eV) 
   0   2.0000     -19.089842      -519.4610 
   1   2.0000     -10.181496      -277.0526 
   2   2.0000     -10.157359      -276.3958 
   3   2.0000     -10.139652      -275.9140 
   4   2.0000     -10.127082      -275.5719 
   5   2.0000     -10.126369      -275.5525 
   6   2.0000     -10.122102      -275.4364 
   7   2.0000     -10.118757      -275.3454 
   8   2.0000     -10.117603      -275.3140 
   9   2.0000     -10.110414      -275.1184 
  10   2.0000      -1.046588       -28.4791 
  11   2.0000      -0.846995       -23.0479 
  12   2.0000      -0.768121       -20.9016 
  13   2.0000      -0.739581       -20.1250 
  14   2.0000      -0.717781       -19.5318 
  15   2.0000      -0.678095       -18.4519 
  16   2.0000      -0.603231       -16.4147 
  17   2.0000      -0.590686       -16.0734 
  18   2.0000      -0.534683       -14.5495 
  19   2.0000      -0.509507       -13.8644 
  20   2.0000      -0.478773       -13.0281 
  21   2.0000      -0.470398       -12.8002 
  22   2.0000      -0.448561       -12.2060 
  23   2.0000      -0.432732       -11.7752 
  24   2.0000      -0.411383       -11.1943 
  25   2.0000      -0.397756       -10.8235 
  26   2.0000      -0.378180       -10.2908 
  27   2.0000      -0.375087       -10.2066 
  28   2.0000      -0.349933        -9.5222 
  29   2.0000      -0.333040        -9.0625 
  30   2.0000      -0.314103        -8.5472 
  31   2.0000      -0.280373        -7.6293 
  32   2.0000      -0.272877        -7.4254 
  33   2.0000      -0.255342        -6.9482 
  34   2.0000      -0.210567        -5.7298 
  35   0.0000      -0.043214        -1.1759 
  36   0.0000      -0.030285        -0.8241 
  37   0.0000      -0.003862        -0.1051 
  38   0.0000       0.006880         0.1872 
  39   0.0000       0.011291         0.3072 
  40   0.0000       0.019807         0.5390 
  41   0.0000       0.022764         0.6195 
  42   0.0000       0.025187         0.6854 
  43   0.0000       0.029302         0.7974 
  44   0.0000       0.036477         0.9926 
  45   0.0000       0.041240         1.1222 
*Only the first 10 virtual orbitals were printed.

                    ********************************
                    * MULLIKEN POPULATION ANALYSIS *
                    ********************************

-----------------------
MULLIKEN ATOMIC CHARGES
-----------------------
   0 C :   -0.105256
   1 C :    1.111231
   2 C :   -0.596378
   3 C :   -0.873935
   4 C :    1.299099
   5 C :   -1.016285
   6 H :   -0.373427
   7 C :    1.191451
   8 C :   -0.632364
   9 H :    0.017580
  10 H :   -0.328568
  11 H :    0.419954
  12 O :   -0.750960
  13 C :   -0.265900
  14 H :    0.027903
  15 H :    0.217270
  16 H :    0.217462
  17 H :    0.441122
Sum of atomic charges:    0.0000000

--------------------------------
MULLIKEN REDUCED ORBITAL CHARGES
--------------------------------
  0 C s       :     3.591647  s :     3.591647
      pz      :     0.992120  p :     2.233886
      px      :     0.425311
      py      :     0.816456
      dz2     :     0.017717  d :     0.300409
      dxz     :     0.004513
      dyz     :     0.000836
      dx2y2   :     0.072148
      dxy     :     0.205194
      f0      :     0.000076  f :    -0.020687
      f+1     :    -0.000219
      f-1     :     0.000054
      f+2     :     0.001644
      f-2     :    -0.000813
      f+3     :     0.001898
      f-3     :    -0.023326

  1 C s       :     2.973022  s :     2.973022
      pz      :     0.927296  p :     2.119226
      px      :     0.398038
      py      :     0.793891
      dz2     :    -0.035176  d :    -0.206588
      dxz     :     0.044804
      dyz     :     0.002966
      dx2y2   :    -0.134012
      dxy     :    -0.085170
      f0      :     0.003027  f :     0.003110
      f+1     :    -0.000432
      f-1     :     0.001179
      f+2     :     0.010844
      f-2     :     0.006464
      f+3     :    -0.000209
      f-3     :    -0.017764

  2 C s       :     3.676138  s :     3.676138
      pz      :     0.986757  p :     2.633598
      px      :     0.757908
      py      :     0.888933
      dz2     :     0.019278  d :     0.306019
      dxz     :     0.035887
      dyz     :     0.016630
      dx2y2   :     0.028230
      dxy     :     0.205995
      f0      :    -0.000178  f :    -0.019378
      f+1     :    -0.000793
      f-1     :     0.000906
      f+2     :     0.001298
      f-2     :    -0.000576
      f+3     :    -0.002170
      f-3     :    -0.017865

  3 C s       :     3.881229  s :     3.881229
      pz      :     0.938242  p :     2.693003
      px      :     0.813321
      py      :     0.941440
      dz2     :    -0.023566  d :     0.318578
      dxz     :     0.026609
      dyz     :     0.004029
      dx2y2   :    -0.068766
      dxy     :     0.380272
      f0      :     0.000596  f :    -0.018875
      f+1     :    -0.000173
      f-1     :     0.000591
      f+2     :     0.001153
      f-2     :    -0.000670
      f+3     :    -0.001868
      f-3     :    -0.018504

  4 C s       :     2.676043  s :     2.676043
      pz      :     1.049123  p :     1.937025
      px      :     0.213190
      py      :     0.674712
      dz2     :     0.027013  d :     0.148451
      dxz     :    -0.062495
      dyz     :     0.010254
      dx2y2   :     0.297768
      dxy     :    -0.124090
      f0      :     0.001425  f :    -0.060618
      f+1     :    -0.005335
      f-1     :    -0.000683
      f+2     :     0.002116
      f-2     :     0.000020
      f+3     :    -0.028606
      f-3     :    -0.029555

  5 C s       :     4.059609  s :     4.059609
      pz      :     0.949990  p :     2.676948
      px      :     0.812723
      py      :     0.914235
      dz2     :    -0.026089  d :     0.303618
      dxz     :     0.016778
      dyz     :     0.006812
      dx2y2   :     0.024765
      dxy     :     0.281352
      f0      :     0.000848  f :    -0.023889
      f+1     :    -0.000279
      f-1     :     0.000585
      f+2     :     0.001392
      f-2     :    -0.001060
      f+3     :     0.000693
      f-3     :    -0.026067

  6 H s       :     1.236163  s :     1.236163
      pz      :     0.015116  p :     0.131790
      px      :     0.008512
      py      :     0.108162
      dz2     :    -0.000722  d :     0.005474
      dxz     :     0.000866
      dyz     :     0.003637
      dx2y2   :     0.001103
      dxy     :     0.000591

  7 C s       :     2.628330  s :     2.628330
      pz      :     1.105625  p :     2.242799
      px      :    -0.059634
      py      :     1.196809
      dz2     :     0.017653  d :    -0.045318
      dxz     :    -0.019081
      dyz     :     0.001671
      dx2y2   :     0.015367
      dxy     :    -0.060928
      f0      :     0.001004  f :    -0.017263
      f+1     :    -0.003950
      f-1     :    -0.000588
      f+2     :     0.000256
      f-2     :     0.000190
      f+3     :    -0.003004
      f-3     :    -0.011171

  8 C s       :     4.024501  s :     4.024501
      pz      :     0.991234  p :     2.569565
      px      :     0.549656
      py      :     1.028675
      dz2     :     0.004926  d :     0.042407
      dxz     :     0.000197
      dyz     :    -0.000041
      dx2y2   :     0.013698
      dxy     :     0.023627
      f0      :    -0.001591  f :    -0.004109
      f+1     :     0.000715
      f-1     :    -0.000153
      f+2     :    -0.002447
      f-2     :    -0.000068
      f+3     :     0.001438
      f-3     :    -0.002002

  9 H s       :     0.905397  s :     0.905397
      pz      :     0.022110  p :     0.076204
      px      :     0.028580
      py      :     0.025514
      dz2     :    -0.001501  d :     0.000819
      dxz     :     0.002828
      dyz     :     0.000024
      dx2y2   :    -0.003157
      dxy     :     0.002624

 10 H s       :     1.211043  s :     1.211043
      pz      :     0.015930  p :     0.111982
      px      :     0.001023
      py      :     0.095030
      dz2     :    -0.000711  d :     0.005543
      dxz     :     0.001525
      dyz     :     0.003031
      dx2y2   :     0.002179
      dxy     :    -0.000480

 11 H s       :     0.603591  s :     0.603591
      pz      :     0.022057  p :    -0.028867
      px      :    -0.022238
      py      :    -0.028686
      dz2     :    -0.000301  d :     0.005322
      dxz     :     0.001250
      dyz     :     0.003988
      dx2y2   :     0.000454
      dxy     :    -0.000067

 12 O s       :     4.243686  s :     4.243686
      pz      :     1.752682  p :     4.422950
      px      :     1.192706
      py      :     1.477562
      dz2     :     0.001079  d :     0.078165
      dxz     :     0.021936
      dyz     :     0.010665
      dx2y2   :     0.019060
      dxy     :     0.025425
      f0      :     0.000809  f :     0.006160
      f+1     :     0.000221
      f-1     :     0.000120
      f+2     :     0.000817
      f-2     :     0.000792
      f+3     :     0.001003
      f-3     :     0.002398

 13 C s       :     3.308525  s :     3.308525
      pz      :     1.053640  p :     2.766627
      px      :     0.881722
      py      :     0.831265
      dz2     :     0.014848  d :     0.160868
      dxz     :     0.003718
      dyz     :     0.083763
      dx2y2   :     0.048305
      dxy     :     0.010235
      f0      :     0.004212  f :     0.029880
      f+1     :     0.001244
      f-1     :     0.003049
      f+2     :     0.000319
      f-2     :     0.007580
      f+3     :    -0.000324
      f-3     :     0.013801

 14 H s       :     0.935556  s :     0.935556
      pz      :     0.008379  p :     0.035773
      px      :     0.017545
      py      :     0.009849
      dz2     :    -0.001334  d :     0.000768
      dxz     :     0.001414
      dyz     :     0.002427
      dx2y2   :     0.000634
      dxy     :    -0.002373

 15 H s       :     0.750485  s :     0.750485
      pz      :     0.011653  p :     0.026109
      px      :     0.005834
      py      :     0.008622
      dz2     :     0.002650  d :     0.006136
      dxz     :     0.001670
      dyz     :     0.000161
      dx2y2   :     0.000599
      dxy     :     0.001056

 16 H s       :     0.750077  s :     0.750077
      pz      :     0.011831  p :     0.026338
      px      :     0.005950
      py      :     0.008556
      dz2     :     0.002656  d :     0.006123
      dxz     :     0.001664
      dyz     :     0.000155
      dx2y2   :     0.000595
      dxy     :     0.001053

 17 H s       :     0.594815  s :     0.594815
      pz      :     0.016960  p :    -0.045077
      px      :    -0.030151
      py      :    -0.031886
      dz2     :     0.000517  d :     0.009140
      dxz     :     0.002389
      dyz     :     0.002557
      dx2y2   :     0.002550
      dxy     :     0.001128



                     *******************************
                     * LOEWDIN POPULATION ANALYSIS *
                     *******************************

----------------------
LOEWDIN ATOMIC CHARGES
----------------------
   0 C :    0.215967
   1 C :   -0.396992
   2 C :    0.210996
   3 C :    0.191814
   4 C :   -0.232778
   5 C :    0.198409
   6 H :   -0.168401
   7 C :   -0.028846
   8 C :    0.397894
   9 H :   -0.295042
  10 H :   -0.169863
  11 H :   -0.176155
  12 O :    0.601782
  13 C :    0.365165
  14 H :   -0.177088
  15 H :   -0.169989
  16 H :   -0.169975
  17 H :   -0.196898

-------------------------------
LOEWDIN REDUCED ORBITAL CHARGES
-------------------------------
  0 C s       :     2.475129  s :     2.475129
      pz      :     0.627485  p :     2.290796
      px      :     0.836013
      py      :     0.827299
      dz2     :     0.069828  d :     0.679201
      dxz     :     0.096243
      dyz     :     0.065651
      dx2y2   :     0.198936
      dxy     :     0.248543
      f0      :     0.021052  f :     0.338907
      f+1     :     0.028182
      f-1     :     0.024324
      f+2     :     0.054952
      f-2     :     0.021305
      f+3     :     0.067603
      f-3     :     0.121489

  1 C s       :     2.462139  s :     2.462139
      pz      :     0.611591  p :     2.215561
      px      :     0.725383
      py      :     0.878587
      dz2     :     0.100341  d :     1.077799
      dxz     :     0.193662
      dyz     :     0.130817
      dx2y2   :     0.335276
      dxy     :     0.317704
      f0      :     0.037921  f :     0.641492
      f+1     :     0.048512
      f-1     :     0.035840
      f+2     :     0.088773
      f-2     :     0.071022
      f+3     :     0.111030
      f-3     :     0.248395

  2 C s       :     2.486018  s :     2.486018
      pz      :     0.621889  p :     2.291758
      px      :     0.845106
      py      :     0.824762
      dz2     :     0.068461  d :     0.667804
      dxz     :     0.106664
      dyz     :     0.052680
      dx2y2   :     0.209641
      dxy     :     0.230357
      f0      :     0.021293  f :     0.343425
      f+1     :     0.030910
      f-1     :     0.022513
      f+2     :     0.041645
      f-2     :     0.034451
      f+3     :     0.070016
      f-3     :     0.122598

  3 C s       :     2.482908  s :     2.482908
      pz      :     0.590241  p :     2.266857
      px      :     0.849382
      py      :     0.827235
      dz2     :     0.069353  d :     0.712934
      dxz     :     0.109898
      dyz     :     0.071127
      dx2y2   :     0.191321
      dxy     :     0.271236
      f0      :     0.020756  f :     0.345487
      f+1     :     0.028468
      f-1     :     0.023429
      f+2     :     0.056302
      f-2     :     0.022008
      f+3     :     0.064037
      f-3     :     0.130486

  4 C s       :     2.470959  s :     2.470959
      pz      :     0.656022  p :     2.334839
      px      :     0.825613
      py      :     0.853205
      dz2     :     0.084436  d :     0.938210
      dxz     :     0.140093
      dyz     :     0.117251
      dx2y2   :     0.334169
      dxy     :     0.262261
      f0      :     0.032991  f :     0.488769
      f+1     :     0.033539
      f-1     :     0.033003
      f+2     :     0.049800
      f-2     :     0.060974
      f+3     :     0.088733
      f-3     :     0.189729

  5 C s       :     2.481403  s :     2.481403
      pz      :     0.588206  p :     2.261493
      px      :     0.846101
      py      :     0.827187
      dz2     :     0.068739  d :     0.712148
      dxz     :     0.129021
      dyz     :     0.053935
      dx2y2   :     0.224615
      dxy     :     0.235838
      f0      :     0.020962  f :     0.346548
      f+1     :     0.030287
      f-1     :     0.021662
      f+2     :     0.040639
      f-2     :     0.038149
      f+3     :     0.067012
      f-3     :     0.127837

  6 H s       :     0.654169  s :     0.654169
      pz      :     0.077425  p :     0.298775
      px      :     0.090840
      py      :     0.130509
      dz2     :     0.023552  d :     0.215457
      dxz     :     0.014151
      dyz     :     0.048951
      dx2y2   :     0.065931
      dxy     :     0.062873

  7 C s       :     2.596073  s :     2.596073
      pz      :     0.721540  p :     2.490284
      px      :     1.053291
      py      :     0.715453
      dz2     :     0.065887  d :     0.681744
      dxz     :     0.222723
      dyz     :     0.006769
      dx2y2   :     0.165581
      dxy     :     0.220784
      f0      :     0.024955  f :     0.260745
      f+1     :     0.039687
      f-1     :     0.006731
      f+2     :     0.041724
      f-2     :     0.004550
      f+3     :     0.064425
      f-3     :     0.078673

  8 C s       :     2.664008  s :     2.664008
      pz      :     0.736189  p :     2.517386
      px      :     1.057071
      py      :     0.724126
      dz2     :     0.032193  d :     0.278896
      dxz     :     0.076032
      dyz     :     0.000778
      dx2y2   :     0.098814
      dxy     :     0.071079
      f0      :     0.014559  f :     0.141816
      f+1     :     0.024144
      f-1     :     0.002390
      f+2     :     0.023570
      f-2     :     0.000918
      f+3     :     0.041715
      f-3     :     0.034520

  9 H s       :     0.743049  s :     0.743049
      pz      :     0.092068  p :     0.342949
      px      :     0.164596
      py      :     0.086286
      dz2     :     0.017776  d :     0.209044
      dxz     :     0.068988
      dyz     :     0.000614
      dx2y2   :     0.053935
      dxy     :     0.067731

 10 H s       :     0.655504  s :     0.655504
      pz      :     0.077609  p :     0.299103
      px      :     0.101203
      py      :     0.120291
      dz2     :     0.023442  d :     0.215256
      dxz     :     0.023847
      dyz     :     0.039322
      dx2y2   :     0.077823
      dxy     :     0.050822

 11 H s       :     0.659997  s :     0.659997
      pz      :     0.081426  p :     0.299174
      px      :     0.089792
      py      :     0.127956
      dz2     :     0.023061  d :     0.216985
      dxz     :     0.015798
      dyz     :     0.049378
      dx2y2   :     0.067257
      dxy     :     0.061490

 12 O s       :     2.991906  s :     2.991906
      pz      :     1.368942  p :     3.834927
      px      :     1.176684
      py      :     1.289301
      dz2     :     0.040266  d :     0.449155
      dxz     :     0.081588
      dyz     :     0.052416
      dx2y2   :     0.139636
      dxy     :     0.135249
      f0      :     0.012451  f :     0.122230
      f+1     :     0.010355
      f-1     :     0.004440
      f+2     :     0.014375
      f-2     :     0.013839
      f+3     :     0.025836
      f-3     :     0.040933

 13 C s       :     2.461516  s :     2.461516
      pz      :     0.808958  p :     2.208785
      px      :     0.721892
      py      :     0.677935
      dz2     :     0.100568  d :     0.657022
      dxz     :     0.041799
      dyz     :     0.192489
      dx2y2   :     0.173841
      dxy     :     0.148326
      f0      :     0.034544  f :     0.307511
      f+1     :     0.024020
      f-1     :     0.036799
      f+2     :     0.011475
      f-2     :     0.058308
      f+3     :     0.060070
      f-3     :     0.082296

 14 H s       :     0.654345  s :     0.654345
      pz      :     0.089218  p :     0.299142
      px      :     0.129019
      py      :     0.080905
      dz2     :     0.016360  d :     0.223601
      dxz     :     0.064502
      dyz     :     0.028739
      dx2y2   :     0.042675
      dxy     :     0.071325

 15 H s       :     0.639061  s :     0.639061
      pz      :     0.132325  p :     0.307911
      px      :     0.086489
      py      :     0.089097
      dz2     :     0.077865  d :     0.223017
      dxz     :     0.039449
      dyz     :     0.046334
      dx2y2   :     0.022632
      dxy     :     0.036737

 16 H s       :     0.639058  s :     0.639058
      pz      :     0.132201  p :     0.307905
      px      :     0.086459
      py      :     0.089245
      dz2     :     0.077882  d :     0.223012
      dxz     :     0.039322
      dyz     :     0.046241
      dx2y2   :     0.022694
      dxy     :     0.036873

 17 H s       :     0.637365  s :     0.637365
      pz      :     0.086699  p :     0.325333
      px      :     0.120903
      py      :     0.117732
      dz2     :     0.024651  d :     0.234199
      dxz     :     0.026362
      dyz     :     0.042894
      dx2y2   :     0.086166
      dxy     :     0.054127



                      *****************************
                      * MAYER POPULATION ANALYSIS *
                      *****************************

  NA   - Mulliken gross atomic population
  ZA   - Total nuclear charge
  QA   - Mulliken gross atomic charge
  VA   - Mayer's total valence
  BVA  - Mayer's bonded valence
  FA   - Mayer's free valence

  ATOM       NA         ZA         QA         VA         BVA        FA
  0 C      6.1053     6.0000    -0.1053     2.7466     2.7466    -0.0000
  1 C      4.8888     6.0000     1.1112     1.8600     1.8600    -0.0000
  2 C      6.5964     6.0000    -0.5964     3.5792     3.5792     0.0000
  3 C      6.8739     6.0000    -0.8739     3.5185     3.5185    -0.0000
  4 C      4.7009     6.0000     1.2991     2.6052     2.6052     0.0000
  5 C      7.0163     6.0000    -1.0163     3.0616     3.0616     0.0000
  6 H      1.3734     1.0000    -0.3734     1.6202     1.6202     0.0000
  7 C      4.8085     6.0000     1.1915     1.2509     1.2509     0.0000
  8 C      6.6324     6.0000    -0.6324     3.3368     3.3368    -0.0000
  9 H      0.9824     1.0000     0.0176     1.1246     1.1246    -0.0000
 10 H      1.3286     1.0000    -0.3286     1.5983     1.5983     0.0000
 11 H      0.5800     1.0000     0.4200     0.5623     0.5623    -0.0000
 12 O      8.7510     8.0000    -0.7510     1.3672     1.3672     0.0000
 13 C      6.2659     6.0000    -0.2659     3.9420     3.9420     0.0000
 14 H      0.9721     1.0000     0.0279     1.0755     1.0755     0.0000
 15 H      0.7827     1.0000     0.2173     0.9477     0.9477     0.0000
 16 H      0.7825     1.0000     0.2175     0.9482     0.9482     0.0000
 17 H      0.5589     1.0000     0.4411     0.4947     0.4947    -0.0000

  Mayer bond orders larger than 0.100000
B(  0-C ,  1-C ) :   1.0785 B(  0-C ,  2-C ) :   0.1821 B(  0-C ,  4-C ) :   0.4614 
B(  0-C ,  5-C ) :   1.2304 B(  0-C ,  6-H ) :  -0.1340 B(  0-C ,  8-C ) :  -0.1748 
B(  0-C , 17-H ) :   0.3867 B(  1-C ,  2-C ) :   0.9074 B(  1-C ,  3-C ) :  -0.4517 
B(  1-C ,  4-C ) :  -0.1086 B(  1-C ,  5-C ) :  -0.3778 B(  1-C ,  7-C ) :   0.2357 
B(  1-C , 11-H ) :   0.2070 B(  1-C , 13-C ) :   0.1093 B(  1-C , 17-H ) :   0.2143 
B(  2-C ,  3-C ) :   1.5467 B(  2-C ,  4-C ) :   0.3631 B(  2-C ,  8-C ) :  -0.1504 
B(  2-C , 11-H ) :   0.3815 B(  2-C , 12-O ) :   0.3763 B(  3-C ,  4-C ) :   0.4865 
B(  3-C ,  5-C ) :  -0.5069 B(  3-C ,  6-H ) :   0.1487 B(  3-C ,  7-C ) :   0.3627 
B(  3-C , 10-H ) :   1.8261 B(  4-C ,  5-C ) :   0.4616 B(  4-C ,  7-C ) :  -0.1766 
B(  4-C ,  8-C ) :   0.7029 B(  4-C ,  9-H ) :   0.1186 B(  4-C , 11-H ) :   0.1065 
B(  4-C , 12-O ) :   0.1240 B(  5-C ,  6-H ) :   2.0269 B(  5-C ,  7-C ) :   0.2960 
B(  5-C , 10-H ) :   0.1479 B(  5-C , 17-H ) :  -0.1795 B(  6-H ,  7-C ) :  -0.2646 
B(  6-H ,  8-C ) :  -0.3323 B(  6-H , 10-H ) :   0.5150 B(  7-C ,  8-C ) :   1.7243 
B(  7-C ,  9-H ) :  -0.4299 B(  7-C , 10-H ) :  -0.3200 B(  8-C ,  9-H ) :   1.5027 
B(  8-C , 10-H ) :  -0.3253 B(  8-C , 11-H ) :   0.1443 B(  8-C , 17-H ) :   0.2207 
B( 12-O , 13-C ) :   0.9638 B( 13-C , 14-H ) :   1.0910 B( 13-C , 15-H ) :   0.9150 
B( 13-C , 16-H ) :   0.9152 

-------
TIMINGS
-------

Total SCF time: 0 days 0 hours 5 min 37 sec 

Total time                  ....     337.703 sec
Sum of individual times     ....     330.265 sec  ( 97.8%)

SCF preparation             ....       3.778 sec  (  1.1%)
Fock matrix formation       ....     229.295 sec  ( 67.9%)
  Startup                   ....      17.088 sec  (  7.5% of F)
  Split-RI-J                ....      32.989 sec  ( 14.4% of F)
  Chain of spheres X        ....      97.636 sec  ( 42.6% of F)
  XC integration            ....      50.073 sec  ( 21.8% of F)
    XC Preparation          ....       0.000 sec  (  0.0% of XC)
    Basis function eval.    ....       3.239 sec  (  6.5% of XC)
    Density eval.           ....      14.457 sec  ( 28.9% of XC)
    XC-Functional eval.     ....       0.395 sec  (  0.8% of XC)
    XC-Potential eval.      ....      19.454 sec  ( 38.9% of XC)
  CPCM terms                ....      12.247 sec  (  5.3% of F)
Diagonalization             ....       0.000 sec  (  0.0%)
Density matrix formation    ....      26.593 sec  (  7.9%)
Total Energy calculation    ....      17.220 sec  (  5.1%)
Population analysis         ....       4.591 sec  (  1.4%)
Orbital Transformation      ....       3.169 sec  (  0.9%)
Orbital Orthonormalization  ....       0.000 sec  (  0.0%)
DIIS solution               ....      37.985 sec  ( 11.2%)
SOSCF solution              ....       7.634 sec  (  2.3%)
Finished LeanSCF after 340.5 sec

Maximum memory used throughout the entire LEANSCF-calculation: 87.1 MB


           ************************************************************
           *        Program running with 12 parallel MPI-processes    *
           *              working on a common directory               *
           ************************************************************

------------------------------------------------------------------------------
                         ORCA PROPERTY INTEGRAL CALCULATIONS
------------------------------------------------------------------------------

GBWName                                   ... cs_rporg_002_red_freq_08.gbw
Number of atoms                           ...     18
Number of basis functions                 ...    704
Max core memory                           ...   5000 MB

Dipole integrals                          ... YES
Quadrupole integrals                      ...  NO
Linear momentum integrals                 ...  NO
Angular momentum integrals                ...  NO
Higher moments length integrals           ...  NO
Higher moments velocity integrals         ...  NO
Kinetic energy integrals                  ...  NO
GIAO right hand sides                     ...  NO
GIAO dipole derivative integrals          ...  NO
SOC integrals                             ...  NO
EPR diamagnetic integrals (GIAO)          ...  NO
EPR gauge integrals                       ...  NO
Field gradient integrals                  ...  NO (   0 nuclei)
Spin-dipole/Fermi contact integrals       ...  NO (   0 nuclei)
Contact density integrals                 ...  NO (   0 nuclei)
Nucleus-orbit integrals                   ...  NO (   0 nuclei)
Geometric perturbations                   ... YES (  18 nuclei)

Choice of electric origin   ... Center of mass
Position of electric origin ... ( -0.0061,  0.0065,  0.0005) 
Choice of magnetic origin   ... GIAO
Position of magnetic origin ... (  0.0000,  0.0000,  0.0000) 

Calculating integrals                     ... Electric Dipole (Length)     done (  0.5 sec)
Calculating integrals                     ... Geometrical perturbation right hand sides

-----------------------
GEOMETRIC PERTURBATIONS (18 nuclei)
-----------------------

MaxCore                            ...   5000 MB
Number of batches                  ...      1

BATCH   0: Atoms    0 -   17 ( 54 perturbations)
   => H(core) and overlap derivative integrals     ... done (     1.3 sec)
   => Making and storing internal U-coefficients   ... done (     0.4 sec)
   => RI-J derivative integrals                    ... done (    52.5 sec)
   => RI-J response operators                      ... done (     4.4 sec)
   => Chain of spheres derivative integrals        ... done (    36.3 sec)
   => Chain of spheres response operator           ... done (    59.9 sec)
   => XC derivative integrals                      ... done (   417.2 sec)
   => XC response operators                        ... done (   112.3 sec)
   => CPCM derivative integrals                    ... done (    10.4 sec)
   => CPCM response operators                      ... done (    17.1 sec)
   => Completing and storing right hand sides      ... done (     1.0 sec)
   => Total time for right hand sides = 712.0 sec

  geometrical perturbations done (713.6 sec)

Property integrals calculated in 714.2 sec

Maximum memory used throughout the entire PROPINT-calculation: 1762.9 MB


-------------------------------------------------------------------------------
                          DFT DISPERSION CORRECTION                            
                                                                               
                              DFTD3 V3.1  Rev 1                                
                          USING Becke-Johnson damping                          
-------------------------------------------------------------------------------
The TPSSH functional is recognized
Active option DFTDOPT                   ...         4   

molecular C6(AA) [au] = 3889.081181 


            DFT-D V3
 parameters
 s6 scaling factor         :     1.0000 
 a1 scaling factor         :     0.4529 
 s8 scaling factor         :     2.2382 
 a2 scaling factor         :     4.6550 
 ad hoc parameters k1-k3   :    16.0000     1.3333    -4.0000 

 Edisp/kcal,au: -13.394285001580  -0.021345149558 
 E6   /kcal   :  -6.321499181 
 E8   /kcal   :  -7.072785821 
 % E8         :  52.804504458 

-------------------------   ----------------
Dispersion correction           -0.021345150
-------------------------   ----------------


-------------------------   --------------------
FINAL SINGLE POINT ENERGY      -423.128179409835
-------------------------   --------------------



           ************************************************************
           *        Program running with 12 parallel MPI-processes    *
           *              working on a common directory               *
           ************************************************************
------------------------------------------------------------------------------
                            ORCA SCF RESPONSE CALCULATION
------------------------------------------------------------------------------

GBWName                                 ... cs_rporg_002_red_freq_08.gbw
Number of atoms                         ...     18
Number of basis functions               ...    704
Max core memory                         ...   5000 MB

Electric field perturbation             ...  NO
Quadrupolar field perturbation          ...  NO
Magnetic field perturbation (no GIAO)   ...  NO
Magnetic field perturbation (with GIAO) ...  NO
Linear momentum (velocity) perturbation ...  NO
Spin-orbit coupling perturbation        ...  NO
Choice of electric origin               ... Center of mass
Position of electric origin             ...    -0.006132     0.006549     0.000523
Choice of magnetic origin               ... GIAO
Position of magnetic origin             ...     0.000000     0.000000     0.000000
Nuclear geometric perturbations         ... YES (  54 perturbations)
Nucleus-orbit perturbations             ...  NO (   0 perturbations)
Spin-dipole/Fermi contact perturbations ...  NO (   0 perturbations)

Total number of real perturbations      ...     54
Total number of imaginary perturbations ...      0
Total number of triplet perturbations   ...      0
Total number of SOC perturbations       ...      0

Using XC Grid                  ... (cs_rporg_002_red_freq_08.grid_cpscf.tmp) 
Recalculating density on grid  ... (cs_rporg_002_red_freq_08.grho_cpscf0.tmp) done
Calculating the xc-kernel      ... (cs_rporg_002_red_freq_08.fxc_cpscf0.tmp) done

                                **********************
                                * REAL PERTURBATIONS *
                                **********************



-------------------
SHARK CP-SCF DRIVER
-------------------

Dimension of the orbital basis          ...    644
Dimension of the CPSCF-problem          ...  21315
Number of operators                     ...      1
Max. number of iterations               ...    128
Max. DIIS space dimension               ...     20
Convergence Tolerance                   ... 1.0e-04
Number of perturbations                 ...     54
Perturbation type                       ... REAL

--------------------
DIIS EQUATION SOLVER
--------------------

  ITERATION   0:   ||err||_max =   3.4070e-01 ( 123.9 sec   0/ 54 done)
  ITERATION   1:   ||err||_max =   3.2190e-01 ( 122.2 sec   0/ 54 done)
  ITERATION   2:   ||err||_max =   3.8365e-02 ( 121.1 sec   0/ 54 done)
  ITERATION   3:   ||err||_max =   1.0210e-02 ( 123.4 sec   0/ 54 done)
  ITERATION   4:   ||err||_max =   3.6251e-03 ( 109.5 sec   1/ 54 done)
  ITERATION   5:   ||err||_max =   1.1815e-03 ( 133.1 sec   7/ 54 done)
  ITERATION   6:   ||err||_max =   5.6572e-04 ( 123.7 sec  21/ 54 done)
  ITERATION   7:   ||err||_max =   2.4105e-04 (  92.4 sec  33/ 54 done)
  ITERATION   8:   ||err||_max =   1.0885e-04 (  61.8 sec  51/ 54 done)
  ITERATION   9:   ||err||_max =   4.6385e-05 (  16.8 sec  54/ 54 done)

CP-SCF equations solved in 1060.2 sec
Response densities calculated in   1.4 sec

Maximum memory used throughout the entire SCFRESP-calculation: 1707.9 MB


           ************************************************************
           *        Program running with 12 parallel MPI-processes    *
           *              working on a common directory               *
           ************************************************************

------------------------------------------------------------------------------
                              ORCA PROPERTY CALCULATIONS
------------------------------------------------------------------------------

GBWName                                 ... cs_rporg_002_red_freq_08.gbw
Number of atoms                         ...     18
Number of basis functions               ...    704
Max core memory                         ...   5000 MB

Electric properties:
Dipole moment                           ... YES
Quadrupole moment                       ...  NO
Static polarizability (Dipole/Dipole)   ...  NO
Static polarizability (Dipole/Quad.)    ...  NO
Static polarizability (Quad./Quad.)     ...  NO
Static polarizability (Velocity)        ...  NO

Atomic electric properties:
Dipole moment                           ...  NO
Quadrupole moment                       ...  NO
Static polarizability                   ...  NO

Choice of electric origin               ... Center of mass
Position of electric origin             ...    -0.006132     0.006549     0.000523

[...]
     29       0.000000  -0.000000  -0.000003   0.000004   0.000002  -0.000766
     30      -0.000066   0.391177  -0.066418  -0.414632  -0.018195  -0.001139
     31      -0.000073   0.558090  -0.093076  -0.584708  -0.026121  -0.001943
     32       0.000000  -0.000434   0.000081   0.000440   0.000020  -0.000003
     33       0.001083   0.300642  -0.016268   0.291299   0.000513   0.000558
     34      -0.002537  -0.652711   0.035252  -0.624157  -0.002762  -0.000768
     35       0.000001   0.000114  -0.000000   0.000113   0.000004   0.000004
     36      -0.000177   0.000014  -0.000197   0.000392   0.000065   0.000224
     37      -0.000321   0.000117  -0.000024   0.000258  -0.000427  -0.000007
     38       0.000002  -0.000001   0.000002  -0.000001   0.000000   0.000002
     39      -0.077964   0.000485   0.001160   0.000111   0.001628  -0.000081
     40       0.049617  -0.000131  -0.000840  -0.000193  -0.001889  -0.000121
     41      -0.000106  -0.000001   0.000006  -0.000003  -0.000011   0.000002
     42       0.869836  -0.003772  -0.012577   0.000334  -0.018268   0.000444
     43      -0.357599   0.001988   0.005938   0.000307   0.010007  -0.000099
     44       0.000216   0.000001   0.000011  -0.000003   0.000032   0.000003
     45       0.024556  -0.000254  -0.001245  -0.000099  -0.003903  -0.000053
     46      -0.115033  -0.000279   0.002894   0.000321   0.008302   0.000494
     47      -0.196933   0.000146   0.005227   0.000503   0.013629   0.000505
     48       0.024475  -0.000256  -0.001302  -0.000081  -0.004019  -0.000048
     49      -0.116291  -0.000287   0.002998   0.000288   0.008339   0.000484
     50       0.197974  -0.000122  -0.005328  -0.000454  -0.013515  -0.000487
     51       0.018407   0.026484   0.148825  -0.022778   0.544359   0.000735
     52       0.024627   0.040095   0.219998  -0.032073   0.788669   0.000711
     53      -0.000048  -0.000025  -0.000173   0.000028  -0.000546  -0.000003


-----------
IR SPECTRUM
-----------

 Mode   freq       eps      Int      T**2         TX        TY        TZ
       cm**-1   L/(mol*cm) km/mol    a.u.
----------------------------------------------------------------------------
  6:     67.08   0.000577    2.92  0.002684  (-0.000260 -0.000555  0.051808)
  7:    120.42   0.000335    1.69  0.000868  ( 0.000936 -0.002179 -0.029363)
  8:    128.39   0.000467    2.36  0.001134  (-0.008654  0.032482 -0.002089)
  9:    203.98   0.000223    1.13  0.000341  (-0.000721 -0.000059  0.018465)
 10:    248.11   0.000589    2.98  0.000741  ( 0.027145  0.001237  0.001607)
 11:    268.19   0.001978   10.00  0.002302  ( 0.000358 -0.000032 -0.047973)
 12:    382.04   0.000417    2.11  0.000341  ( 0.017256 -0.006569  0.000023)
 13:    416.51   0.000001    0.00  0.000001  ( 0.000126 -0.000119  0.000778)
 14:    460.47   0.001965    9.93  0.001332  ( 0.000074 -0.000018  0.036495)
 15:    489.91   0.002735   13.82  0.001742  (-0.034020  0.024180 -0.000194)
 16:    533.95   0.001297    6.56  0.000758  ( 0.013743  0.023837 -0.001043)
 17:    543.83   0.007132   36.04  0.004093  (-0.000054 -0.000235 -0.063973)
 18:    589.57   0.015014   75.88  0.007947  ( 0.000230 -0.002440  0.089113)
 19:    643.90   0.001847    9.34  0.000895  (-0.001995 -0.029851 -0.000519)
 20:    670.29   0.014526   73.41  0.006763  (-0.008730 -0.081741 -0.002270)
 21:    695.97   0.007488   37.84  0.003357  (-0.055937  0.015114  0.000071)
 22:    739.08   0.000036    0.18  0.000015  ( 0.000113  0.000132  0.003895)
 23:    820.19   0.001464    7.40  0.000557  ( 0.000164  0.000017 -0.023601)
 24:    825.24   0.000840    4.24  0.000317  (-0.013653  0.011449 -0.000048)
 25:    846.17   0.024500  123.81  0.009036  (-0.000037  0.000142  0.095055)
 26:    959.74   0.000169    0.86  0.000055  (-0.000133 -0.000185 -0.007416)
 27:    979.11   0.000003    0.01  0.000001  (-0.000022  0.000439 -0.000829)
 28:   1017.77   0.000024    0.12  0.000007  (-0.000713  0.002590  0.000187)
 29:   1030.29   0.027503  138.99  0.008330  ( 0.074211  0.053132  0.000033)
 30:   1119.58   0.004561   23.05  0.001271  (-0.006706  0.035020  0.000039)
 31:   1162.98   0.000334    1.69  0.000090  (-0.000845  0.000322 -0.009424)
 32:   1178.28   0.021966  111.01  0.005818  ( 0.075979  0.006699 -0.000101)
 33:   1199.91   0.002441   12.33  0.000635  ( 0.022366  0.011598  0.000004)
 34:   1221.13   0.000048    0.24  0.000012  ( 0.003084  0.001696  0.000010)
 35:   1271.61   0.105403  532.66  0.025867  (-0.160303 -0.013027 -0.000053)
 36:   1321.72   0.001096    5.54  0.000259  (-0.012653 -0.009932 -0.000019)
 37:   1337.97   0.010084   50.96  0.002352  ( 0.048220  0.005186  0.000031)
 38:   1440.69   0.001345    6.79  0.000291  ( 0.017035  0.001024  0.000038)
 39:   1469.96   0.007648   38.65  0.001624  (-0.039483  0.008037 -0.000405)
 40:   1484.79   0.002583   13.05  0.000543  (-0.004318  0.000527  0.022892)
 41:   1491.14   0.006431   32.50  0.001346  (-0.036319  0.004691 -0.002170)
 42:   1530.03   0.044679  225.79  0.009113  ( 0.095448  0.001493 -0.000036)
 43:   1593.23   0.005388   27.23  0.001055  (-0.025444  0.020199  0.000003)
 44:   1635.34   0.042145  212.98  0.008042  ( 0.089639  0.002667 -0.000023)
 45:   2172.35   0.023818  120.36  0.003421  ( 0.058377 -0.003680 -0.000003)
 46:   3021.39   0.015561   78.64  0.001607  (-0.030362 -0.026178 -0.000279)
 47:   3088.91   0.009955   50.31  0.001006  ( 0.000070  0.000140  0.031713)
 48:   3142.91   0.005712   28.86  0.000567  (-0.021227  0.010795 -0.000024)
 49:   3178.63   0.001883    9.52  0.000185  (-0.013585 -0.000594 -0.000065)
 50:   3182.46   0.001817    9.18  0.000178  (-0.007133  0.011284 -0.000078)
 51:   3193.48   0.002157   10.90  0.000211  (-0.001936  0.014390 -0.000034)
 52:   3209.28   0.001287    6.50  0.000125  (-0.008685 -0.007051  0.000046)
 53:   3429.26   0.044326  224.00  0.004034  ( 0.063293 -0.005253 -0.000095)

* The epsilon (eps) is given for a Dirac delta lineshape.
** The dipole moment derivative (T) already includes vibrational overlap.

The first frequency considered to be a vibration is 6
The total number of vibrations considered is 48


--------------------------
THERMOCHEMISTRY AT 298.15K
--------------------------

Temperature         ...   298.15 K
Pressure            ...     1.00 atm
Total Mass          ...   132.16 AMU
Quasi RRHO          ...     True
Cut-Off Frequency   ...     1.00 cm^-1

Throughout the following assumptions are being made:
  (1) The electronic state is orbitally nondegenerate
  (2) There are no thermally accessible electronically excited states
  (3) Hindered rotations indicated by low frequency modes are not
      treated as such but are treated as vibrations and this may
      cause some error
  (4) All equations used are the standard statistical mechanics
      equations for an ideal gas
  (5) All vibrations are strictly harmonic

freq.      67.08  E(vib)   ...       0.50 
freq.     120.42  E(vib)   ...       0.44 
freq.     128.39  E(vib)   ...       0.43 
freq.     203.98  E(vib)   ...       0.35 
freq.     248.11  E(vib)   ...       0.31 
freq.     268.19  E(vib)   ...       0.29 
freq.     382.04  E(vib)   ...       0.21 
freq.     416.51  E(vib)   ...       0.18 
freq.     460.47  E(vib)   ...       0.16 
freq.     489.91  E(vib)   ...       0.15 
freq.     533.95  E(vib)   ...       0.13 
freq.     543.83  E(vib)   ...       0.12 
freq.     589.57  E(vib)   ...       0.10 
freq.     643.90  E(vib)   ...       0.09 
freq.     670.29  E(vib)   ...       0.08 
freq.     695.97  E(vib)   ...       0.07 
freq.     739.08  E(vib)   ...       0.06 
freq.     820.19  E(vib)   ...       0.05 
freq.     825.24  E(vib)   ...       0.04 
freq.     846.17  E(vib)   ...       0.04 
freq.     959.74  E(vib)   ...       0.03 
freq.     979.11  E(vib)   ...       0.03 
freq.    1017.77  E(vib)   ...       0.02 
freq.    1030.29  E(vib)   ...       0.02 
freq.    1119.58  E(vib)   ...       0.01 
freq.    1162.98  E(vib)   ...       0.01 
freq.    1178.28  E(vib)   ...       0.01 
freq.    1199.91  E(vib)   ...       0.01 
freq.    1221.13  E(vib)   ...       0.01 
freq.    1271.61  E(vib)   ...       0.01 
freq.    1321.72  E(vib)   ...       0.01 
freq.    1337.97  E(vib)   ...       0.01 
freq.    1440.69  E(vib)   ...       0.00 
freq.    1469.96  E(vib)   ...       0.00 
freq.    1484.79  E(vib)   ...       0.00 
freq.    1491.14  E(vib)   ...       0.00 
freq.    1530.03  E(vib)   ...       0.00 
freq.    1593.23  E(vib)   ...       0.00 
freq.    1635.34  E(vib)   ...       0.00 
freq.    2172.35  E(vib)   ...       0.00 
freq.    3021.39  E(vib)   ...       0.00 
freq.    3088.91  E(vib)   ...       0.00 
freq.    3142.91  E(vib)   ...       0.00 
freq.    3178.63  E(vib)   ...       0.00 
freq.    3182.46  E(vib)   ...       0.00 
freq.    3193.48  E(vib)   ...       0.00 
freq.    3209.28  E(vib)   ...       0.00 
freq.    3429.26  E(vib)   ...       0.00 

------------
INNER ENERGY
------------

The inner energy is: U= E(el) + E(ZPE) + E(vib) + E(rot) + E(trans)
    E(el)   - is the total energy from the electronic structure calculation
              = E(kin-el) + E(nuc-el) + E(el-el) + E(nuc-nuc)
    E(ZPE)  - the the zero temperature vibrational energy from the frequency calculation
    E(vib)  - the the finite temperature correction to E(ZPE) due to population
              of excited vibrational states
    E(rot)  - is the rotational thermal energy
    E(trans)- is the translational thermal energy

Summary of contributions to the inner energy U:
Electronic energy                ...   -423.12817941 Eh
Zero point energy                ...      0.14069335 Eh      88.29 kcal/mol
Thermal vibrational correction   ...      0.00634362 Eh       3.98 kcal/mol
Thermal rotational correction    ...      0.00141627 Eh       0.89 kcal/mol
Thermal translational correction ...      0.00141627 Eh       0.89 kcal/mol
-----------------------------------------------------------------------
Total thermal energy                   -422.97830990 Eh


Summary of corrections to the electronic energy:
(perhaps to be used in another calculation)
Total thermal correction                  0.00917617 Eh       5.76 kcal/mol
Non-thermal (ZPE) correction              0.14069335 Eh      88.29 kcal/mol
-----------------------------------------------------------------------
Total correction                          0.14986951 Eh      94.04 kcal/mol


--------
ENTHALPY
--------

The enthalpy is H = U + kB*T
                kB is Boltzmann's constant
Total thermal energy              ...   -422.97830990 Eh 
Thermal Enthalpy correction       ...      0.00094421 Eh       0.59 kcal/mol
-----------------------------------------------------------------------
Total Enthalpy                    ...   -422.97736569 Eh


Note: Only C1 symmetry has been detected, increase convergence thresholds 
      if your molecule has a higher symmetry. Symmetry factor of 1.0 is   
      used for the rotational entropy correction. 
 

Note: Rotational entropy computed according to Herzberg 
Infrared and Raman Spectra, Chapter V,1, Van Nostrand Reinhold, 1945 
Point Group:  C1, Symmetry Number:   1  
Rotational constants in cm-1:     0.160739     0.023678     0.020720 

Vibrational entropy computed according to the QRRHO of S. Grimme
Chem.Eur.J. 2012 18 9955 using a reference frequency of 100.0 cm-1


-------
ENTROPY
-------

The entropy contributions are T*S = T*(S(el)+S(vib)+S(rot)+S(trans))
     S(el)   - electronic entropy
     S(vib)  - vibrational entropy
     S(rot)  - rotational entropy
     S(trans)- translational entropy
The entropies will be listed as multiplied by the temperature to get
units of energy

Electronic entropy                ...      0.00000000 Eh      0.00 kcal/mol
Vibrational entropy               ...      0.01060753 Eh      6.66 kcal/mol
Rotational entropy                ...      0.01397105 Eh      8.77 kcal/mol
Translational entropy             ...      0.01926618 Eh     12.09 kcal/mol
-----------------------------------------------------------------------
Final entropy term                ...      0.04384476 Eh     27.51 kcal/mol

In case the symmetry of your molecule has not been determined correctly
or in case you have a reason to use a different symmetry number we print 
out the resulting rotational entropy values for sn=1,12:

 non-linear molecules -----------------------------------
|  sn= 1 | S(rot)=       0.01397105 Eh      8.77 kcal/mol|
|  sn= 2 | S(rot)=       0.01331659 Eh      8.36 kcal/mol|
|  sn= 3 | S(rot)=       0.01293376 Eh      8.12 kcal/mol|
|  sn= 4 | S(rot)=       0.01266214 Eh      7.95 kcal/mol|
|  sn= 5 | S(rot)=       0.01245145 Eh      7.81 kcal/mol|
|  sn= 6 | S(rot)=       0.01227930 Eh      7.71 kcal/mol|
|  sn= 7 | S(rot)=       0.01213376 Eh      7.61 kcal/mol|
|  sn= 8 | S(rot)=       0.01200768 Eh      7.53 kcal/mol|
|  sn= 9 | S(rot)=       0.01189647 Eh      7.47 kcal/mol|
|  sn=10 | S(rot)=       0.01179699 Eh      7.40 kcal/mol|
|  sn=11 | S(rot)=       0.01170700 Eh      7.35 kcal/mol|
|  sn=12 | S(rot)=       0.01162485 Eh      7.29 kcal/mol|
 linear molecules ---------------------------------------
|  Dinfh | S(rot)=       0.00898608 Eh      5.64 kcal/mol|
|  Cinfv | S(rot)=       0.00964053 Eh      6.05 kcal/mol|
 --------------------------------------------------------


-------------------
GIBBS FREE ENERGY
-------------------

The Gibbs free energy is G = H - T*S

Total enthalpy                    ...   -422.97736569 Eh 
Total entropy correction          ...     -0.04384476 Eh    -27.51 kcal/mol
-----------------------------------------------------------------------
Final Gibbs free energy         ...   -423.02121045 Eh

For completeness - the Gibbs free energy minus the electronic energy
G-E(el)                           ...      0.10696896 Eh     67.12 kcal/mol


Maximum memory used throughout the entire PROP-calculation: 232.7 MB

--------------------------------
SUGGESTED CITATIONS FOR THIS RUN
--------------------------------

Below you find a list of papers that are relevant to this ORCA run
We neither can nor want to force you to cite these papers, but we appreciate if you do
You receive ORCA, which is the product of decades of hard work by many enthusiastic individuals, for free
The only thing we kindly ask in return is that you cite our papers,
We deeply appreciate it, if you show your appreciation for ORCA by not just citing the generic ORCA reference.

Please note that relegating all ORCA citations to the supporting information does *not* help us.
SI sections are not indexed - citations you put there will not count into any citation statistics
But we need these citations in order to attract the funding resources that allow us to do what we are doing

Therefore, if you are a happy ORCA user, please consider citing a few of the papers listed below in the main body of your paper

In addition to the list printed below, the program has created the file cs_rporg_002_red_freq_08.bibtex that contains the list in bibtex format
You can import this file easily into all common literature databanks and citation aid programs


List of essential papers. We consider these as the minimum necessary citations

  1. Neese,F.
     Software update: the ORCA program system, version 5.0
     WIRES Comput. Molec. Sci., 2022 12(1)e1606
     doi.org/10.1002/wcms.1606

List of papers to cite with high priority. The work reported in these papers was absolutely
necessary for this run to complete.
Our perspective: the developers of density functionals and basis sets usually get cited in chemistry papers
Good! But without the algorithms to do something with them, the functionals or basis sets would not do anything.
Hence, in our opinion, the algorithm design and method developments papers are equally worthy of getting cited

  1. Neese,F.
     An improvement of the resolution of the identity approximation for the formation of the Coulomb matrix
     J. Comp. Chem., 2003 24(14)1740-1747
     doi.org/10.1002/jcc.10318
  2. Neese,F.; Wennmohs,F.; Hansen,A.; Becker,U.
     Efficient, approximate and parallel Hartree-Fock and hybrid DFT calculations. A 'chain-of-spheres' algorithm for the Hartree-Fock exchange
     Chem. Phys., 2009 356(1-3)98-109
     doi.org/10.1016/j.chemphys.2008.10.036
  3. Bykov,D.; Petrenko,T.; Izsak,R.; Kossmann,S.; Becker,U.; Valeev,E.; Neese,F.
     Efficient implementation of the analytic second derivatives of Hartree-Fock and hybrid DFT energies: a detailed analysis of different approximations
     Molec. Phys., 2015 113 1961-1977
     doi.org/10.1080/00268976.2015.1025114
  4. Garcia-Rates,M.; Neese,F.
     Efficient implementation of the analytical second derivatives of hartree-fock and hybrid DFT energies within the framework of the conductor-like polarizable continuum model
     J. Comput. Chem., 2019 40 1816-1828
     doi.org/10.1002/jcc.25833
  5. Garcia-Rates,M.; Neese,F.
     Effect of the Solute Cavity on the Solvation Energy and its Derivatives within the Framework of the Gaussian Charge Scheme
     J. Comput. Chem., 2020 41 922-939
     doi.org/10.1002/jcc.26139
  6. Helmich-Paris,B.; de Souza,B.; Neese,F.; Izsák,R.
     An improved chain of spheres for exchange algorithm
     J. Chem. Phys., 2021 155 104109
     doi.org/doi: 10.1063/5.0058766.
  7. Neese,F.
     The SHARK Integral Generation and Digestion System
     J. Comp. Chem., 2022  1-16
     doi.org/10.1002/jcc.26942
  8. Grimme,S.; Antony,J.; Ehrlich,S.; Krieg,H.
     A consistent and accurate ab initio parametrization of density functional dispersion correction (DFT-D) for the 94 elements H-Pu
     J. Chem. Phys., 2010 132 154104-XXXX
     doi.org/10.1063/1.3382344
  9. Grimme,S.; Ehrlich,S.; Goerigk,L.
     Effect of the damping function in dispersion corrected density functional theory
     J. Comput. Chem., 2011 32(7)1456-1465
     doi.org/10.1002/jcc.21759

List of suggested additional citations. These are papers that are important in the 'surrounding' of 
of this run, or papers that preceded the highly important papers. If you like your results we are grateful for a citation.

  1. Izsak,R.; Neese,F.
     An overlap fitted chain of spheres exchange method
     J. Chem. Phys., 2011 135 144105
     doi.org/10.1063/1.3646921
  2. Izsak,R.; Hansen,A.; Neese,F.
     The resolution of identity and chain of spheres approximations for the LPNO-CCSD singles Fock term
     Molec. Phys., 2012 110 2413-2417
     doi.org/10.1080/00268976.2012.687466
  3. Neese,F.
     The ORCA program system
     WIRES Comput. Molec. Sci., 2012 2(1)73-78
     doi.org/10.1002/wcms.81
  4. Izsak,R.; Neese,F.; Klopper,W.
     Robust fitting techniques in the chain of spheres approximation to the Fock exchange: The role of the complementary space
     J. Chem. Phys., 2013 139 
     doi.org/10.1063/1.4819264
  5. Neese,F.
     Software update: the ORCA program system, version 4.0
     WIRES Comput. Molec. Sci., 2018 8(1)1-6
     doi.org/10.1002/wcms.1327
  6. Neese,F.; Wennmohs,F.; Becker,U.; Riplinger,C.
     The ORCA quantum chemistry program package
     J. Chem. Phys., 2020 152 Art. No. L224108
     doi.org/10.1063/5.0004608

List of optional additional citations

  1. Neese,F.
     Approximate second-order SCF convergence for spin unrestricted wavefunctions
     Chem. Phys. Lett., 2000 325(1-3)93-98
     doi.org/10.1016/s0009-2614(00)00662-x

Timings for individual modules:

Sum of individual times          ...     3026.556 sec (=  50.443 min)
Startup calculation              ...       13.992 sec (=   0.233 min)   0.5 %
SCF iterations                   ...      351.124 sec (=   5.852 min)  11.6 %
Property integrals               ...      717.527 sec (=  11.959 min)  23.7 %
SCF Response                     ...     1073.142 sec (=  17.886 min)  35.5 %
Property calculations            ...      870.771 sec (=  14.513 min)  28.8 %
                             ****ORCA TERMINATED NORMALLY****
TOTAL RUN TIME: 0 days 0 hours 50 minutes 35 seconds 709 msec
