 vasp.6.4.2 20Jul23 (build Sep 06 2024 14:39:43) complex                        
  
 executed on             LinuxIFC date 2024.10.30  13:26:54
 running   80 mpi-ranks, on    4 nodes
 distrk:  each k-point on   80 cores,    1 groups
 distr:  one band on NCORE=  10 cores,    8 groups


--------------------------------------------------------------------------------------------------------


 INCAR:
   SYSTEM = 162_ox
   ISTART = 1
   ICHARG = 2
   INIWAV = 1
   METAGGA = R2SCAN
   LASPH = .TRUE.
   NELM = 100
   ALGO = fast   	
   ISPIN = 2
   EDIFF = 1E-05
   ISMEAR = 0
   SIGMA = 0.05
   PREC = accurate
   ENCUT = 500
   LREAL = auto  	
   LWAVE = .TRUE.
   LCHARG = .FALSE.
   LAECHG = .FALSE.
   LVHAR = .FALSE.
   LVTOT = .FALSE.
   EDIFFG = -0.02
   IBRION = 2
   NSW = 500
   ISIF = 2
   POTIM = 0.5
   IVDW = 12
   VDW_A1 = 0.49484001
   VDW_S8 = 0.78981345
   VDW_A2 = 5.73083694
   LPLANE = .TRUE.
   NCORE = 10
   LSCALU = .FALSE.
   NSIM = 4
   LSOL = .TRUE.
   EB_K = 35.6880
   LAMBDA_D_K = 3.04
   TAU = 0

 POTCAR:    PAW_PBE C 08Apr2002                   
 POTCAR:    PAW_PBE N 08Apr2002                   
 POTCAR:    PAW_PBE H 15Jun2001                   
 -----------------------------------------------------------------------------
|                                                                             |
|           W    W    AA    RRRRR   N    N  II  N    N   GGGG   !!!           |
|           W    W   A  A   R    R  NN   N  II  NN   N  G    G  !!!           |
|           W    W  A    A  R    R  N N  N  II  N N  N  G       !!!           |
|           W WW W  AAAAAA  RRRRR   N  N N  II  N  N N  G  GGG   !            |
|           WW  WW  A    A  R   R   N   NN  II  N   NN  G    G                |
|           W    W  A    A  R    R  N    N  II  N    N   GGGG   !!!           |
|                                                                             |
|     You use a magnetic or noncollinear calculation, but did not specify     |
|     the initial magnetic moment with the MAGMOM tag. Note that a            |
|     default of 1 will be used for all atoms. This ferromagnetic setup       |
|     may break the symmetry of the crystal, in particular it may rule        |
|     out finding an antiferromagnetic solution. Thence, we recommend         |
|     setting the initial magnetic moment manually or verifying carefully     |
|     that this magnetic setup is desired.                                    |
|                                                                             |
 -----------------------------------------------------------------------------

 POTCAR:    PAW_PBE C 08Apr2002                   
   VRHFIN =C: s2p2                                                                                  
   LEXCH  = PE                                                                                      
   EATOM  =   147.1560 eV,   10.8157 Ry                                                             
                                                                                                    
   TITEL  = PAW_PBE C 08Apr2002                                                                     
   LULTRA =        F    use ultrasoft PP ?                                                          
   IUNSCR =        1    unscreen: 0-lin 1-nonlin 2-no                                               
   RPACOR =    1.200    partial core radius                                                         
   POMASS =   12.011; ZVAL   =    4.000    mass and valenz                                          
   RCORE  =    1.500    outmost cutoff radius                                                       
   RWIGS  =    1.630; RWIGS  =    0.863    wigner-seitz radius (au A)                               
   ENMAX  =  400.000; ENMIN  =  300.000 eV                                                          
   ICORE  =        2    local potential                                                             
   LCOR   =        T    correct aug charges                                                         
   LPAW   =        T    paw PP                                                                      
   EAUG   =  644.873                                                                                
   DEXC   =    0.000                                                                                
   RMAX   =    1.529    core radius for proj-oper                                                   
   RAUG   =    1.300    factor for augmentation sphere                                              
   RDEP   =    1.501    radius for radial grids                                                     
   RDEPT  =    1.300    core radius for aug-charge                                                  
                                                                                                    
   Atomic configuration                                                                             
    4 entries                                                                                       
     n  l   j            E        occ.                                                              
     1  0  0.50      -273.3789   2.0000                                                             
     2  0  0.50       -13.7508   2.0000                                                             
     2  1  0.50        -5.2854   2.0000                                                             
     3  2  1.50        -5.4423   0.0000                                                             
   Description                                                                                      
     l       E           TYP  RCUT    TYP  RCUT                                                     
     0    -13.7508458     23  1.200                                                                 
     0     -8.2022199     23  1.200                                                                 
     1     -5.2854383     23  1.500                                                                 
     1     34.0145650     23  1.500                                                                 
     2     -5.4423304      7  1.500                                                                 
  local pseudopotential read in
  partial core-charges read in
  partial kinetic energy density read in
  atomic valenz-charges read in
  non local Contribution for L=           0  read in
    real space projection operators read in
  non local Contribution for L=           0  read in
    real space projection operators read in
  non local Contribution for L=           1  read in
    real space projection operators read in
  non local Contribution for L=           1  read in
    real space projection operators read in
    PAW grid and wavefunctions read in
 
   number of l-projection  operators is LMAX  =           4
   number of lm-projection operators is LMMAX =           8
 
 POTCAR:    PAW_PBE N 08Apr2002                   
   VRHFIN =N: s2p3                                                                                  
   LEXCH  = PE                                                                                      
   EATOM  =   264.5486 eV,   19.4438 Ry                                                             
                                                                                                    
   TITEL  = PAW_PBE N 08Apr2002                                                                     
   LULTRA =        F    use ultrasoft PP ?                                                          
   IUNSCR =        1    unscreen: 0-lin 1-nonlin 2-no                                               
   RPACOR =    1.200    partial core radius                                                         
   POMASS =   14.001; ZVAL   =    5.000    mass and valenz                                          
   RCORE  =    1.500    outmost cutoff radius                                                       
   RWIGS  =    1.400; RWIGS  =    0.741    wigner-seitz radius (au A)                               
   ENMAX  =  400.000; ENMIN  =  300.000 eV                                                          
   ICORE  =        2    local potential                                                             
   LCOR   =        T    correct aug charges                                                         
   LPAW   =        T    paw PP                                                                      
   EAUG   =  627.112                                                                                
   DEXC   =    0.000                                                                                
   RMAX   =    1.529    core radius for proj-oper                                                   
   RAUG   =    1.300    factor for augmentation sphere                                              
   RDEP   =    1.514    radius for radial grids                                                     
   RDEPT  =    1.338    core radius for aug-charge                                                  
                                                                                                    
   Atomic configuration                                                                             
    4 entries                                                                                       
     n  l   j            E        occ.                                                              
     1  0  0.50      -384.7179   2.0000                                                             
     2  0  0.50       -18.5828   2.0000                                                             
     2  1  0.50        -7.0898   3.0000                                                             
     3  2  1.50        -6.8029   0.0000                                                             
   Description                                                                                      
     l       E           TYP  RCUT    TYP  RCUT                                                     
     0    -18.5828119     23  1.200                                                                 
     0    -13.5018863     23  1.200                                                                 
     1     -7.0897853     23  1.500                                                                 
     1      9.5240782     23  1.500                                                                 
     2     -6.8029130      7  1.500                                                                 
  local pseudopotential read in
  partial core-charges read in
  partial kinetic energy density read in
  atomic valenz-charges read in
  non local Contribution for L=           0  read in
    real space projection operators read in
  non local Contribution for L=           0  read in
    real space projection operators read in
  non local Contribution for L=           1  read in
    real space projection operators read in
  non local Contribution for L=           1  read in
    real space projection operators read in
    PAW grid and wavefunctions read in
 
   number of l-projection  operators is LMAX  =           4
   number of lm-projection operators is LMMAX =           8
 
 POTCAR:    PAW_PBE H 15Jun2001                   
   VRHFIN =H: ultrasoft test                                                                        
   LEXCH  = PE                                                                                      
   EATOM  =    12.4884 eV,    0.9179 Ry                                                             
                                                                                                    
   TITEL  = PAW_PBE H 15Jun2001                                                                     
   LULTRA =        F    use ultrasoft PP ?                                                          
   IUNSCR =        0    unscreen: 0-lin 1-nonlin 2-no                                               
   RPACOR =    0.000    partial core radius                                                         
   POMASS =    1.000; ZVAL   =    1.000    mass and valenz                                          
   RCORE  =    1.100    outmost cutoff radius                                                       
   RWIGS  =    0.700; RWIGS  =    0.370    wigner-seitz radius (au A)                               
   ENMAX  =  250.000; ENMIN  =  200.000 eV                                                          
   RCLOC  =    0.701    cutoff for local pot                                                        
   LCOR   =        T    correct aug charges                                                         
   LPAW   =        T    paw PP                                                                      
   EAUG   =  400.000                                                                                
   RMAX   =    1.123    core radius for proj-oper                                                   
   RAUG   =    1.200    factor for augmentation sphere                                              
   RDEP   =    1.112    radius for radial grids                                                     
   RDEPT  =    0.926    core radius for aug-charge                                                  
                                                                                                    
   Atomic configuration                                                                             
    2 entries                                                                                       
     n  l   j            E        occ.                                                              
     1  0  0.50        -6.4927   1.0000                                                             
     2  1  0.50        -3.4015   0.0000                                                             
   Description                                                                                      
     l       E           TYP  RCUT    TYP  RCUT                                                     
     0     -6.4927494     23  1.100                                                                 
     0      6.8029130     23  1.100                                                                 
     1     -4.0817478     23  1.100                                                                 
  local pseudopotential read in
  atomic valenz-charges read in
  non local Contribution for L=           0  read in
    real space projection operators read in
  non local Contribution for L=           0  read in
    real space projection operators read in
  non local Contribution for L=           1  read in
    real space projection operators read in
    PAW grid and wavefunctions read in
 
   number of l-projection  operators is LMAX  =           3
   number of lm-projection operators is LMMAX =           5
 
 Optimization of the real space projectors (new method)

 maximal supplied QI-value         = 25.13
 optimisation between [QCUT,QGAM] = [ 11.31, 22.87] = [ 35.82,146.48] Ry 
 Optimized for a Real-space Cutoff    1.03 Angstroem

   l    n(q)    QCUT    max X(q) W(low)/X(q) W(high)/X(q)  e(spline) 
   0      7    11.310   115.676    0.20E-03    0.90E-03    0.20E-06
   0      7    11.310    87.132    0.20E-03    0.89E-03    0.19E-06
   1      6    11.310     4.429    0.16E-03    0.28E-03    0.12E-06
   1      6    11.310     2.733    0.12E-03    0.21E-03    0.99E-07
 Optimization of the real space projectors (new method)

 maximal supplied QI-value         = 25.13
 optimisation between [QCUT,QGAM] = [ 11.31, 22.87] = [ 35.82,146.48] Ry 
 Optimized for a Real-space Cutoff    1.43 Angstroem

   l    n(q)    QCUT    max X(q) W(low)/X(q) W(high)/X(q)  e(spline) 
   0     10    11.310    79.467    0.42E-04    0.81E-04    0.60E-06
   0     10    11.310    66.151    0.40E-04    0.81E-04    0.60E-06
   1      9    11.310    17.416    0.14E-03    0.88E-04    0.14E-05
   1      9    11.310    12.382    0.15E-03    0.93E-04    0.14E-05
 Optimization of the real space projectors (new method)

 maximal supplied QI-value         = 34.20
 optimisation between [QCUT,QGAM] = [ 11.29, 22.57] = [ 35.68,142.71] Ry 
 Optimized for a Real-space Cutoff    1.20 Angstroem

   l    n(q)    QCUT    max X(q) W(low)/X(q) W(high)/X(q)  e(spline) 
   0      8    11.287    19.460    0.22E-03    0.50E-03    0.19E-06
   0      8    11.287    12.209    0.21E-03    0.48E-03    0.18E-06
   1      8    11.287     4.655    0.21E-03    0.11E-04    0.26E-06
  PAW_PBE C 08Apr2002                   :
 energy of atom  1       EATOM= -147.1560
 kinetic energy error for atom=    0.0076 (will be added to EATOM!!)
  PAW_PBE N 08Apr2002                   :
 energy of atom  2       EATOM= -264.5486
 kinetic energy error for atom=    0.0138 (will be added to EATOM!!)
  PAW_PBE H 15Jun2001                   :
 energy of atom  3       EATOM=  -12.4884
 kinetic energy error for atom=    0.0020 (will be added to EATOM!!)
 
 
 POSCAR: C N H
  positions in direct lattice
  velocities in cartesian coordinates

 METAGGA = R2SCAN                                      LMAXTAU =  6    LMIXTAU =  F

 exchange correlation table for  LEXCH =        8
   RHO(1)=    0.500       N(1)  =     2000
   RHO(2)=  100.500       N(2)  =     4000
 


--------------------------------------------------------------------------------------------------------


 ion  position               nearest neighbor table
   1  0.470  0.490  0.500-   6 1.40   2 1.41   8 1.43
   2  0.470  0.525  0.500-  14 1.09   3 1.39   1 1.41
   3  0.500  0.543  0.500-  13 1.09   4 1.39   2 1.39
   4  0.530  0.525  0.500-  12 1.09   3 1.39   5 1.41
   5  0.530  0.490  0.500-   6 1.40   4 1.41   7 1.43
   6  0.500  0.472  0.500-  11 1.09   1 1.40   5 1.40
   7  0.561  0.472  0.500-   9 1.17   5 1.43
   8  0.439  0.472  0.500-  10 1.17   1 1.43
   9  0.587  0.458  0.500-   7 1.17
  10  0.413  0.458  0.500-   8 1.17
  11  0.500  0.445  0.500-   6 1.09
  12  0.554  0.539  0.500-   4 1.09
  13  0.500  0.570  0.500-   3 1.09
  14  0.446  0.539  0.500-   2 1.09
 
  LATTYP: Found a simple cubic cell.
 ALAT       =    40.0000000000
  
  Lattice vectors:
  
 A1 = (  40.0000000000,   0.0000000000,   0.0000000000)
 A2 = (   0.0000000000,  40.0000000000,   0.0000000000)
 A3 = (   0.0000000000,   0.0000000000,  40.0000000000)


Analysis of symmetry for initial positions (statically):
=====================================================================
 Subroutine PRICEL returns:
 Original cell was already a primitive cell.
 

 Routine SETGRP: Setting up the symmetry group for a 
 simple cubic supercell.


 Subroutine GETGRP returns: Found  1 space group operations
 (whereof  1 operations were pure point group operations)
 out of a pool of 48 trial point group operations.


The static configuration has the point symmetry C_1 .


Analysis of symmetry for dynamics (positions and initial velocities):
=====================================================================
 Subroutine PRICEL returns:
 Original cell was already a primitive cell.
 

 Routine SETGRP: Setting up the symmetry group for a 
 simple cubic supercell.


 Subroutine GETGRP returns: Found  1 space group operations
 (whereof  1 operations were pure point group operations)
 out of a pool of 48 trial point group operations.


The dynamic configuration has the point symmetry C_1 .


Analysis of constrained symmetry for selective dynamics:
=====================================================================
 Subroutine PRICEL returns:
 Original cell was already a primitive cell.
 

 Routine SETGRP: Setting up the symmetry group for a 
 simple cubic supercell.


 Subroutine GETGRP returns: Found  1 space group operations
 (whereof  1 operations were pure point group operations)
 out of a pool of 48 trial point group operations.


The constrained configuration has the point symmetry C_1 .


Analysis of structural, dynamic, and magnetic symmetry:
=====================================================================
 Subroutine PRICEL returns:
 Original cell was already a primitive cell.
 

 Routine SETGRP: Setting up the symmetry group for a 
 simple cubic supercell.


 Subroutine GETGRP returns: Found  1 space group operations
 (whereof  1 operations were pure point group operations)
 out of a pool of 48 trial point group operations.


The overall configuration has the point symmetry C_1 .


 Subroutine INISYM returns: Found  1 space group operations
 (whereof  1 operations are pure point group operations),
 and found     1 'primitive' translations


----------------------------------------------------------------------------------------

                                     Primitive cell                                     

  volume of cell :   64000.0000

  direct lattice vectors                    reciprocal lattice vectors
    40.000000000  0.000000000  0.000000000     0.025000000  0.000000000  0.000000000
     0.000000000 40.000000000  0.000000000     0.000000000  0.025000000  0.000000000
     0.000000000  0.000000000 40.000000000     0.000000000  0.000000000  0.025000000

  length of vectors
    40.000000000 40.000000000 40.000000000     0.025000000  0.025000000  0.025000000

  position of ions in fractional coordinates (direct lattice)
     0.469813652  0.490231383  0.500000826
     0.469723568  0.525443836  0.500003876
     0.500000725  0.542734714  0.500000364
     0.530276867  0.525442103  0.499993182
     0.530186076  0.490229467  0.499990266
     0.499999290  0.472366824  0.499993873
     0.561136625  0.472400117  0.500002160
     0.438862548  0.472403489  0.499999886
     0.586516760  0.457935925  0.500024146
     0.413481360  0.457939157  0.499996540
     0.499998700  0.445153973  0.499992430
     0.553965633  0.538873793  0.499991546
     0.500000998  0.569971430  0.500003024
     0.446035199  0.538875789  0.500008879

  ion indices of the primitive-cell ions
   primitive index   ion index
                 1           1
                 2           2
                 3           3
                 4           4
                 5           5
                 6           6
                 7           7
                 8           8
                 9           9
                10          10
                11          11
                12          12
                13          13
                14          14

----------------------------------------------------------------------------------------

 
 
 KPOINTS: K-Point Grid                            

Automatic generation of k-mesh.
 Grid dimensions read from file:
 generate k-points for:    1    1    1

 Generating k-lattice:

  Cartesian coordinates                     Fractional coordinates (reciprocal lattice)
     0.025000000  0.000000000  0.000000000     1.000000000  0.000000000  0.000000000
     0.000000000  0.025000000  0.000000000     0.000000000  1.000000000  0.000000000
     0.000000000  0.000000000  0.025000000     0.000000000  0.000000000  1.000000000

  Length of vectors
     0.025000000  0.025000000  0.025000000

  Shift w.r.t. Gamma in fractional coordinates (k-lattice)
     0.000000000  0.000000000  0.000000000

 
 Subroutine IBZKPT returns following result:
 ===========================================
 
 Found      1 irreducible k-points:
 
 Following reciprocal coordinates:
            Coordinates               Weight
  0.000000  0.000000  0.000000      1.000000
 
 Following cartesian coordinates:
            Coordinates               Weight
  0.000000  0.000000  0.000000      1.000000
 


--------------------------------------------------------------------------------------------------------




 Dimension of arrays:
   k-points           NKPTS =      1   k-points in BZ     NKDIM =      1   number of bands    NBANDS=     40
   number of dos      NEDOS =    301   number of ions     NIONS =     14
   non local maximal  LDIM  =      4   non local SUM 2l+1 LMDIM =      8
   total plane-waves  NPLWV = ******
   max r-space proj   IRMAX =   4928   max aug-charges    IRDMAX=   5085
   dimension x,y,z NGX =   294 NGY =  294 NGZ =  294
   dimension x,y,z NGXF=   588 NGYF=  588 NGZF=  588
   support grid    NGXF=   588 NGYF=  588 NGZF=  588
   ions per type =               8   2   4
   NGX,Y,Z   is equivalent  to a cutoff of  12.22, 12.22, 12.22 a.u.
   NGXF,Y,Z  is equivalent  to a cutoff of  24.44, 24.44, 24.44 a.u.

 SYSTEM =  162_ox                                  
 POSCAR =  C N H                                   

 Startparameter for this run:
   NWRITE =      2    write-flag & timer
   PREC   = accura    normal or accurate (medium, high low for compatibility)
   ISTART =      1    job   : 0-new  1-cont  2-samecut
   ICHARG =      2    charge: 1-file 2-atom 10-const
   ISPIN  =      2    spin polarized calculation?
   LNONCOLLINEAR =      F non collinear calculations
   LSORBIT =      F    spin-orbit coupling
   INIWAV =      1    electr: 0-lowe 1-rand  2-diag
   LASPH  =      T    aspherical Exc in radial PAW
 Electronic Relaxation 1
   ENCUT  =  500.0 eV  36.75 Ry    6.06 a.u.  72.93 72.93 72.93*2*pi/ulx,y,z
   ENINI  =  500.0     initial cutoff
   ENAUG  =  644.9 eV  augmentation charge cutoff
   NELM   =    100;   NELMIN=  2; NELMDL=  0     # of ELM steps 
   EDIFF  = 0.1E-04   stopping-criterion for ELM
   LREAL  =      T    real-space projection
   NLSPLINE    = F    spline interpolate recip. space projectors
   LCOMPAT=      F    compatible to vasp.4.4
   GGA_COMPAT  = T    GGA compatible to vasp.4.4-vasp.4.6
   LMAXPAW     = -100 max onsite density
   LMAXMIX     =    2 max onsite mixed and CHGCAR
   VOSKOWN=      0    Vosko Wilk Nusair interpolation
   ROPT   =   -0.00025  -0.00025  -0.00025
 Ionic relaxation
   EDIFFG = -.2E-01   stopping-criterion for IOM
   NSW    =    500    number of steps for IOM
   NBLOCK =      1;   KBLOCK =    500    inner block; outer block 
   IBRION =      2    ionic relax: 0-MD 1-quasi-New 2-CG
   NFREE  =      1    steps in history (QN), initial steepest desc. (CG)
   ISIF   =      2    stress and relaxation
   IWAVPR =     11    prediction:  0-non 1-charg 2-wave 3-comb
   ISYM   =      2    0-nonsym 1-usesym 2-fastsym
   LCORR  =      T    Harris-Foulkes like correction to forces

   POTIM  = 0.5000    time-step for ionic-motion
   TEIN   =    0.0    initial temperature
   TEBEG  =    0.0;   TEEND  =   0.0 temperature during run
   SMASS  =  -3.00    Nose mass-parameter (am)
   estimated Nose-frequenzy (Omega)   =  0.10E-29 period in steps = 0.13E+47 mass=  -0.366E-25a.u.
   SCALEE = 1.0000    scale energy and forces
   NPACO  =    256;   APACO  = 10.0  distance and # of slots for P.C.
   PSTRESS=    0.0 pullay stress

  Mass of Ions in am
   POMASS =  12.01 14.00  1.00
  Ionic Valenz
   ZVAL   =   4.00  5.00  1.00
  Atomic Wigner-Seitz radii
   RWIGS  =  -1.00 -1.00 -1.00
  virtual crystal weights 
   VCA    =   1.00  1.00  1.00
   NELECT =      46.0000    total number of electrons
   NUPDOWN=      -1.0000    fix difference up-down

 DOS related values:
   EMIN   =  10.00;   EMAX   =-10.00  energy-range for DOS
   EFERMI =   0.00;   METHOD = LEGACY      
   ISMEAR =     0;   SIGMA  =   0.05  broadening in eV -4-tet -1-fermi 0-gaus

 Electronic relaxation 2 (details)
   IALGO  =     68    algorithm
   LDIAG  =      T    sub-space diagonalisation (order eigenvalues)
   LSUBROT=      F    optimize rotation matrix (better conditioning)
   TURBO    =      0    0=normal 1=particle mesh
   IRESTART =      0    0=no restart 2=restart with 2 vectors
   NREBOOT  =      0    no. of reboots
   NMIN     =      0    reboot dimension
   EREF     =   0.00    reference energy to select bands
   IMIX   =      4    mixing-type and parameters
     AMIX     =   0.40;   BMIX     =  1.00
     AMIX_MAG =   1.60;   BMIX_MAG =  1.00
     AMIN     =   0.10
     WC   =   100.;   INIMIX=   1;  MIXPRE=   1;  MAXMIX= -45

 Intra band minimization:
   WEIMIN = 0.0010     energy-eigenvalue tresh-hold
   EBREAK =  0.63E-07  absolut break condition
   DEPER  =   0.30     relativ break condition  

   TIME   =   0.40     timestep for ELM

  volume/ion in A,a.u.               =    4571.43     30849.52
  Fermi-wavevector in a.u.,A,eV,Ry     =   0.146645  0.277119  0.292590  0.021505
  Thomas-Fermi vector in A             =   0.816559
 
 Write flags
   LWAVE        =      T    write WAVECAR
   LDOWNSAMPLE  =      F    k-point downsampling of WAVECAR
   LCHARG       =      F    write CHGCAR
   LVTOT        =      F    write LOCPOT, total local potential
   LVHAR        =      F    write LOCPOT, Hartree potential only
   LELF         =      F    write electronic localiz. function (ELF)
   LORBIT       =      0    0 simple, 1 ext, 2 COOP (PROOUT), +10 PAW based schemes


 Dipole corrections
   LMONO  =      F    monopole corrections only (constant potential shift)
   LDIPOL =      F    correct potential (dipole corrections)
   IDIPOL =      0    1-x, 2-y, 3-z, 4-all directions 
   EPSILON=  1.0000000 bulk dielectric constant

 Exchange correlation treatment:
   GGA     =    --    GGA type
   LEXCH   =     8    internal setting for exchange type
   LIBXC   =     F    Libxc                    
   VOSKOWN =     0    Vosko Wilk Nusair interpolation
   LHFCALC =     F    Hartree Fock is set to
   LHFONE  =     F    Hartree Fock one center treatment
   AEXX    =    0.0000 exact exchange contribution

 Linear response parameters
   LEPSILON=     F    determine dielectric tensor
   LRPA    =     F    only Hartree local field effects (RPA)
   LNABLA  =     F    use nabla operator in PAW spheres
   LVEL    =     F    velocity operator in full k-point grid
   CSHIFT  =0.1000    complex shift for real part using Kramers Kronig
   OMEGAMAX=  -1.0    maximum frequency
   DEG_THRESHOLD= 0.2000000E-02 threshold for treating states as degnerate
   RTIME   =   -0.100 relaxation time in fs
  (WPLASMAI=    0.000 imaginary part of plasma frequency in eV, 0.658/RTIME)
   DFIELD  = 0.0000000 0.0000000 0.0000000 field for delta impulse in time
 
  Optional k-point grid parameters
   LKPOINTS_OPT  =     F    use optional k-point grid
   KPOINTS_OPT_MODE=     1    mode for optional k-point grid
 
 Orbital magnetization related:
   ORBITALMAG=     F  switch on orbital magnetization
   LCHIMAG   =     F  perturbation theory with respect to B field
   DQ        =  0.001000  dq finite difference perturbation B field
   LLRAUG    =     F  two centre corrections for induced B field
   LBONE     =     F  B-component reconstruction in AE one-centre
   LVGVCALC  =     T  calculate vGv susceptibility
   LVGVAPPL  =     F  apply vGv susceptibility instead of pGv for G=0

 Random number generation:
   RANDOM_GENERATOR = DEFAULT
   PCG_SEED         = not used
 Solvation model:
   LSOL    =     T         switch on solvation model
   EB_K    = 35.688000     relative permittivity of the bulk solvent
   SIGMA_K =  0.600000     width of the dielectric cavity
   NC_K    =  0.002500     cutoff charge density
   TAU     =  0.000000     cavity surface tension
   LAMBDA_D_K    =  3.040000     Debye length in Angstroms
   LRHOB     =     F     write boundcharge  density
   LRHOION     =     F     write ioniccharge density



--------------------------------------------------------------------------------------------------------


 conjugate gradient relaxation of ions
   using selective dynamics as specified on POSCAR
 charge density and potential will be updated during run
 spin polarized calculation
 RMM-DIIS sequential band-by-band and
  variant of blocked Davidson during initial phase
 perform sub-space diagonalisation
    before iterative eigenvector-optimisation
 modified Broyden-mixing scheme, WC =      100.0
 initial mixing is a Kerker type mixing with AMIX =  0.4000 and BMIX =      1.0000
 Hartree-type preconditioning will be used
 using additional bands           17
 real space projection scheme for non local part
 use partial core corrections
 calculate Harris-corrections to forces 
   (improved forces if not selfconsistent)
 use gradient corrections 
 use of overlap-Matrix (Vanderbilt PP)
 Gauss-broadening in eV      SIGMA  =   0.05


--------------------------------------------------------------------------------------------------------


  energy-cutoff  :      500.00
  volume of cell :    64000.00
      direct lattice vectors                 reciprocal lattice vectors
    40.000000000  0.000000000  0.000000000     0.025000000  0.000000000  0.000000000
     0.000000000 40.000000000  0.000000000     0.000000000  0.025000000  0.000000000
     0.000000000  0.000000000 40.000000000     0.000000000  0.000000000  0.025000000

  length of vectors
    40.000000000 40.000000000 40.000000000     0.025000000  0.025000000  0.025000000


 
 old parameters found on file WAVECAR:
  energy-cutoff  :      500.00
  volume of cell :    64000.00
      direct lattice vectors                 reciprocal lattice vectors
    40.000000000  0.000000000  0.000000000     0.025000000  0.000000000  0.000000000
     0.000000000 40.000000000  0.000000000     0.000000000  0.025000000  0.000000000
     0.000000000  0.000000000 40.000000000     0.000000000  0.000000000  0.025000000

  length of vectors

 
 k-points in units of 2pi/SCALE and weight: K-Point Grid                            
   0.00000000  0.00000000  0.00000000       1.000
 
 k-points in reciprocal lattice and weights: K-Point Grid                            
   0.00000000  0.00000000  0.00000000       1.000
 
 position of ions in fractional coordinates (direct lattice) 
   0.46981365  0.49023138  0.50000083
   0.46972357  0.52544384  0.50000388
   0.50000072  0.54273471  0.50000036
   0.53027687  0.52544210  0.49999318
   0.53018608  0.49022947  0.49999027
   0.49999929  0.47236682  0.49999387
   0.56113663  0.47240012  0.50000216
   0.43886255  0.47240349  0.49999989
   0.58651676  0.45793592  0.50002415
   0.41348136  0.45793916  0.49999654
   0.49999870  0.44515397  0.49999243
   0.55396563  0.53887379  0.49999155
   0.50000100  0.56997143  0.50000302
   0.44603520  0.53887579  0.50000888
 
 position of ions in cartesian coordinates  (Angst):
  18.79254607 19.60925530 20.00003305
  18.78894270 21.01775345 20.00015504
  20.00002900 21.70938857 20.00001458
  21.21107467 21.01768414 19.99972728
  21.20744304 19.60917866 19.99961065
  19.99997158 18.89467296 19.99975493
  22.44546501 18.89600469 20.00008640
  17.55450193 18.89613957 19.99999543
  23.46067039 18.31743700 20.00096586
  16.53925441 18.31756627 19.99986161
  19.99994800 17.80615890 19.99969722
  22.15862533 21.55495170 19.99966185
  20.00003990 22.79885721 20.00012098
  17.84140796 21.55503157 20.00035514
 


--------------------------------------------------------------------------------------------------------


 k-point   1 :   0.0000 0.0000 0.0000  plane waves: 1624525

 maximum and minimum number of plane-waves per node :    162473   162437

 maximum number of plane-waves:   1624525
 maximum index in each direction: 
   IXMAX=   72   IYMAX=   72   IZMAX=   72
   IXMIN=  -72   IYMIN=  -72   IZMIN=  -72


 real space projection operators:
  total allocation   :       1925.09 KBytes
  max/ min on nodes  :        195.20        187.05


 parallel 3D FFT for wavefunctions:
    minimum data exchange during FFTs selected (reduces bandwidth)
 parallel 3D FFT for charge:
    minimum data exchange during FFTs selected (reduces bandwidth)


 total amount of memory used by VASP MPI-rank0   887271. kBytes
=======================================================================

   base      :      30000. kBytes
   nonlr-proj:       1400. kBytes
   fftplans  :     167689. kBytes
   grid      :     662171. kBytes
   one-center:         12. kBytes
   wavefun   :      25999. kBytes
 
     INWAV:  cpu time      7.5005: real time      7.5296
 Broyden mixing: mesh for mixing (old mesh)
   NGX =145   NGY =145   NGZ =145
  (NGX  =588   NGY  =588   NGZ  =588)
  gives a total of ****** points

 initial charge density was supplied:
 charge density of overlapping atoms calculated
 number of electron      46.0000000 magnetization      14.0000000
 keeping initial charge density in first step


--------------------------------------------------------------------------------------------------------


 Maximum index for non-local projection operator          484
 Maximum index for augmentation-charges          308 (set IRDMAX)


--------------------------------------------------------------------------------------------------------


 First call to EWALD:  gamma=   0.044
 Maximum number of real-space cells 3x 3x 3
 Maximum number of reciprocal cells 3x 3x 3

    FEWALD:  cpu time      0.0026: real time      0.0026


--------------------------------------- Ionic step        1  -------------------------------------------




--------------------------------------- Iteration      1(   1)  ---------------------------------------


    POTLOK:  cpu time    122.4769: real time    122.6939
    SETDIJ:  cpu time      0.3896: real time      0.3903
     EDDAV:  cpu time     43.6229: real time     43.7194
       DOS:  cpu time      0.0022: real time      0.0022
    CHARGE:  cpu time      5.9161: real time      5.9287
    MIXING:  cpu time      0.1402: real time      0.1399
    --------------------------------------------
      LOOP:  cpu time    172.5480: real time    172.8745

 eigenvalue-minimisations  :   184
 total energy-change (2. order) :-0.1147010E+03  (-0.4057181E+01)
 number of electron      46.0000006 magnetization      13.4606110
 augmentation part        1.2600682 magnetization      13.4876252

 Broyden mixing:
  rms(total) = 0.24286E+01    rms(broyden)= 0.24284E+01
  rms(prec ) = 0.24502E+01
  weight for this iteration     100.00

 Free energy of the ion-electron system (eV)
  ---------------------------------------------------
  alpha Z        PSCENC =         0.15606686
  Ewald energy   TEWEN  =      4271.38647070
  -Hartree energ DENC   =     -5484.17182679
  -exchange      EXHF   =         0.00000000
  -V(xc)+E(xc)   XCENC  =       181.07622141
  PAW double counting   =      1254.70016723    -1276.81764950
  entropy T*S    EENTRO =        -0.00000000
  eigenvalues    EBANDS =      -809.76266445
  atomic energy  EATOM  =      1756.20279181
  Solvation  Ediel_sol  =        -7.47061356
  ---------------------------------------------------
  free energy    TOTEN  =      -114.70103629 eV

  energy without entropy =     -114.70103629  energy(sigma->0) =     -114.70103629


--------------------------------------------------------------------------------------------------------




--------------------------------------- Iteration      1(   2)  ---------------------------------------


    POTLOK:  cpu time    118.4700: real time    118.6209
    SETDIJ:  cpu time      0.3925: real time      0.3932
    EDDIAG:  cpu time      9.6918: real time      9.7141
  RMM-DIIS:  cpu time     55.3901: real time     55.5064
    ORTHCH:  cpu time      0.1082: real time      0.1085
       DOS:  cpu time      0.0031: real time      0.0031
    CHARGE:  cpu time      6.0381: real time      6.0507
    MIXING:  cpu time      0.1130: real time      0.1130
    --------------------------------------------
      LOOP:  cpu time    190.2069: real time    190.5100

 eigenvalue-minimisations  :   163
 total energy-change (2. order) : 0.1790637E+02  (-0.4405658E+01)
 number of electron      46.0000006 magnetization      12.8729472
 augmentation part        1.2262630 magnetization      12.8311432

 Broyden mixing:
  rms(total) = 0.11827E+01    rms(broyden)= 0.11826E+01
  rms(prec ) = 0.11972E+01
  weight for this iteration     100.00

 eigenvalues of (default mixing * dielectric matrix)
  average eigenvalue GAMMA=   0.9598
  0.9598

 Free energy of the ion-electron system (eV)
  ---------------------------------------------------
  alpha Z        PSCENC =         0.15606686
  Ewald energy   TEWEN  =      4271.38647070
  -Hartree energ DENC   =     -5557.72585663
  -exchange      EXHF   =         0.00000000
  -V(xc)+E(xc)   XCENC  =       197.12696404
  PAW double counting   =      2174.00306367    -2197.10135640
  entropy T*S    EENTRO =        -0.00000000
  eigenvalues    EBANDS =      -725.65292158
  atomic energy  EATOM  =      1756.20279181
  Solvation  Ediel_sol  =       -15.18988501
  ---------------------------------------------------
  free energy    TOTEN  =       -96.79466253 eV

  energy without entropy =      -96.79466253  energy(sigma->0) =      -96.79466253


--------------------------------------------------------------------------------------------------------




--------------------------------------- Iteration      1(   3)  ---------------------------------------


    POTLOK:  cpu time    116.2933: real time    116.4334
    SETDIJ:  cpu time      0.3930: real time      0.3938
    EDDIAG:  cpu time      9.7135: real time      9.7352
  RMM-DIIS:  cpu time     61.9722: real time     62.1130
    ORTHCH:  cpu time      0.1092: real time      0.1095
       DOS:  cpu time      0.0036: real time      0.0036
    CHARGE:  cpu time      5.9981: real time      6.0163
    MIXING:  cpu time      0.1158: real time      0.1159
    --------------------------------------------
      LOOP:  cpu time    194.5988: real time    194.9207

 eigenvalue-minimisations  :   188
 total energy-change (2. order) :-0.1344740E+02  (-0.1535971E+01)
 number of electron      46.0000005 magnetization      12.0601153
 augmentation part        1.2091007 magnetization      12.0088804

 Broyden mixing:
  rms(total) = 0.70873E+00    rms(broyden)= 0.70871E+00
  rms(prec ) = 0.71525E+00
  weight for this iteration     100.00

 eigenvalues of (default mixing * dielectric matrix)
  average eigenvalue GAMMA=   1.1869
  0.8095  1.5643

 Free energy of the ion-electron system (eV)
  ---------------------------------------------------
  alpha Z        PSCENC =         0.15606686
  Ewald energy   TEWEN  =      4271.38647070
  -Hartree energ DENC   =     -5610.19236276
  -exchange      EXHF   =         0.00000000
  -V(xc)+E(xc)   XCENC  =       188.41285279
  PAW double counting   =      3031.10927028    -3054.68339287
  entropy T*S    EENTRO =        -0.00000000
  eigenvalues    EBANDS =      -671.06055445
  atomic energy  EATOM  =      1756.20279181
  Solvation  Ediel_sol  =       -21.57320063
  ---------------------------------------------------
  free energy    TOTEN  =      -110.24205827 eV

  energy without entropy =     -110.24205827  energy(sigma->0) =     -110.24205827


--------------------------------------------------------------------------------------------------------




--------------------------------------- Iteration      1(   4)  ---------------------------------------


    POTLOK:  cpu time    117.5530: real time    117.6970
    SETDIJ:  cpu time      0.3903: real time      0.3911
    EDDIAG:  cpu time      9.7408: real time      9.7626
  RMM-DIIS:  cpu time     69.2462: real time     69.3901
    ORTHCH:  cpu time      0.1329: real time      0.1333
       DOS:  cpu time      0.0036: real time      0.0036
    CHARGE:  cpu time      6.0040: real time      6.0155
    MIXING:  cpu time      0.1190: real time      0.1192
    --------------------------------------------
      LOOP:  cpu time    203.1899: real time    203.5123

 eigenvalue-minimisations  :   219
 total energy-change (2. order) :-0.5029353E+01  (-0.7877355E+00)
 number of electron      46.0000005 magnetization      11.4052353
 augmentation part        1.1884338 magnetization      11.3634129

 Broyden mixing:
  rms(total) = 0.38537E+00    rms(broyden)= 0.38534E+00
  rms(prec ) = 0.38776E+00
  weight for this iteration     100.00

 eigenvalues of (default mixing * dielectric matrix)
  average eigenvalue GAMMA=   1.2971
  2.1488  1.0414  0.7010

 Free energy of the ion-electron system (eV)
  ---------------------------------------------------
  alpha Z        PSCENC =         0.15606686
  Ewald energy   TEWEN  =      4271.38647070
  -Hartree energ DENC   =     -5653.52974352
  -exchange      EXHF   =         0.00000000
  -V(xc)+E(xc)   XCENC  =       186.54074798
  PAW double counting   =      3964.28089782    -3988.04654065
  entropy T*S    EENTRO =        -0.00000000
  eigenvalues    EBANDS =      -624.50815074
  atomic energy  EATOM  =      1756.20279181
  Solvation  Ediel_sol  =       -27.75395180
  ---------------------------------------------------
  free energy    TOTEN  =      -115.27141155 eV

  energy without entropy =     -115.27141155  energy(sigma->0) =     -115.27141155


--------------------------------------------------------------------------------------------------------




--------------------------------------- Iteration      1(   5)  ---------------------------------------


    POTLOK:  cpu time    117.6142: real time    117.7402
    SETDIJ:  cpu time      0.3885: real time      0.3892
    EDDIAG:  cpu time      9.7425: real time      9.7648
  RMM-DIIS:  cpu time     76.3454: real time     76.5052
    ORTHCH:  cpu time      0.1078: real time      0.1081
       DOS:  cpu time      0.0034: real time      0.0034
    CHARGE:  cpu time      6.0063: real time      6.0297
    MIXING:  cpu time      0.1246: real time      0.1248
    --------------------------------------------
      LOOP:  cpu time    210.3328: real time    210.6654

 eigenvalue-minimisations  :   251
 total energy-change (2. order) :-0.1100889E+01  (-0.2072659E+00)
 number of electron      46.0000005 magnetization      10.4885928
 augmentation part        1.1775158 magnetization      10.4574643

 Broyden mixing:
  rms(total) = 0.26401E+00    rms(broyden)= 0.26399E+00
  rms(prec ) = 0.26601E+00
  weight for this iteration     100.00

 eigenvalues of (default mixing * dielectric matrix)
  average eigenvalue GAMMA=   1.3844
  2.4901  1.5225  0.8587  0.6663

 Free energy of the ion-electron system (eV)
  ---------------------------------------------------
  alpha Z        PSCENC =         0.15606686
  Ewald energy   TEWEN  =      4271.38647070
  -Hartree energ DENC   =     -5662.50618796
  -exchange      EXHF   =         0.00000000
  -V(xc)+E(xc)   XCENC  =       186.30021692
  PAW double counting   =      4338.15828039    -4361.89033631
  entropy T*S    EENTRO =        -0.00000000
  eigenvalues    EBANDS =      -615.62011569
  atomic energy  EATOM  =      1756.20279181
  Solvation  Ediel_sol  =       -28.55948692
  ---------------------------------------------------
  free energy    TOTEN  =      -116.37230020 eV

  energy without entropy =     -116.37230020  energy(sigma->0) =     -116.37230020


--------------------------------------------------------------------------------------------------------




--------------------------------------- Iteration      1(   6)  ---------------------------------------


    POTLOK:  cpu time    117.6761: real time    117.8557
    SETDIJ:  cpu time      0.3887: real time      0.3894
    EDDIAG:  cpu time      9.7548: real time      9.7777
  RMM-DIIS:  cpu time     75.9366: real time     76.0964
    ORTHCH:  cpu time      0.1087: real time      0.1090
       DOS:  cpu time      0.0034: real time      0.0034
    CHARGE:  cpu time      6.0152: real time      6.0242
    MIXING:  cpu time      0.1294: real time      0.1295
    --------------------------------------------
      LOOP:  cpu time    210.0128: real time    210.3853

 eigenvalue-minimisations  :   249
 total energy-change (2. order) :-0.4883437E-01  (-0.8167294E-01)
 number of electron      46.0000005 magnetization       9.8018520
 augmentation part        1.1711382 magnetization       9.7788640

 Broyden mixing:
  rms(total) = 0.15762E+00    rms(broyden)= 0.15761E+00
  rms(prec ) = 0.15857E+00
  weight for this iteration     100.00

 eigenvalues of (default mixing * dielectric matrix)
  average eigenvalue GAMMA=   1.4467
  2.9043  1.9004  1.0399  0.7525  0.6363

 Free energy of the ion-electron system (eV)
  ---------------------------------------------------
  alpha Z        PSCENC =         0.15606686
  Ewald energy   TEWEN  =      4271.38647070
  -Hartree energ DENC   =     -5661.34027008
  -exchange      EXHF   =         0.00000000
  -V(xc)+E(xc)   XCENC  =       186.37097459
  PAW double counting   =      4575.24181063    -4598.79190873
  entropy T*S    EENTRO =        -0.00000000
  eigenvalues    EBANDS =      -619.22202391
  atomic energy  EATOM  =      1756.20279181
  Solvation  Ediel_sol  =       -26.42504644
  ---------------------------------------------------
  free energy    TOTEN  =      -116.42113456 eV

  energy without entropy =     -116.42113456  energy(sigma->0) =     -116.42113456


--------------------------------------------------------------------------------------------------------




--------------------------------------- Iteration      1(   7)  ---------------------------------------


    POTLOK:  cpu time    113.1981: real time    113.3330
    SETDIJ:  cpu time      0.5076: real time      0.5085
    EDDIAG:  cpu time      9.6997: real time      9.7210
  RMM-DIIS:  cpu time     75.7768: real time     75.9389
    ORTHCH:  cpu time      0.1081: real time      0.1084
       DOS:  cpu time      0.0054: real time      0.0054
    CHARGE:  cpu time      6.0575: real time      6.0697
    MIXING:  cpu time      0.1259: real time      0.1247
    --------------------------------------------
      LOOP:  cpu time    205.4791: real time    205.8097

 eigenvalue-minimisations  :   251
 total energy-change (2. order) : 0.3344806E+00  (-0.3874494E-01)
 number of electron      46.0000005 magnetization       9.1072922
 augmentation part        1.1684357 magnetization       9.0873710

 Broyden mixing:
  rms(total) = 0.11756E+00    rms(broyden)= 0.11756E+00
  rms(prec ) = 0.11821E+00
  weight for this iteration     100.00

 eigenvalues of (default mixing * dielectric matrix)
  average eigenvalue GAMMA=   1.4436
  3.0913  2.1415  1.1516  0.9280  0.7203  0.6287

 Free energy of the ion-electron system (eV)
  ---------------------------------------------------
  alpha Z        PSCENC =         0.15606686
  Ewald energy   TEWEN  =      4271.38647070
  -Hartree energ DENC   =     -5659.90214339
  -exchange      EXHF   =         0.00000000
  -V(xc)+E(xc)   XCENC  =       186.66316973
  PAW double counting   =      4630.47526569    -4653.95528991
  entropy T*S    EENTRO =        -0.00000000
  eigenvalues    EBANDS =      -622.73263531
  atomic energy  EATOM  =      1756.20279181
  Solvation  Ediel_sol  =       -24.38035011
  ---------------------------------------------------
  free energy    TOTEN  =      -116.08665392 eV

  energy without entropy =     -116.08665392  energy(sigma->0) =     -116.08665392


--------------------------------------------------------------------------------------------------------




--------------------------------------- Iteration      1(   8)  ---------------------------------------


    POTLOK:  cpu time    111.8285: real time    111.9583
    SETDIJ:  cpu time      0.6161: real time      0.6175
    EDDIAG:  cpu time      9.7227: real time      9.7451
  RMM-DIIS:  cpu time     76.1739: real time     76.3322
    ORTHCH:  cpu time      0.1121: real time      0.1124
       DOS:  cpu time      0.0008: real time      0.0008
    CHARGE:  cpu time      6.0309: real time      6.0411
    MIXING:  cpu time      0.1376: real time      0.1378
    --------------------------------------------
      LOOP:  cpu time    204.6226: real time    204.9451

 eigenvalue-minimisations  :   252
 total energy-change (2. order) : 0.8617901E+00  (-0.2218794E-01)
 number of electron      46.0000005 magnetization       7.5912126
 augmentation part        1.1669063 magnetization       7.5733696

 Broyden mixing:
  rms(total) = 0.92294E-01    rms(broyden)= 0.92292E-01
  rms(prec ) = 0.92774E-01
  weight for this iteration     100.00

 eigenvalues of (default mixing * dielectric matrix)
  average eigenvalue GAMMA=   1.6252
  3.8320  2.5264  1.6793  1.1644  0.8173  0.7350  0.6223

 Free energy of the ion-electron system (eV)
  ---------------------------------------------------
  alpha Z        PSCENC =         0.15606686
  Ewald energy   TEWEN  =      4271.38647070
  -Hartree energ DENC   =     -5658.85718105
  -exchange      EXHF   =         0.00000000
  -V(xc)+E(xc)   XCENC  =       187.41382312
  PAW double counting   =      4606.29728848    -4629.76194463
  entropy T*S    EENTRO =        -0.00000000
  eigenvalues    EBANDS =      -625.48550509
  atomic energy  EATOM  =      1756.20279181
  Solvation  Ediel_sol  =       -22.57667403
  ---------------------------------------------------
  free energy    TOTEN  =      -115.22486383 eV

  energy without entropy =     -115.22486383  energy(sigma->0) =     -115.22486383


--------------------------------------------------------------------------------------------------------




--------------------------------------- Iteration      1(   9)  ---------------------------------------


    POTLOK:  cpu time    113.5054: real time    113.6481
    SETDIJ:  cpu time      0.4822: real time      0.4829
    EDDIAG:  cpu time      9.6958: real time      9.7168
  RMM-DIIS:  cpu time     75.8456: real time     76.0029
    ORTHCH:  cpu time      0.1096: real time      0.1099
       DOS:  cpu time      0.0042: real time      0.0042
    CHARGE:  cpu time      6.0099: real time      6.0224
    MIXING:  cpu time      0.1509: real time      0.1510
    --------------------------------------------
      LOOP:  cpu time    205.8037: real time    206.1381

 eigenvalue-minimisations  :   248
 total energy-change (2. order) : 0.1311502E+01  (-0.2872764E-01)
 number of electron      46.0000005 magnetization       6.6663160
 augmentation part        1.1661508 magnetization       6.6517441

 Broyden mixing:
  rms(total) = 0.54554E-01    rms(broyden)= 0.54552E-01
  rms(prec ) = 0.54836E-01
  weight for this iteration     100.00

 eigenvalues of (default mixing * dielectric matrix)
  average eigenvalue GAMMA=   1.7681
  5.2480  2.6362  2.0513  1.0538  1.0538  0.7405  0.7405  0.6208

 Free energy of the ion-electron system (eV)
  ---------------------------------------------------
  alpha Z        PSCENC =         0.15606686
  Ewald energy   TEWEN  =      4271.38647070
  -Hartree energ DENC   =     -5657.80043565
  -exchange      EXHF   =         0.00000000
  -V(xc)+E(xc)   XCENC  =       188.61620233
  PAW double counting   =      4578.79139564    -4602.23962701
  entropy T*S    EENTRO =        -0.00000000
  eigenvalues    EBANDS =      -629.41638853
  atomic energy  EATOM  =      1756.20279181
  Solvation  Ediel_sol  =       -19.60983783
  ---------------------------------------------------
  free energy    TOTEN  =      -113.91336167 eV

  energy without entropy =     -113.91336167  energy(sigma->0) =     -113.91336167


--------------------------------------------------------------------------------------------------------




--------------------------------------- Iteration      1(  10)  ---------------------------------------


    POTLOK:  cpu time    109.4234: real time    109.5496
    SETDIJ:  cpu time      0.4794: real time      0.4797
    EDDIAG:  cpu time      9.7468: real time      9.7693
  RMM-DIIS:  cpu time     75.9511: real time     76.1153
    ORTHCH:  cpu time      0.1070: real time      0.1072
       DOS:  cpu time      0.0040: real time      0.0040
    CHARGE:  cpu time      6.0285: real time      6.0394
    MIXING:  cpu time      0.1551: real time      0.1553
    --------------------------------------------
      LOOP:  cpu time    201.8951: real time    202.2198

 eigenvalue-minimisations  :   252
 total energy-change (2. order) : 0.7193158E+00  (-0.9624155E-02)
 number of electron      46.0000005 magnetization       6.0228834
 augmentation part        1.1641795 magnetization       6.0111271

 Broyden mixing:
  rms(total) = 0.38303E-01    rms(broyden)= 0.38301E-01
  rms(prec ) = 0.38453E-01
  weight for this iteration     100.00

 eigenvalues of (default mixing * dielectric matrix)
  average eigenvalue GAMMA=   1.8973
  6.9274  2.6340  2.3008  1.3304  1.0534  0.7739  0.6208  0.7176  0.7176

 Free energy of the ion-electron system (eV)
  ---------------------------------------------------
  alpha Z        PSCENC =         0.15606686
  Ewald energy   TEWEN  =      4271.38647070
  -Hartree energ DENC   =     -5658.48947235
  -exchange      EXHF   =         0.00000000
  -V(xc)+E(xc)   XCENC  =       189.35240665
  PAW double counting   =      4573.23829974    -4596.70122128
  entropy T*S    EENTRO =        -0.00000000
  eigenvalues    EBANDS =      -629.51414580
  atomic energy  EATOM  =      1756.20279181
  Solvation  Ediel_sol  =       -18.82524216
  ---------------------------------------------------
  free energy    TOTEN  =      -113.19404582 eV

  energy without entropy =     -113.19404582  energy(sigma->0) =     -113.19404582


--------------------------------------------------------------------------------------------------------




--------------------------------------- Iteration      1(  11)  ---------------------------------------


    POTLOK:  cpu time    105.1134: real time    105.2511
    SETDIJ:  cpu time      0.4455: real time      0.4463
    EDDIAG:  cpu time      9.6756: real time      9.6974
  RMM-DIIS:  cpu time     76.0113: real time     76.1693
    ORTHCH:  cpu time      0.0991: real time      0.0995
       DOS:  cpu time      0.0030: real time      0.0030
    CHARGE:  cpu time      6.0131: real time      6.0232
    MIXING:  cpu time      0.1632: real time      0.1633
    --------------------------------------------
      LOOP:  cpu time    197.5241: real time    197.8530

 eigenvalue-minimisations  :   252
 total energy-change (2. order) : 0.5747744E+00  (-0.6973288E-02)
 number of electron      46.0000005 magnetization       5.2808027
 augmentation part        1.1631529 magnetization       5.2707537

 Broyden mixing:
  rms(total) = 0.30417E-01    rms(broyden)= 0.30416E-01
  rms(prec ) = 0.30518E-01
  weight for this iteration     100.00

 eigenvalues of (default mixing * dielectric matrix)
  average eigenvalue GAMMA=   1.9285
  7.7110  2.7351  2.2776  1.6172  1.0552  1.0552  0.7672  0.7672  0.6227  0.6765

 Free energy of the ion-electron system (eV)
  ---------------------------------------------------
  alpha Z        PSCENC =         0.15606686
  Ewald energy   TEWEN  =      4271.38647070
  -Hartree energ DENC   =     -5658.57724707
  -exchange      EXHF   =         0.00000000
  -V(xc)+E(xc)   XCENC  =       189.92381237
  PAW double counting   =      4567.71300900    -4591.18150977
  entropy T*S    EENTRO =        -0.00000000
  eigenvalues    EBANDS =      -629.55851235
  atomic energy  EATOM  =      1756.20279181
  Solvation  Ediel_sol  =       -18.68415298
  ---------------------------------------------------
  free energy    TOTEN  =      -112.61927143 eV

  energy without entropy =     -112.61927143  energy(sigma->0) =     -112.61927143


--------------------------------------------------------------------------------------------------------




--------------------------------------- Iteration      1(  12)  ---------------------------------------


    POTLOK:  cpu time    105.0551: real time    105.1800
    SETDIJ:  cpu time      0.3914: real time      0.3922
    EDDIAG:  cpu time      9.7266: real time      9.7496
  RMM-DIIS:  cpu time     76.1902: real time     76.3505
    ORTHCH:  cpu time      0.1095: real time      0.1098
       DOS:  cpu time      0.0037: real time      0.0037
    CHARGE:  cpu time      6.0667: real time      6.0774
    MIXING:  cpu time      0.1611: real time      0.1605
    --------------------------------------------
      LOOP:  cpu time    197.7043: real time    198.0238

 eigenvalue-minimisations  :   252
 total energy-change (2. order) : 0.7092089E+00  ( 0.4471987E-02)
 number of electron      46.0000005 magnetization       4.5330508
 augmentation part        1.1631887 magnetization       4.5236295

 Broyden mixing:
  rms(total) = 0.24382E-01    rms(broyden)= 0.24381E-01
  rms(prec ) = 0.24431E-01
  weight for this iteration     100.00

 eigenvalues of (default mixing * dielectric matrix)
  average eigenvalue GAMMA=   2.0094
  8.4447  3.2011  2.3014  2.3014  1.2597  1.0205  0.7940  0.7495  0.7495  0.6212
  0.6602

 Free energy of the ion-electron system (eV)
  ---------------------------------------------------
  alpha Z        PSCENC =         0.15606686
  Ewald energy   TEWEN  =      4271.38647070
  -Hartree energ DENC   =     -5658.04589698
  -exchange      EXHF   =         0.00000000
  -V(xc)+E(xc)   XCENC  =       190.59948814
  PAW double counting   =      4564.51221626    -4587.97798348
  entropy T*S    EENTRO =        -0.00000000
  eigenvalues    EBANDS =      -629.84628033
  atomic energy  EATOM  =      1756.20279181
  Solvation  Ediel_sol  =       -18.89693551
  ---------------------------------------------------
  free energy    TOTEN  =      -111.91006252 eV

  energy without entropy =     -111.91006252  energy(sigma->0) =     -111.91006252


--------------------------------------------------------------------------------------------------------




--------------------------------------- Iteration      1(  13)  ---------------------------------------


    POTLOK:  cpu time    104.8029: real time    104.9366
    SETDIJ:  cpu time      0.3909: real time      0.3916
    EDDIAG:  cpu time      9.7685: real time      9.7900
  RMM-DIIS:  cpu time     76.6257: real time     76.7906
    ORTHCH:  cpu time      0.1530: real time      0.1535
       DOS:  cpu time      0.0005: real time      0.0005
    CHARGE:  cpu time      6.0042: real time      6.0168
    MIXING:  cpu time      0.1798: real time      0.1801
    --------------------------------------------
      LOOP:  cpu time    197.9255: real time    198.2596

 eigenvalue-minimisations  :   252
 total energy-change (2. order) : 0.5594199E+00  ( 0.5011537E-02)
 number of electron      46.0000005 magnetization       3.8659705
 augmentation part        1.1620074 magnetization       3.8578344

 Broyden mixing:
  rms(total) = 0.19736E-01    rms(broyden)= 0.19735E-01
  rms(prec ) = 0.19782E-01
  weight for this iteration     100.00

 eigenvalues of (default mixing * dielectric matrix)
  average eigenvalue GAMMA=   2.0637
  9.0562  3.8604  2.4761  2.4761  1.3297  1.0303  1.0303  0.7950  0.7179  0.7179
  0.6180  0.6567

 Free energy of the ion-electron system (eV)
  ---------------------------------------------------
  alpha Z        PSCENC =         0.15606686
  Ewald energy   TEWEN  =      4271.38647070
  -Hartree energ DENC   =     -5657.70557737
  -exchange      EXHF   =         0.00000000
  -V(xc)+E(xc)   XCENC  =       191.14996938
  PAW double counting   =      4567.83887941    -4591.30338185
  entropy T*S    EENTRO =        -0.00000000
  eigenvalues    EBANDS =      -629.77488867
  atomic energy  EATOM  =      1756.20279181
  Solvation  Ediel_sol  =       -19.30097284
  ---------------------------------------------------
  free energy    TOTEN  =      -111.35064257 eV

  energy without entropy =     -111.35064257  energy(sigma->0) =     -111.35064257


--------------------------------------------------------------------------------------------------------




--------------------------------------- Iteration      1(  14)  ---------------------------------------


    POTLOK:  cpu time    103.5386: real time    103.6546
    SETDIJ:  cpu time      0.3921: real time      0.3928
    EDDIAG:  cpu time      9.7640: real time      9.7870
  RMM-DIIS:  cpu time     76.1761: real time     76.3381
    ORTHCH:  cpu time      0.1106: real time      0.1109
       DOS:  cpu time      0.0033: real time      0.0033
    CHARGE:  cpu time      6.0203: real time      6.0315
    MIXING:  cpu time      0.1906: real time      0.1909
    --------------------------------------------
      LOOP:  cpu time    196.1955: real time    196.5092

 eigenvalue-minimisations  :   252
 total energy-change (2. order) : 0.3876229E+00  ( 0.1560459E-02)
 number of electron      46.0000005 magnetization       3.2394216
 augmentation part        1.1620017 magnetization       3.2317961

 Broyden mixing:
  rms(total) = 0.16377E-01    rms(broyden)= 0.16377E-01
  rms(prec ) = 0.16398E-01
  weight for this iteration     100.00

 eigenvalues of (default mixing * dielectric matrix)
  average eigenvalue GAMMA=   2.1310
  9.7015  4.6937  2.7322  2.4275  1.6433  1.1813  1.0617  0.7309  0.7309  0.7706
  0.7706  0.6290  0.6290

 Free energy of the ion-electron system (eV)
  ---------------------------------------------------
  alpha Z        PSCENC =         0.15606686
  Ewald energy   TEWEN  =      4271.38647070
  -Hartree energ DENC   =     -5656.93911700
  -exchange      EXHF   =         0.00000000
  -V(xc)+E(xc)   XCENC  =       191.50409004
  PAW double counting   =      4572.47816190    -4595.93433624
  entropy T*S    EENTRO =        -0.00000000
  eigenvalues    EBANDS =      -630.27714976
  atomic energy  EATOM  =      1756.20279181
  Solvation  Ediel_sol  =       -19.53999798
  ---------------------------------------------------
  free energy    TOTEN  =      -110.96301967 eV

  energy without entropy =     -110.96301967  energy(sigma->0) =     -110.96301967


--------------------------------------------------------------------------------------------------------




--------------------------------------- Iteration      1(  15)  ---------------------------------------


    POTLOK:  cpu time     99.2974: real time     99.4351
    SETDIJ:  cpu time      0.3884: real time      0.3891
    EDDIAG:  cpu time      9.7527: real time      9.7750
  RMM-DIIS:  cpu time     76.0172: real time     76.1728
    ORTHCH:  cpu time      0.1079: real time      0.1082
       DOS:  cpu time      0.0034: real time      0.0034
    CHARGE:  cpu time      6.0077: real time      6.0174
    MIXING:  cpu time      0.2074: real time      0.2076
    --------------------------------------------
      LOOP:  cpu time    191.7821: real time    192.1086

 eigenvalue-minimisations  :   252
 total energy-change (2. order) : 0.3311356E+00  (-0.9401961E-03)
 number of electron      46.0000005 magnetization       2.6553029
 augmentation part        1.1617318 magnetization       2.6484499

 Broyden mixing:
  rms(total) = 0.14098E-01    rms(broyden)= 0.14097E-01
  rms(prec ) = 0.14118E-01
  weight for this iteration     100.00

 eigenvalues of (default mixing * dielectric matrix)
  average eigenvalue GAMMA=   2.1506
 10.2013  5.2619  2.8750  2.3669  1.9299  1.3225  0.9739  0.8938  0.8938  0.7328
  0.7328  0.6912  0.6160  0.6160

 Free energy of the ion-electron system (eV)
  ---------------------------------------------------
  alpha Z        PSCENC =         0.15606686
  Ewald energy   TEWEN  =      4271.38647070
  -Hartree energ DENC   =     -5656.39239189
  -exchange      EXHF   =         0.00000000
  -V(xc)+E(xc)   XCENC  =       191.81609446
  PAW double counting   =      4576.80894399    -4600.26229053
  entropy T*S    EENTRO =        -0.00000000
  eigenvalues    EBANDS =      -630.64652167
  atomic energy  EATOM  =      1756.20279181
  Solvation  Ediel_sol  =       -19.70104781
  ---------------------------------------------------
  free energy    TOTEN  =      -110.63188409 eV

  energy without entropy =     -110.63188409  energy(sigma->0) =     -110.63188409


--------------------------------------------------------------------------------------------------------




--------------------------------------- Iteration      1(  16)  ---------------------------------------


    POTLOK:  cpu time    102.1358: real time    102.2601
    SETDIJ:  cpu time      0.3913: real time      0.3921
    EDDIAG:  cpu time      9.7488: real time      9.7724
  RMM-DIIS:  cpu time     75.7800: real time     75.9447
    ORTHCH:  cpu time      0.1075: real time      0.1078
       DOS:  cpu time      0.0046: real time      0.0047
    CHARGE:  cpu time      6.0361: real time      6.0484
    MIXING:  cpu time      0.2468: real time      0.2471
    --------------------------------------------
      LOOP:  cpu time    194.4509: real time    194.7773

 eigenvalue-minimisations  :   252
 total energy-change (2. order) : 0.3046879E+00  (-0.1334457E-02)
 number of electron      46.0000005 magnetization       1.8517560
 augmentation part        1.1617071 magnetization       1.8455780

 Broyden mixing:
  rms(total) = 0.11733E-01    rms(broyden)= 0.11732E-01
  rms(prec ) = 0.11748E-01
  weight for this iteration     100.00

 eigenvalues of (default mixing * dielectric matrix)
  average eigenvalue GAMMA=   2.2247
 10.7487  5.9573  3.2984  2.3434  2.3434  1.4884  1.0269  1.0269  0.9679  0.7828
  0.7249  0.7249  0.6843  0.6258  0.6258

 Free energy of the ion-electron system (eV)
  ---------------------------------------------------
  alpha Z        PSCENC =         0.15606686
  Ewald energy   TEWEN  =      4271.38647070
  -Hartree energ DENC   =     -5656.01253586
  -exchange      EXHF   =         0.00000000
  -V(xc)+E(xc)   XCENC  =       192.10805697
  PAW double counting   =      4577.90594385    -4601.36082206
  entropy T*S    EENTRO =        -0.00000000
  eigenvalues    EBANDS =      -630.94064413
  atomic energy  EATOM  =      1756.20279181
  Solvation  Ediel_sol  =       -19.77252433
  ---------------------------------------------------
  free energy    TOTEN  =      -110.32719619 eV

  energy without entropy =     -110.32719619  energy(sigma->0) =     -110.32719619


--------------------------------------------------------------------------------------------------------




--------------------------------------- Iteration      1(  17)  ---------------------------------------


    POTLOK:  cpu time    101.9868: real time    102.1128
    SETDIJ:  cpu time      0.3882: real time      0.3889
    EDDIAG:  cpu time      9.7686: real time      9.7906
  RMM-DIIS:  cpu time     76.0662: real time     76.2279
    ORTHCH:  cpu time      0.1075: real time      0.1078
       DOS:  cpu time      0.0047: real time      0.0047
    CHARGE:  cpu time      6.0408: real time      6.0539
    MIXING:  cpu time      0.2206: real time      0.2210
    --------------------------------------------
      LOOP:  cpu time    194.5836: real time    194.9077

 eigenvalue-minimisations  :   252
 total energy-change (2. order) : 0.4118347E+00  (-0.3017909E-03)
 number of electron      46.0000005 magnetization       1.1977832
 augmentation part        1.1616448 magnetization       1.1923715

 Broyden mixing:
  rms(total) = 0.91532E-02    rms(broyden)= 0.91523E-02
  rms(prec ) = 0.91704E-02
  weight for this iteration     100.00

 eigenvalues of (default mixing * dielectric matrix)
  average eigenvalue GAMMA=   2.3128
 11.6102  6.9112  3.6039  2.4973  2.4973  1.6276  1.2603  1.0044  1.0044  0.9195
  0.7447  0.7086  0.7086  0.6329  0.6371  0.6371

 Free energy of the ion-electron system (eV)
  ---------------------------------------------------
  alpha Z        PSCENC =         0.15606686
  Ewald energy   TEWEN  =      4271.38647070
  -Hartree energ DENC   =     -5655.66023193
  -exchange      EXHF   =         0.00000000
  -V(xc)+E(xc)   XCENC  =       192.51343172
  PAW double counting   =      4582.43411935    -4605.89097457
  entropy T*S    EENTRO =        -0.00000000
  eigenvalues    EBANDS =      -631.18703610
  atomic energy  EATOM  =      1756.20279181
  Solvation  Ediel_sol  =       -19.86999936
  ---------------------------------------------------
  free energy    TOTEN  =      -109.91536150 eV

  energy without entropy =     -109.91536150  energy(sigma->0) =     -109.91536150


--------------------------------------------------------------------------------------------------------




--------------------------------------- Iteration      1(  18)  ---------------------------------------


    POTLOK:  cpu time    100.7236: real time    100.8436
    SETDIJ:  cpu time      0.5447: real time      0.5450
    EDDIAG:  cpu time      9.7058: real time      9.7281
  RMM-DIIS:  cpu time     76.4120: real time     76.5741
    ORTHCH:  cpu time      0.1110: real time      0.1113
       DOS:  cpu time      0.0026: real time      0.0026
    CHARGE:  cpu time      6.0245: real time      6.0347
    MIXING:  cpu time      0.2308: real time      0.2312
    --------------------------------------------
      LOOP:  cpu time    193.7549: real time    194.0707

 eigenvalue-minimisations  :   252
 total energy-change (2. order) : 0.2930096E+00  (-0.1299057E-03)
 number of electron      46.0000005 magnetization       0.6624004
 augmentation part        1.1613112 magnetization       0.6572534

 Broyden mixing:
  rms(total) = 0.66342E-02    rms(broyden)= 0.66337E-02
  rms(prec ) = 0.66603E-02
  weight for this iteration     100.00

 eigenvalues of (default mixing * dielectric matrix)
  average eigenvalue GAMMA=   2.4381
 13.1827  7.8930  4.1631  2.7383  2.2513  1.9918  1.4030  1.0202  0.9716  0.9716
  0.8173  0.7144  0.7144  0.7474  0.6299  0.6186  0.6186

 Free energy of the ion-electron system (eV)
  ---------------------------------------------------
  alpha Z        PSCENC =         0.15606686
  Ewald energy   TEWEN  =      4271.38647070
  -Hartree energ DENC   =     -5655.41886574
  -exchange      EXHF   =         0.00000000
  -V(xc)+E(xc)   XCENC  =       192.79964235
  PAW double counting   =      4581.03536507    -4604.49410945
  entropy T*S    EENTRO =        -0.00000000
  eigenvalues    EBANDS =      -631.35188284
  atomic energy  EATOM  =      1756.20279181
  Solvation  Ediel_sol  =       -19.93783069
  ---------------------------------------------------
  free energy    TOTEN  =      -109.62235193 eV

  energy without entropy =     -109.62235193  energy(sigma->0) =     -109.62235193


--------------------------------------------------------------------------------------------------------




--------------------------------------- Iteration      1(  19)  ---------------------------------------


    POTLOK:  cpu time     97.8407: real time     97.9706
    SETDIJ:  cpu time      0.5230: real time      0.5240
    EDDIAG:  cpu time      9.7426: real time      9.7655
  RMM-DIIS:  cpu time     75.9513: real time     76.1085
    ORTHCH:  cpu time      0.1117: real time      0.1120
       DOS:  cpu time      0.0003: real time      0.0003
    CHARGE:  cpu time      6.0106: real time      6.0347
    MIXING:  cpu time      0.2463: real time      0.2467
    --------------------------------------------
      LOOP:  cpu time    190.4265: real time    190.7622

 eigenvalue-minimisations  :   252
 total energy-change (2. order) : 0.2157910E+00  ( 0.1754489E-02)
 number of electron      46.0000005 magnetization       0.2240966
 augmentation part        1.1613204 magnetization       0.2187357

 Broyden mixing:
  rms(total) = 0.49688E-02    rms(broyden)= 0.49687E-02
  rms(prec ) = 0.49964E-02
  weight for this iteration     100.00

 eigenvalues of (default mixing * dielectric matrix)
  average eigenvalue GAMMA=   2.7002
 16.7721  8.8574  4.8517  2.7467  2.4211  2.4211  1.5788  1.2440  1.0402  1.0402
  0.7588  0.7588  0.7903  0.7903  0.6578  0.6213  0.6264  0.6264

 Free energy of the ion-electron system (eV)
  ---------------------------------------------------
  alpha Z        PSCENC =         0.15606686
  Ewald energy   TEWEN  =      4271.38647070
  -Hartree energ DENC   =     -5655.18280018
  -exchange      EXHF   =         0.00000000
  -V(xc)+E(xc)   XCENC  =       193.00567065
  PAW double counting   =      4581.39251462    -4604.84868391
  entropy T*S    EENTRO =        -0.00000000
  eigenvalues    EBANDS =      -631.52712808
  atomic energy  EATOM  =      1756.20279181
  Solvation  Ediel_sol  =       -19.99146343
  ---------------------------------------------------
  free energy    TOTEN  =      -109.40656094 eV

  energy without entropy =     -109.40656094  energy(sigma->0) =     -109.40656094


--------------------------------------------------------------------------------------------------------




--------------------------------------- Iteration      1(  20)  ---------------------------------------


    POTLOK:  cpu time     99.3726: real time     99.4783
    SETDIJ:  cpu time      0.3921: real time      0.3929
    EDDIAG:  cpu time      9.7225: real time      9.7425
  RMM-DIIS:  cpu time     76.1881: real time     76.3547
    ORTHCH:  cpu time      0.1084: real time      0.1087
       DOS:  cpu time      0.0042: real time      0.0042
    CHARGE:  cpu time      6.0127: real time      6.0254
    MIXING:  cpu time      0.2548: real time      0.2552
    --------------------------------------------
      LOOP:  cpu time    192.0556: real time    192.3620

 eigenvalue-minimisations  :   252
 total energy-change (2. order) : 0.1584232E+00  ( 0.1310471E-03)
 number of electron      46.0000005 magnetization       0.1166288
 augmentation part        1.1614585 magnetization       0.1114304

 Broyden mixing:
  rms(total) = 0.29574E-02    rms(broyden)= 0.29573E-02
  rms(prec ) = 0.29960E-02
  weight for this iteration     100.00

 eigenvalues of (default mixing * dielectric matrix)
  average eigenvalue GAMMA=   2.8792
 21.0241  9.3102  5.2088  2.7630  2.7630  2.2964  1.5743  1.3798  1.0223  1.0223
  0.9423  0.7369  0.7369  0.7520  0.7520  0.6326  0.6149  0.5868  0.5868

 Free energy of the ion-electron system (eV)
  ---------------------------------------------------
  alpha Z        PSCENC =         0.15606686
  Ewald energy   TEWEN  =      4271.38647070
  -Hartree energ DENC   =     -5655.12702897
  -exchange      EXHF   =         0.00000000
  -V(xc)+E(xc)   XCENC  =       193.16319116
  PAW double counting   =      4582.39793011    -4605.85142054
  entropy T*S    EENTRO =        -0.00000000
  eigenvalues    EBANDS =      -631.51849631
  atomic energy  EATOM  =      1756.20279181
  Solvation  Ediel_sol  =       -20.05764262
  ---------------------------------------------------
  free energy    TOTEN  =      -109.24813779 eV

  energy without entropy =     -109.24813779  energy(sigma->0) =     -109.24813779


--------------------------------------------------------------------------------------------------------




--------------------------------------- Iteration      1(  21)  ---------------------------------------


    POTLOK:  cpu time     95.2627: real time     95.3910
    SETDIJ:  cpu time      0.3897: real time      0.3904
    EDDIAG:  cpu time      9.7240: real time      9.7443
  RMM-DIIS:  cpu time     76.2564: real time     76.4213
    ORTHCH:  cpu time      0.1105: real time      0.1108
       DOS:  cpu time      0.0006: real time      0.0006
    CHARGE:  cpu time      6.0250: real time      6.0346
    MIXING:  cpu time      0.2690: real time      0.2694
    --------------------------------------------
      LOOP:  cpu time    188.0379: real time    188.3625

 eigenvalue-minimisations  :   252
 total energy-change (2. order) : 0.3779606E-01  (-0.1350073E-02)
 number of electron      46.0000005 magnetization       0.0967742
 augmentation part        1.1613627 magnetization       0.0919553

 Broyden mixing:
  rms(total) = 0.27182E-02    rms(broyden)= 0.27175E-02
  rms(prec ) = 0.27415E-02
  weight for this iteration     100.00

 eigenvalues of (default mixing * dielectric matrix)
  average eigenvalue GAMMA=   2.8162
 21.8304  9.3715  5.2607  2.7580  2.7580  2.3073  1.4909  1.3481  0.9972  0.9972
  1.0004  0.7110  0.7110  0.7004  0.7004  0.7522  0.7522  0.6154  0.6154  0.6469

 Free energy of the ion-electron system (eV)
  ---------------------------------------------------
  alpha Z        PSCENC =         0.15606686
  Ewald energy   TEWEN  =      4271.38647070
  -Hartree energ DENC   =     -5655.24408273
  -exchange      EXHF   =         0.00000000
  -V(xc)+E(xc)   XCENC  =       193.20806753
  PAW double counting   =      4582.48801984    -4605.94291668
[...]

  energy  without entropy=     -109.29519257  energy(sigma->0) =     -109.29519257
 
 d Force = 0.6855109E-04[-0.103E-05, 0.138E-03]  d Energy = 0.6861811E-04-0.670E-07
 d Force = 0.6684802E+00[ 0.668E+00, 0.669E+00]  d Ewald  = 0.6684802E+00 0.419E-07


--------------------------------------------------------------------------------------------------------


    POTLOK:  cpu time     86.6698: real time     86.7621


--------------------------------------------------------------------------------------------------------




--------------------------------------------------------------------------------------------------------


    WAVPRE:  cpu time      1.0235: real time      1.0391
    FEWALD:  cpu time      0.0012: real time      0.0012

 real space projection operators:
  total allocation   :       1923.83 KBytes
  max/ min on nodes  :        195.66        186.48

    ORTHCH:  cpu time      1.2562: real time      1.2566
     LOOP+:  cpu time    816.1283: real time    817.5602


--------------------------------------- Ionic step       16  -------------------------------------------




--------------------------------------- Iteration     16(   1)  ---------------------------------------


    POTLOK:  cpu time     96.1693: real time     96.2813
    SETDIJ:  cpu time      0.3967: real time      0.3975
     EDDAV:  cpu time     45.7779: real time     45.8770
       DOS:  cpu time      0.0204: real time      0.0205
    CHARGE:  cpu time      5.9683: real time      5.9832
    MIXING:  cpu time      0.1111: real time      0.1112
    --------------------------------------------
      LOOP:  cpu time    148.4438: real time    148.6707

 eigenvalue-minimisations  :   200
 total energy-change (2. order) :-0.1324365E-04  (-0.3232901E-03)
 number of electron      46.0000001 magnetization       0.0000039
 augmentation part        1.1749598 magnetization       0.0000040

 Broyden mixing:
  rms(total) = 0.15732E-02    rms(broyden)= 0.15687E-02
  rms(prec ) = 0.15790E-02
  weight for this iteration     100.00

 Free energy of the ion-electron system (eV)
  ---------------------------------------------------
  alpha Z        PSCENC =         0.15606686
  Ewald energy   TEWEN  =      4297.81098386
  -Hartree energ DENC   =     -5680.46793262
  -exchange      EXHF   =         0.00000000
  -V(xc)+E(xc)   XCENC  =       193.78523482
  PAW double counting   =      4679.05045851    -4702.55378636
  entropy T*S    EENTRO =        -0.00000000
  eigenvalues    EBANDS =      -632.86445079
  atomic energy  EATOM  =      1756.20279181
  Solvation  Ediel_sol  =       -20.28344359
  ---------------------------------------------------
  free energy    TOTEN  =      -109.16407750 eV

  energy without entropy =     -109.16407750  energy(sigma->0) =     -109.16407750


--------------------------------------------------------------------------------------------------------




--------------------------------------- Iteration     16(   2)  ---------------------------------------


    POTLOK:  cpu time     87.8357: real time     87.9290
    SETDIJ:  cpu time      0.3936: real time      0.3944
    EDDIAG:  cpu time      9.5733: real time      9.5929
  RMM-DIIS:  cpu time     53.7372: real time     53.8497
    ORTHCH:  cpu time      0.1064: real time      0.1066
       DOS:  cpu time      0.0042: real time      0.0042
    --------------------------------------------
      LOOP:  cpu time    151.6503: real time    151.8768

 eigenvalue-minimisations  :   148
 total energy-change (2. order) :-0.9577470E-06  (-0.4374589E-05)
 number of electron      46.0000001 magnetization       0.0000039
 augmentation part        1.1749598 magnetization       0.0000040

 Free energy of the ion-electron system (eV)
  ---------------------------------------------------
  alpha Z        PSCENC =         0.15606686
  Ewald energy   TEWEN  =      4297.81098386
  -Hartree energ DENC   =     -5680.47192201
  -exchange      EXHF   =         0.00000000
  -V(xc)+E(xc)   XCENC  =       193.78431913
  PAW double counting   =      4679.00096064    -4702.50418903
  entropy T*S    EENTRO =        -0.00000000
  eigenvalues    EBANDS =      -632.85884192
  atomic energy  EATOM  =      1756.20279181
  Solvation  Ediel_sol  =       -20.28424780
  ---------------------------------------------------
  free energy    TOTEN  =      -109.16407846 eV

  energy without entropy =     -109.16407846  energy(sigma->0) =     -109.16407846


--------------------------------------------------------------------------------------------------------




 average (electrostatic) potential at core
  the test charge radii are     0.6991  0.7089  0.5201
  (the norm of the test charge is              1.0000)
       1 -62.5746       2 -61.9134       3 -61.6410       4 -61.9134       5 -62.5746
       6 -62.1230       7 -62.7157       8 -62.7155       9 -76.5665      10 -76.5663
      11 -45.1694      12 -44.9707      13 -44.7980      14 -44.9706
 
 
 
 E-fermi :  -6.8865     XC(G=0):  -0.0300     alpha+bet : -0.0170

 Fermi energy:        -6.8865409106

 spin component 1

 k-point     1 :       0.0000    0.0000    0.0000
  band No.  band energies     occupation 
      1     -24.4394      1.00000
      2     -24.2873      1.00000
      3     -23.4663      1.00000
      4     -21.1708      1.00000
      5     -20.6830      1.00000
      6     -17.4771      1.00000
      7     -17.3461      1.00000
      8     -15.4960      1.00000
      9     -13.2157      1.00000
     10     -13.0316      1.00000
     11     -12.7245      1.00000
     12     -11.5815      1.00000
     13     -11.0424      1.00000
     14     -10.1131      1.00000
     15      -9.9816      1.00000
     16      -9.9638      1.00000
     17      -9.6309      1.00000
     18      -9.4861      1.00000
     19      -8.9953      1.00000
     20      -8.8890      1.00000
     21      -8.8769      1.00000
     22      -7.3314      1.00000
     23      -7.1995      1.00000
     24      -2.7602      0.00000
     25      -2.3501      0.00000
     26      -0.6042      0.00000
     27      -0.1895      0.00000
     28      -0.0773      0.00000
     29      -0.0054      0.00000
     30       0.0126      0.00000
     31       0.0851      0.00000
     32       0.0863      0.00000
     33       0.0868      0.00000
     34       0.0893      0.00000
     35       0.0894      0.00000
     36       0.1283      0.00000
     37       0.1705      0.00000
     38       0.1749      0.00000
     39       0.1761      0.00000
     40       0.1822      0.00000
 Fermi energy:        -6.8865409106

 spin component 2

 k-point     1 :       0.0000    0.0000    0.0000
  band No.  band energies     occupation 
      1     -24.4394      1.00000
      2     -24.2873      1.00000
      3     -23.4663      1.00000
      4     -21.1708      1.00000
      5     -20.6830      1.00000
      6     -17.4771      1.00000
      7     -17.3461      1.00000
      8     -15.4960      1.00000
      9     -13.2157      1.00000
     10     -13.0316      1.00000
     11     -12.7245      1.00000
     12     -11.5815      1.00000
     13     -11.0424      1.00000
     14     -10.1131      1.00000
     15      -9.9816      1.00000
     16      -9.9638      1.00000
     17      -9.6308      1.00000
     18      -9.4861      1.00000
     19      -8.9953      1.00000
     20      -8.8890      1.00000
     21      -8.8769      1.00000
     22      -7.3314      1.00000
     23      -7.1995      1.00000
     24      -2.7602      0.00000
     25      -2.3501      0.00000
     26      -0.6042      0.00000
     27      -0.1895      0.00000
     28      -0.0772      0.00000
     29      -0.0052      0.00000
     30       0.0128      0.00000
     31       0.0853      0.00000
     32       0.0865      0.00000
     33       0.0869      0.00000
     34       0.0894      0.00000
     35       0.0895      0.00000
     36       0.1284      0.00000
     37       0.1708      0.00000
     38       0.1752      0.00000
     39       0.1803      0.00000
     40       0.1825      0.00000


--------------------------------------------------------------------------------------------------------


 soft charge-density along one line, spin component           1
         0         1         2         3         4         5         6         7         8         9
 total charge-density along one line
 
 soft charge-density along one line, spin component           2
         0         1         2         3         4         5         6         7         8         9
 total charge-density along one line
 
 pseudopotential strength for first ion, spin component:           1
 10.548  14.029  -0.007   0.000  -0.011   0.015  -0.000   0.022
 14.029  18.656  -0.009   0.000  -0.014   0.019  -0.000   0.029
 -0.007  -0.009  -4.459  -0.000   0.008   8.649   0.000  -0.013
  0.000   0.000  -0.000  -4.407   0.000   0.000   8.569  -0.000
 -0.011  -0.014   0.008   0.000  -4.449  -0.013  -0.000   8.634
  0.015   0.019   8.649   0.000  -0.013 -19.051  -0.000   0.018
 -0.000  -0.000   0.000   8.569  -0.000  -0.000 -18.942   0.000
  0.022   0.029  -0.013  -0.000   8.634   0.018   0.000 -19.030
 pseudopotential strength for first ion, spin component:           2
 10.548  14.029  -0.007   0.000  -0.011   0.015  -0.000   0.022
 14.029  18.656  -0.009   0.000  -0.014   0.019  -0.000   0.029
 -0.007  -0.009  -4.459  -0.000   0.008   8.649   0.000  -0.013
  0.000   0.000  -0.000  -4.407   0.000   0.000   8.569  -0.000
 -0.011  -0.014   0.008   0.000  -4.449  -0.013  -0.000   8.634
  0.015   0.019   8.649   0.000  -0.013 -19.051  -0.000   0.018
 -0.000  -0.000   0.000   8.569  -0.000  -0.000 -18.942   0.000
  0.022   0.029  -0.013  -0.000   8.634   0.018   0.000 -19.030
 total augmentation occupancy for first ion, spin component:           1
  9.207  -4.248  -0.017   0.000   0.015  -0.006   0.000  -0.004
 -4.248   2.008   0.049  -0.000   0.049   0.006  -0.000   0.005
 -0.017   0.049   1.871   0.000  -0.071   0.184   0.000  -0.001
  0.000  -0.000   0.000   1.279  -0.000   0.000   0.083  -0.000
  0.015   0.049  -0.071  -0.000   1.787  -0.001  -0.000   0.184
 -0.006   0.006   0.184   0.000  -0.001   0.019   0.000   0.000
  0.000  -0.000   0.000   0.083  -0.000   0.000   0.006  -0.000
 -0.004   0.005  -0.001  -0.000   0.184   0.000  -0.000   0.020
 total augmentation occupancy for first ion, spin component:           2
 -0.000   0.000   0.000   0.000  -0.000   0.000   0.000  -0.000
  0.000  -0.000  -0.000   0.000   0.000  -0.000  -0.000   0.000
  0.000  -0.000  -0.000  -0.000  -0.000  -0.000  -0.000  -0.000
  0.000   0.000  -0.000  -0.000  -0.000   0.000   0.000   0.000
 -0.000   0.000  -0.000  -0.000  -0.000  -0.000  -0.000   0.000
  0.000  -0.000  -0.000   0.000  -0.000  -0.000  -0.000  -0.000
  0.000  -0.000  -0.000   0.000  -0.000  -0.000   0.000  -0.000
 -0.000   0.000  -0.000   0.000   0.000  -0.000  -0.000   0.000


------------------------ aborting loop because EDIFF is reached ----------------------------------------


    CHARGE:  cpu time      1.6000: real time      1.6073
    FORLOC:  cpu time      0.2587: real time      0.2590
    FORNL :  cpu time      3.5518: real time      3.5598
    STRESS:  cpu time     99.5932: real time     99.7497
    FORCOR:  cpu time      8.0264: real time      8.0401
    FORHAR:  cpu time      0.8575: real time      0.8583
    MIXING:  cpu time      0.1020: real time      0.1022
    OFIELD:  cpu time      0.0001: real time      0.0001

 ---------------------------------------------------------------------------------------------

         DFTD3 V3.0 Rev 1        
 Edisp (eV)   -0.13113

 E6    (eV) :    -0.1013
 E8    (eV) :    -0.0299
 % E8        : 22.78
    FORVDW:  cpu time      0.0054: real time      0.0054

  FORCE on cell =-STRESS in cart. coord.  units (eV):
  Direction    XX          YY          ZZ          XY          YZ          ZX
  --------------------------------------------------------------------------------------
  Alpha Z     0.15607     0.15607     0.15607
  Ewald    2906.41494  1754.55339  -363.15774    -0.01889    -0.07298     0.16325
  Hartree  2906.10645  2047.26848   727.10552    -0.01844    -0.04918     0.10468
  E(xc)    -174.16304  -174.85162  -176.66122    -0.00001    -0.00005     0.00012
  Local   -6260.90889 -4281.32240  -920.35562     0.03760     0.11801    -0.25712
  n-local   -57.67177   -53.83354   -47.92669     0.00041     0.00142    -0.00242
  augment    -1.73731    -1.70725    -1.22370    -0.00000    -0.00001    -0.00002
  Kinetic   680.97280   710.65359   781.50019    -0.00037     0.00409    -0.00954
  Fock        0.00000     0.00000     0.00000     0.00000     0.00000     0.00000
  vdW        -0.04888    -0.02394    -0.00000     0.00000     0.00000    -0.00000
  -------------------------------------------------------------------------------------
  Total      -0.87965     0.89279    -0.56320     0.00029     0.00131    -0.00105
  in kB      -0.02202     0.02235    -0.01410     0.00001     0.00003    -0.00003
  external pressure =       -0.00 kB  Pullay stress =        0.00 kB


 VOLUME and BASIS-vectors are now :
 -----------------------------------------------------------------------------
  energy-cutoff  :      500.00
  volume of cell :    64000.00
      direct lattice vectors                 reciprocal lattice vectors
    40.000000000  0.000000000  0.000000000     0.025000000  0.000000000  0.000000000
     0.000000000 40.000000000  0.000000000     0.000000000  0.025000000  0.000000000
     0.000000000  0.000000000 40.000000000     0.000000000  0.000000000  0.025000000

  length of vectors
    40.000000000 40.000000000 40.000000000     0.025000000  0.025000000  0.025000000


 FORCES acting on ions
    electron-ion (+dipol)            ewald-force                    non-local-force                 convergence-correction
 -----------------------------------------------------------------------------------------------
   0.887E+02 0.310E+02 0.118E-02   -.855E+02 -.290E+02 -.149E-02   -.371E+01 -.258E+01 0.394E-03   -.232E-02 0.117E-03 -.736E-04
   0.144E+03 -.137E+03 -.408E-01   -.145E+03 0.139E+03 0.414E-01   0.150E+01 -.225E+01 -.839E-03   -.361E-02 0.342E-02 0.976E-04
   -.409E-02 -.214E+03 -.463E-02   0.409E-02 0.215E+03 0.466E-02   0.106E-04 -.235E+01 -.346E-03   -.797E-04 -.106E-02 0.109E-03
   -.144E+03 -.137E+03 0.516E-01   0.145E+03 0.139E+03 -.513E-01   -.150E+01 -.226E+01 -.278E-03   0.374E-02 0.321E-02 -.158E-04
   -.887E+02 0.310E+02 0.753E-01   0.855E+02 -.290E+02 -.762E-01   0.371E+01 -.258E+01 0.180E-02   0.258E-02 0.452E-03 -.332E-03
   0.829E-02 0.169E+03 0.240E-01   -.873E-02 -.172E+03 -.230E-01   0.772E-03 0.295E+01 0.120E-02   -.261E-03 -.406E-02 -.466E-03
   -.393E+02 0.141E+02 0.675E-01   0.387E+02 -.140E+02 -.689E-01   0.249E+01 -.139E+01 0.300E-02   -.146E-03 0.209E-02 0.887E-04
   0.393E+02 0.141E+02 -.957E-02   -.387E+02 -.140E+02 0.977E-02   -.249E+01 -.139E+01 -.466E-03   -.156E-03 0.170E-02 0.143E-04
   -.279E+03 0.152E+03 -.142E+00   0.317E+03 -.174E+03 0.168E+00   -.353E+02 0.201E+02 -.246E-01   0.186E-02 0.217E-02 0.395E-03
   0.279E+03 0.152E+03 0.101E-01   -.317E+03 -.174E+03 -.122E-01   0.353E+02 0.201E+02 0.209E-02   -.910E-03 0.244E-02 -.383E-04
   0.298E-02 0.870E+02 0.114E-01   -.317E-02 -.931E+02 -.116E-01   0.336E-03 0.631E+01 0.693E-03   -.270E-04 0.324E-03 -.688E-04
   -.700E+02 -.533E+02 0.919E-02   0.753E+02 0.560E+02 -.942E-02   -.542E+01 -.313E+01 0.271E-03   -.704E-03 -.126E-04 0.846E-05
   -.200E-02 -.883E+02 -.891E-02   0.213E-02 0.942E+02 0.955E-02   -.102E-03 -.622E+01 -.835E-03   -.485E-05 0.518E-03 0.208E-04
   0.700E+02 -.533E+02 -.194E-01   -.753E+02 0.560E+02 0.207E-01   0.542E+01 -.313E+01 -.142E-02   0.720E-03 0.122E-04 0.144E-04
 -----------------------------------------------------------------------------------------------
   0.103E-02 -.221E+02 0.209E-01   -.568E-13 0.142E-13 -.312E-16   -.351E-03 0.221E+02 -.194E-01   0.682E-03 0.113E-01 -.246E-03
 
 
 POSITION                                       TOTAL-FORCE (eV/Angst)
 -----------------------------------------------------------------------------------
     18.79953     19.61112     19.99995        -0.002870      0.004419     -0.000064
     18.79483     21.01321     20.00014        -0.006177      0.004632     -0.000116
     20.00004     21.70199     19.99997        -0.000141      0.010594     -0.000223
     21.20521     21.01316     19.99971         0.005996      0.004364     -0.000242
     21.20043     19.61106     19.99972         0.004139      0.003760      0.000034
     19.99998     18.89817     19.99981        -0.000043     -0.001434      0.001380
     22.43442     18.90059     20.00016         0.001150     -0.003779      0.000244
     17.56552     18.90075     19.99996        -0.004184     -0.005477     -0.000268
     23.44364     18.32684     20.00083         0.002972     -0.005208     -0.000426
     16.55627     18.32698     19.99991        -0.000875     -0.003707     -0.000009
     19.99994     17.81692     19.99970         0.000019     -0.004841      0.000183
     22.14651     21.54759     19.99967        -0.005411     -0.008274     -0.000118
     20.00006     22.78400     20.00011        -0.000073      0.013318     -0.000224
     17.85355     21.54769     20.00038         0.005498     -0.008367     -0.000151
 -----------------------------------------------------------------------------------
    total drift:                                0.001364      0.002700      0.001272


--------------------------------------------------------------------------------------------------------



  FREE ENERGIE OF THE ION-ELECTRON SYSTEM (eV)
  ---------------------------------------------------
  free  energy   TOTEN  =      -109.29520971 eV

  energy  without entropy=     -109.29520971  energy(sigma->0) =     -109.29520971
 
 d Force = 0.2204902E-04[-0.559E-05, 0.497E-04]  d Energy = 0.1714098E-04 0.491E-05
 d Force =-0.2564610E+00[-0.256E+00,-0.256E+00]  d Ewald  =-0.2564610E+00-0.933E-09


--------------------------------------------------------------------------------------------------------


    POTLOK:  cpu time     88.1120: real time     88.2165


--------------------------------------------------------------------------------------------------------


 Conjugate gradient step on ions:
 trial-energy change:   -0.000017  1 .order   -0.000022   -0.000050    0.000006
  (g-gl).g = 0.228E-03      g.g   = 0.168E-03  gl.gl    = 0.646E-03
 g(Force)  = 0.168E-03   g(Stress)= 0.000E+00 ortho     = 0.595E-05
 gamma     =   0.35310
 trial     =   0.29222
 opt step  =   0.26265  (harmonic =   0.26265) maximal distance =0.00042223
 next E    =  -109.295215   (d E  =  -0.00002)


--------------------------------------------------------------------------------------------------------


  
 reached required accuracy - stopping structural energy minimisation
 writing wavefunctions
     LOOP+:  cpu time    510.8168: real time    512.3146
    4ORBIT:  cpu time      0.0000: real time      0.0000

 total amount of memory used by VASP MPI-rank0   887271. kBytes
=======================================================================

   base      :      30000. kBytes
   nonlr-proj:       1400. kBytes
   fftplans  :     167689. kBytes
   grid      :     662171. kBytes
   one-center:         12. kBytes
   wavefun   :      25999. kBytes
 
  
  
 General timing and accounting informations for this job:
 ========================================================
  
                  Total CPU time used (sec):    35312.480
                            User time (sec):    32574.774
                          System time (sec):     2737.705
                         Elapsed time (sec):    35380.820
  
                   Maximum memory used (kb):     2143588.
                   Average memory used (kb):          N/A
  
                          Minor page faults:    176957736
                          Major page faults:           21
                 Voluntary context switches:      1605480
