 vasp.6.3.2 27Jun22 (build Oct 25 2024 11:36:28) complex                        
  
 executed on             LinuxIFC date 2024.12.19  17:01:44
 running on   80 total cores
 distrk:  each k-point on   80 cores,    1 groups
 distr:  one band on NCORE=  10 cores,    8 groups


--------------------------------------------------------------------------------------------------------


 INCAR:
   SYSTEM = 017_red
   ISTART = 1
   ICHARG = 2
   INIWAV = 1
   NELM = 100
   ALGO = fast   	
   ISPIN = 2
   EDIFF = 1E-05
   ISMEAR = 0
   SIGMA = 0.05
   PREC = accurate
   ENCUT = 500
   LREAL = auto  	
   LWAVE = .TRUE.
   LCHARG = .FALSE.
   LAECHG = .FALSE.
   LVHAR = .FALSE.
   LVTOT = .FALSE.
   EDIFFG = -0.02
   IBRION = 2
   NSW = 500
   ISIF = 2
   POTIM = 0.5
   IVDW = 11
   LPLANE = .TRUE.
   NCORE = 10
   LSCALU = .FALSE.
   NSIM = 4
   LSOL = .TRUE.
   ISOL = 2
   R_SOLV = 2.1900
   EPSILON_INF = 1.8069
   N_MOL = 0.0115
   P_MOL = 0.82
   EB_K = 35.6880

 POTCAR:    PAW_PBE C 08Apr2002                   
 POTCAR:    PAW_PBE H 15Jun2001                   
 -----------------------------------------------------------------------------
|                                                                             |
|           W    W    AA    RRRRR   N    N  II  N    N   GGGG   !!!           |
|           W    W   A  A   R    R  NN   N  II  NN   N  G    G  !!!           |
|           W    W  A    A  R    R  N N  N  II  N N  N  G       !!!           |
|           W WW W  AAAAAA  RRRRR   N  N N  II  N  N N  G  GGG   !            |
|           WW  WW  A    A  R   R   N   NN  II  N   NN  G    G                |
|           W    W  A    A  R    R  N    N  II  N    N   GGGG   !!!           |
|                                                                             |
|     You use a magnetic or noncollinear calculation, but did not specify     |
|     the initial magnetic moment with the MAGMOM tag. Note that a            |
|     default of 1 will be used for all atoms. This ferromagnetic setup       |
|     may break the symmetry of the crystal, in particular it may rule        |
|     out finding an antiferromagnetic solution. Thence, we recommend         |
|     setting the initial magnetic moment manually or verifying carefully     |
|     that this magnetic setup is desired.                                    |
|                                                                             |
 -----------------------------------------------------------------------------

 POTCAR:    PAW_PBE C 08Apr2002                   
   SHA256 =  253f7b50bb8d59471dbedb8285d89021f4a42ed1a2c5d38a03a736e69125dd95 C/POTCAR              
   COPYR  = (c) Copyright 08Apr2002 Georg Kresse                                                    
   COPYR  = This file is part of the software VASP. Any use, copying, and all other rights are regul
   COPYR  = If you do not have a valid VASP license, you may not use, copy or distribute this file. 
   VRHFIN =C: s2p2                                                                                  
   LEXCH  = PE                                                                                      
   EATOM  =   147.1560 eV,   10.8157 Ry                                                             
                                                                                                    
   TITEL  = PAW_PBE C 08Apr2002                                                                     
   LULTRA =        F    use ultrasoft PP ?                                                          
   IUNSCR =        1    unscreen: 0-lin 1-nonlin 2-no                                               
   RPACOR =    1.200    partial core radius                                                         
   POMASS =   12.011; ZVAL   =    4.000    mass and valenz                                          
   RCORE  =    1.500    outmost cutoff radius                                                       
   RWIGS  =    1.630; RWIGS  =    0.863    wigner-seitz radius (au A)                               
   ENMAX  =  400.000; ENMIN  =  300.000 eV                                                          
   ICORE  =        2    local potential                                                             
   LCOR   =        T    correct aug charges                                                         
   LPAW   =        T    paw PP                                                                      
   EAUG   =  644.873                                                                                
   DEXC   =    0.000                                                                                
   RMAX   =    1.529    core radius for proj-oper                                                   
   RAUG   =    1.300    factor for augmentation sphere                                              
   RDEP   =    1.501    radius for radial grids                                                     
   RDEPT  =    1.300    core radius for aug-charge                                                  
                                                                                                    
   Atomic configuration                                                                             
    4 entries                                                                                       
     n  l   j            E        occ.                                                              
     1  0  0.50      -273.3789   2.0000                                                             
     2  0  0.50       -13.7508   2.0000                                                             
     2  1  0.50        -5.2854   2.0000                                                             
     3  2  1.50        -5.4423   0.0000                                                             
   Description                                                                                      
     l       E           TYP  RCUT    TYP  RCUT                                                     
     0    -13.7508458     23  1.200                                                                 
     0     -8.2022199     23  1.200                                                                 
     1     -5.2854383     23  1.500                                                                 
     1     34.0145650     23  1.500                                                                 
     2     -5.4423304      7  1.500                                                                 
  local pseudopotential read in
  partial core-charges read in
  partial kinetic energy density read in
  atomic valenz-charges read in
  non local Contribution for L=           0  read in
    real space projection operators read in
  non local Contribution for L=           0  read in
    real space projection operators read in
  non local Contribution for L=           1  read in
    real space projection operators read in
  non local Contribution for L=           1  read in
    real space projection operators read in
    PAW grid and wavefunctions read in
 
   number of l-projection  operators is LMAX  =           4
   number of lm-projection operators is LMMAX =           8
 
 POTCAR:    PAW_PBE H 15Jun2001                   
   SHA256 =  030f79b5d3ab3cf0e668861823c8fb652ff669f3e15e46930bd03bfd63a607b6 H/POTCAR              
   COPYR  = (c) Copyright 15Jun2001 Georg Kresse                                                    
   COPYR  = This file is part of the software VASP. Any use, copying, and all other rights are regul
   COPYR  = If you do not have a valid VASP license, you may not use, copy or distribute this file. 
   VRHFIN =H: ultrasoft test                                                                        
   LEXCH  = PE                                                                                      
   EATOM  =    12.4884 eV,    0.9179 Ry                                                             
                                                                                                    
   TITEL  = PAW_PBE H 15Jun2001                                                                     
   LULTRA =        F    use ultrasoft PP ?                                                          
   IUNSCR =        0    unscreen: 0-lin 1-nonlin 2-no                                               
   RPACOR =    0.000    partial core radius                                                         
   POMASS =    1.000; ZVAL   =    1.000    mass and valenz                                          
   RCORE  =    1.100    outmost cutoff radius                                                       
   RWIGS  =    0.700; RWIGS  =    0.370    wigner-seitz radius (au A)                               
   ENMAX  =  250.000; ENMIN  =  200.000 eV                                                          
   RCLOC  =    0.701    cutoff for local pot                                                        
   LCOR   =        T    correct aug charges                                                         
   LPAW   =        T    paw PP                                                                      
   EAUG   =  400.000                                                                                
   RMAX   =    1.123    core radius for proj-oper                                                   
   RAUG   =    1.200    factor for augmentation sphere                                              
   RDEP   =    1.112    radius for radial grids                                                     
   RDEPT  =    0.926    core radius for aug-charge                                                  
                                                                                                    
   Atomic configuration                                                                             
    2 entries                                                                                       
     n  l   j            E        occ.                                                              
     1  0  0.50        -6.4927   1.0000                                                             
     2  1  0.50        -3.4015   0.0000                                                             
   Description                                                                                      
     l       E           TYP  RCUT    TYP  RCUT                                                     
     0     -6.4927494     23  1.100                                                                 
     0      6.8029130     23  1.100                                                                 
     1     -4.0817478     23  1.100                                                                 
  local pseudopotential read in
  atomic valenz-charges read in
  non local Contribution for L=           0  read in
    real space projection operators read in
  non local Contribution for L=           0  read in
    real space projection operators read in
  non local Contribution for L=           1  read in
    real space projection operators read in
    PAW grid and wavefunctions read in
 
   number of l-projection  operators is LMAX  =           3
   number of lm-projection operators is LMMAX =           5
 
 Optimization of the real space projectors (new method)

 maximal supplied QI-value         = 25.13
 optimisation between [QCUT,QGAM] = [ 11.31, 22.87] = [ 35.82,146.48] Ry 
 Optimized for a Real-space Cutoff    1.03 Angstroem

   l    n(q)    QCUT    max X(q) W(low)/X(q) W(high)/X(q)  e(spline) 
   0      7    11.310   115.676    0.20E-03    0.90E-03    0.20E-06
   0      7    11.310    87.132    0.20E-03    0.89E-03    0.19E-06
   1      6    11.310     4.429    0.16E-03    0.28E-03    0.12E-06
   1      6    11.310     2.733    0.12E-03    0.21E-03    0.99E-07
 Optimization of the real space projectors (new method)

 maximal supplied QI-value         = 34.20
 optimisation between [QCUT,QGAM] = [ 11.29, 22.57] = [ 35.68,142.71] Ry 
 Optimized for a Real-space Cutoff    1.20 Angstroem

   l    n(q)    QCUT    max X(q) W(low)/X(q) W(high)/X(q)  e(spline) 
   0      8    11.287    19.460    0.22E-03    0.50E-03    0.19E-06
   0      8    11.287    12.209    0.21E-03    0.48E-03    0.18E-06
   1      8    11.287     4.655    0.21E-03    0.11E-04    0.26E-06
  PAW_PBE C 08Apr2002                   :
 energy of atom  1       EATOM= -147.1560
 kinetic energy error for atom=    0.0076 (will be added to EATOM!!)
  PAW_PBE H 15Jun2001                   :
 energy of atom  2       EATOM=  -12.4884
 kinetic energy error for atom=    0.0020 (will be added to EATOM!!)
 
 
 POSCAR: C H
  positions in direct lattice
  velocities in cartesian coordinates
 exchange correlation table for  LEXCH =        8
   RHO(1)=    0.500       N(1)  =     2000
   RHO(2)=  100.500       N(2)  =     4000
 
 POSCAR: C H
  positions in direct lattice
  velocities in cartesian coordinates
 
 POSCAR: C H
  positions in direct lattice
  velocities in cartesian coordinates
 


--------------------------------------------------------------------------------------------------------


 ion  position               nearest neighbor table
   1  0.495  0.475  0.500-  22 1.09   2 1.39   6 1.41
   2  0.460  0.471  0.500-  21 1.09   1 1.39   3 1.41
   3  0.438  0.498  0.500-   4 1.40   2 1.41  10 1.51
   4  0.453  0.530  0.500-  17 1.09   5 1.40   3 1.40
   5  0.487  0.535  0.500-  16 1.09   4 1.40   6 1.41
   6  0.509  0.507  0.500-   5 1.41   1 1.41   7 1.47
   7  0.545  0.513  0.500-  15 1.10   8 1.35   6 1.47
   8  0.570  0.490  0.500-  14 1.10   7 1.35   9 1.50
   9  0.607  0.498  0.500-  13 1.10  11 1.10  12 1.10   8 1.50
  10  0.401  0.493  0.500-  18 1.10  20 1.10  19 1.10   3 1.51
  11  0.619  0.487  0.522-   9 1.10
  12  0.619  0.487  0.478-   9 1.10
  13  0.611  0.525  0.500-   9 1.10
  14  0.564  0.463  0.500-   8 1.10
  15  0.553  0.540  0.500-   7 1.10
  16  0.498  0.560  0.500-   5 1.09
  17  0.436  0.552  0.500-   4 1.09
  18  0.388  0.517  0.505-  10 1.10
  19  0.393  0.484  0.475-  10 1.10
  20  0.393  0.475  0.518-  10 1.10
  21  0.450  0.446  0.500-   2 1.09
  22  0.511  0.453  0.500-   1 1.09
 
  LATTYP: Found a simple cubic cell.
 ALAT       =    40.0000000000
  
  Lattice vectors:
  
 A1 = (  40.0000000000,   0.0000000000,   0.0000000000)
 A2 = (   0.0000000000,  40.0000000000,   0.0000000000)
 A3 = (   0.0000000000,   0.0000000000,  40.0000000000)


Analysis of symmetry for initial positions (statically):
=====================================================================
 Subroutine PRICEL returns:
 Original cell was already a primitive cell.
 

 Routine SETGRP: Setting up the symmetry group for a 
 simple cubic supercell.


 Subroutine GETGRP returns: Found  1 space group operations
 (whereof  1 operations were pure point group operations)
 out of a pool of 48 trial point group operations.


The static configuration has the point symmetry C_1 .


Analysis of symmetry for dynamics (positions and initial velocities):
=====================================================================
 Subroutine PRICEL returns:
 Original cell was already a primitive cell.
 

 Routine SETGRP: Setting up the symmetry group for a 
 simple cubic supercell.


 Subroutine GETGRP returns: Found  1 space group operations
 (whereof  1 operations were pure point group operations)
 out of a pool of 48 trial point group operations.


The dynamic configuration has the point symmetry C_1 .


Analysis of constrained symmetry for selective dynamics:
=====================================================================
 Subroutine PRICEL returns:
 Original cell was already a primitive cell.
 

 Routine SETGRP: Setting up the symmetry group for a 
 simple cubic supercell.


 Subroutine GETGRP returns: Found  1 space group operations
 (whereof  1 operations were pure point group operations)
 out of a pool of 48 trial point group operations.


The constrained configuration has the point symmetry C_1 .


Analysis of structural, dynamic, and magnetic symmetry:
=====================================================================
 Subroutine PRICEL returns:
 Original cell was already a primitive cell.
 

 Routine SETGRP: Setting up the symmetry group for a 
 simple cubic supercell.


 Subroutine GETGRP returns: Found  1 space group operations
 (whereof  1 operations were pure point group operations)
 out of a pool of 48 trial point group operations.


The overall configuration has the point symmetry C_1 .


 Subroutine INISYM returns: Found  1 space group operations
 (whereof  1 operations are pure point group operations),
 and found     1 'primitive' translations


----------------------------------------------------------------------------------------

                                     Primitive cell                                     

  volume of cell :   64000.0000

  direct lattice vectors                    reciprocal lattice vectors
    40.000000000  0.000000000  0.000000000     0.025000000  0.000000000  0.000000000
     0.000000000 40.000000000  0.000000000     0.000000000  0.025000000  0.000000000
     0.000000000  0.000000000 40.000000000     0.000000000  0.000000000  0.025000000

  length of vectors
    40.000000000 40.000000000 40.000000000     0.025000000  0.025000000  0.025000000

  position of ions in fractional coordinates (direct lattice)
     0.494781089  0.474939779  0.500106543
     0.460241241  0.470790394  0.500188992
     0.438391091  0.498382103  0.500192231
     0.452697308  0.530365446  0.500209292
     0.487359466  0.534668340  0.500119850
     0.509287762  0.507127548  0.500052716
     0.545495082  0.513092535  0.500012051
     0.570060728  0.490055788  0.500022977
     0.606567486  0.498065652  0.499956758
     0.401067187  0.493468877  0.499778819
     0.619141227  0.487227581  0.521961886
     0.619069658  0.487144346  0.477949941
     0.610996811  0.525183827  0.499895188
     0.563685046  0.463429747  0.500080120
     0.552791770  0.539522042  0.499955513
     0.497816519  0.559918354  0.500152709
     0.436430974  0.552304403  0.500315671
     0.387785885  0.516893799  0.505064179
     0.392563259  0.484400967  0.475208291
     0.393222530  0.474715803  0.518287931
     0.449841163  0.445529288  0.500321276
     0.510706718  0.452774381  0.500168064

  ion indices of the primitive-cell ions
   primitive index   ion index
                 1           1
                 2           2
                 3           3
                 4           4
                 5           5
                 6           6
                 7           7
                 8           8
                 9           9
                10          10
                11          11
                12          12
                13          13
                14          14
                15          15
                16          16
                17          17
                18          18
                19          19
                20          20
                21          21
                22          22

----------------------------------------------------------------------------------------

 
 
 KPOINTS: K-Point Grid                            

Automatic generation of k-mesh.
 Grid dimensions read from file:
 generate k-points for:    1    1    1

 Generating k-lattice:

  Cartesian coordinates                     Fractional coordinates (reciprocal lattice)
     0.025000000  0.000000000  0.000000000     1.000000000  0.000000000  0.000000000
     0.000000000  0.025000000  0.000000000     0.000000000  1.000000000  0.000000000
     0.000000000  0.000000000  0.025000000     0.000000000  0.000000000  1.000000000

  Length of vectors
     0.025000000  0.025000000  0.025000000

  Shift w.r.t. Gamma in fractional coordinates (k-lattice)
     0.000000000  0.000000000  0.000000000

 
 Subroutine IBZKPT returns following result:
 ===========================================
 
 Found      1 irreducible k-points:
 
 Following reciprocal coordinates:
            Coordinates               Weight
  0.000000  0.000000  0.000000      1.000000
 
 Following cartesian coordinates:
            Coordinates               Weight
  0.000000  0.000000  0.000000      1.000000
 


--------------------------------------------------------------------------------------------------------




 Dimension of arrays:
   k-points           NKPTS =      1   k-points in BZ     NKDIM =      1   number of bands    NBANDS=     56
   number of dos      NEDOS =    301   number of ions     NIONS =     22
   non local maximal  LDIM  =      4   non local SUM 2l+1 LMDIM =      8
   total plane-waves  NPLWV = ******
   max r-space proj   IRMAX =   2915   max aug-charges    IRDMAX=   4885
   dimension x,y,z NGX =   294 NGY =  294 NGZ =  294
   dimension x,y,z NGXF=   588 NGYF=  588 NGZF=  588
   support grid    NGXF=   588 NGYF=  588 NGZF=  588
   ions per type =              10  12
   NGX,Y,Z   is equivalent  to a cutoff of  12.22, 12.22, 12.22 a.u.
   NGXF,Y,Z  is equivalent  to a cutoff of  24.44, 24.44, 24.44 a.u.

 SYSTEM =  017_red                                 
 POSCAR =  C H                                     

 Startparameter for this run:
   NWRITE =      2    write-flag & timer
   PREC   = accura    normal or accurate (medium, high low for compatibility)
   ISTART =      1    job   : 0-new  1-cont  2-samecut
   ICHARG =      2    charge: 1-file 2-atom 10-const
   ISPIN  =      2    spin polarized calculation?
   LNONCOLLINEAR =      F non collinear calculations
   LSORBIT =      F    spin-orbit coupling
   INIWAV =      1    electr: 0-lowe 1-rand  2-diag
   LASPH  =      F    aspherical Exc in radial PAW
 Electronic Relaxation 1
   ENCUT  =  500.0 eV  36.75 Ry    6.06 a.u.  72.93 72.93 72.93*2*pi/ulx,y,z
   ENINI  =  500.0     initial cutoff
   ENAUG  =  644.9 eV  augmentation charge cutoff
   NELM   =    100;   NELMIN=  2; NELMDL=  0     # of ELM steps 
   EDIFF  = 0.1E-04   stopping-criterion for ELM
   LREAL  =      T    real-space projection
   NLSPLINE    = F    spline interpolate recip. space projectors
   LCOMPAT=      F    compatible to vasp.4.4
   GGA_COMPAT  = T    GGA compatible to vasp.4.4-vasp.4.6
   LMAXPAW     = -100 max onsite density
   LMAXMIX     =    2 max onsite mixed and CHGCAR
   VOSKOWN=      0    Vosko Wilk Nusair interpolation
   ROPT   =   -0.00025  -0.00025
 Ionic relaxation
   EDIFFG = -.2E-01   stopping-criterion for IOM
   NSW    =    500    number of steps for IOM
   NBLOCK =      1;   KBLOCK =    500    inner block; outer block 
   IBRION =      2    ionic relax: 0-MD 1-quasi-New 2-CG
   NFREE  =      1    steps in history (QN), initial steepest desc. (CG)
   ISIF   =      2    stress and relaxation
   IWAVPR =     11    prediction:  0-non 1-charg 2-wave 3-comb
   ISYM   =      2    0-nonsym 1-usesym 2-fastsym
   LCORR  =      T    Harris-Foulkes like correction to forces

   POTIM  = 0.5000    time-step for ionic-motion
   TEIN   =    0.0    initial temperature
   TEBEG  =    0.0;   TEEND  =   0.0 temperature during run
   SMASS  =  -3.00    Nose mass-parameter (am)
   estimated Nose-frequenzy (Omega)   =  0.10E-29 period in steps = 0.13E+47 mass=  -0.366E-25a.u.
   SCALEE = 1.0000    scale energy and forces
   NPACO  =    256;   APACO  = 10.0  distance and # of slots for P.C.
   PSTRESS=    0.0 pullay stress

  Mass of Ions in am
   POMASS =  12.01  1.00
  Ionic Valenz
   ZVAL   =   4.00  1.00
  Atomic Wigner-Seitz radii
   RWIGS  =  -1.00 -1.00
  virtual crystal weights 
   VCA    =   1.00  1.00
   NELECT =      52.0000    total number of electrons
   NUPDOWN=      -1.0000    fix difference up-down

 DOS related values:
   EMIN   =  10.00;   EMAX   =-10.00  energy-range for DOS
   EFERMI =   0.00
   ISMEAR =     0;   SIGMA  =   0.05  broadening in eV -4-tet -1-fermi 0-gaus

 Electronic relaxation 2 (details)
   IALGO  =     68    algorithm
   LDIAG  =      T    sub-space diagonalisation (order eigenvalues)
   LSUBROT=      F    optimize rotation matrix (better conditioning)
   TURBO    =      0    0=normal 1=particle mesh
   IRESTART =      0    0=no restart 2=restart with 2 vectors
   NREBOOT  =      0    no. of reboots
   NMIN     =      0    reboot dimension
   EREF     =   0.00    reference energy to select bands
   IMIX   =      4    mixing-type and parameters
     AMIX     =   0.40;   BMIX     =  1.00
     AMIX_MAG =   1.60;   BMIX_MAG =  1.00
     AMIN     =   0.10
     WC   =   100.;   INIMIX=   1;  MIXPRE=   1;  MAXMIX= -45

 Intra band minimization:
   WEIMIN = 0.0010     energy-eigenvalue tresh-hold
   EBREAK =  0.45E-07  absolut break condition
   DEPER  =   0.30     relativ break condition  

   TIME   =   0.40     timestep for ELM

  volume/ion in A,a.u.               =    2909.09     19631.51
  Fermi-wavevector in a.u.,A,eV,Ry     =   0.152762  0.288679  0.317510  0.023336
  Thomas-Fermi vector in A             =   0.833416
 
 Write flags
   LWAVE        =      T    write WAVECAR
   LDOWNSAMPLE  =      F    k-point downsampling of WAVECAR
   LCHARG       =      F    write CHGCAR
   LVTOT        =      F    write LOCPOT, total local potential
   LVHAR        =      F    write LOCPOT, Hartree potential only
   LELF         =      F    write electronic localiz. function (ELF)
   LORBIT       =      0    0 simple, 1 ext, 2 COOP (PROOUT), +10 PAW based schemes


 Dipole corrections
   LMONO  =      F    monopole corrections only (constant potential shift)
   LDIPOL =      F    correct potential (dipole corrections)
   IDIPOL =      0    1-x, 2-y, 3-z, 4-all directions 
   EPSILON=  1.0000000 bulk dielectric constant

 Exchange correlation treatment:
   GGA     =    --    GGA type
   LEXCH   =     8    internal setting for exchange type
   LIBXC   =     F    Libxc                    
   VOSKOWN =     0    Vosko Wilk Nusair interpolation
   LHFCALC =     F    Hartree Fock is set to
   LHFONE  =     F    Hartree Fock one center treatment
   AEXX    =    0.0000 exact exchange contribution

 Linear response parameters
   LEPSILON=     F    determine dielectric tensor
   LRPA    =     F    only Hartree local field effects (RPA)
   LNABLA  =     F    use nabla operator in PAW spheres
   LVEL    =     F    velocity operator in full k-point grid
   CSHIFT  =0.1000    complex shift for real part using Kramers Kronig
   OMEGAMAX=  -1.0    maximum frequency
   DEG_THRESHOLD= 0.2000000E-02 threshold for treating states as degnerate
   RTIME   =   -0.100 relaxation time in fs
  (WPLASMAI=    0.000 imaginary part of plasma frequency in eV, 0.658/RTIME)
   DFIELD  = 0.0000000 0.0000000 0.0000000 field for delta impulse in time
 
  Optional k-point grid parameters
   LKPOINTS_OPT  =     F    use optional k-point grid
   KPOINTS_OPT_MODE=     1    mode for optional k-point grid
 
 Orbital magnetization related:
   ORBITALMAG=     F  switch on orbital magnetization
   LCHIMAG   =     F  perturbation theory with respect to B field
   DQ        =  0.001000  dq finite difference perturbation B field
   LLRAUG    =     F  two centre corrections for induced B field

 Solvation model:
   LSOL             =     T         switch on solvation model
   LSOL_SCF         =     T         include solvation in SCF
   ISOL             =     2         solvation model type
   EFERMI_ref       =  0.000000         reference Fermi level
   capacitance_init =  1.000000         initial capacitance
 Nonlinear solvation model:
   LNLDIEL     =     T         switch on non-linear dielectric mode
   LNLION      =     T         switch on non-linear ionic mode
   LNLTEST     =     F         test non-linear model in linear regime
   I_NLOC_SOL  =     1         type of nonlocal dielectric response
   NC_K        =  0.015000     cutoff charge density for cavities (1/Angstrom**3)
   TAU         =  0.000879     cavity formation energy (eV/Angstrom**2)
   SIGMA_K     =  0.600000     cavity width
   A_K         =  0.125000     smoothing length (Angstrom)
   R_SOLV      =  2.190000     solvent radius (Angstrom)
   R_CAV       =  0.000000     cavity radius (Angstrom)
   R_DIEL      =  1.000000     dielectric radius (Angstrom)
   R_ION       =  0.000000     ionic radius (Angstrom)
   R_B         =  0.000000     bound charge radius (Angstrom)
   SOLTEMP     =298.000000     solvent temperature (K)
   EB_K        = 35.688000     relative permittivity of the bulk solvent
   EPSILON_INF =  1.806900     optical relative permittivity of bulk solvent
   N_MOL       =  0.011500     molar density of solvent (1/Angstrom**3)
   P_MOL       =  0.820000     solvent dipole moment (e*Angstrom)
   C_MOLAR     =  0.000000     electrolyte concentration (mol/L)
   LAMBDA_D_K  =  0.000000     Debye length (Angstrom)
   ZION        =  1.000000     charge of ions in electrolyte (e)
   D_ION       = -1.000000     minimum ion packing diameter (Angstrom)



--------------------------------------------------------------------------------------------------------


 conjugate gradient relaxation of ions
   using selective dynamics as specified on POSCAR
 charge density and potential will be updated during run
 spin polarized calculation
 RMM-DIIS sequential band-by-band and
  variant of blocked Davidson during initial phase
 perform sub-space diagonalisation
    before iterative eigenvector-optimisation
 modified Broyden-mixing scheme, WC =      100.0
 initial mixing is a Kerker type mixing with AMIX =  0.4000 and BMIX =      1.0000
 Hartree-type preconditioning will be used
 using additional bands           30
 real space projection scheme for non local part
 use partial core corrections
 calculate Harris-corrections to forces 
   (improved forces if not selfconsistent)
 use gradient corrections 
 use of overlap-Matrix (Vanderbilt PP)
 Gauss-broadening in eV      SIGMA  =   0.05


--------------------------------------------------------------------------------------------------------


  energy-cutoff  :      500.00
  volume of cell :    64000.00
      direct lattice vectors                 reciprocal lattice vectors
    40.000000000  0.000000000  0.000000000     0.025000000  0.000000000  0.000000000
     0.000000000 40.000000000  0.000000000     0.000000000  0.025000000  0.000000000
     0.000000000  0.000000000 40.000000000     0.000000000  0.000000000  0.025000000

  length of vectors
    40.000000000 40.000000000 40.000000000     0.025000000  0.025000000  0.025000000


 
 old parameters found on file WAVECAR:
  energy-cutoff  :      500.00
  volume of cell :    64000.00
      direct lattice vectors                 reciprocal lattice vectors
    40.000000000  0.000000000  0.000000000     0.025000000  0.000000000  0.000000000
     0.000000000 40.000000000  0.000000000     0.000000000  0.025000000  0.000000000
     0.000000000  0.000000000 40.000000000     0.000000000  0.000000000  0.025000000

  length of vectors

 
 k-points in units of 2pi/SCALE and weight: K-Point Grid                            
   0.00000000  0.00000000  0.00000000       1.000
 
 k-points in reciprocal lattice and weights: K-Point Grid                            
   0.00000000  0.00000000  0.00000000       1.000
 
 position of ions in fractional coordinates (direct lattice) 
   0.49478109  0.47493978  0.50010654
   0.46024124  0.47079039  0.50018899
   0.43839109  0.49838210  0.50019223
   0.45269731  0.53036545  0.50020929
   0.48735947  0.53466834  0.50011985
   0.50928776  0.50712755  0.50005272
   0.54549508  0.51309254  0.50001205
   0.57006073  0.49005579  0.50002298
   0.60656749  0.49806565  0.49995676
   0.40106719  0.49346888  0.49977882
   0.61914123  0.48722758  0.52196189
   0.61906966  0.48714435  0.47794994
   0.61099681  0.52518383  0.49989519
   0.56368505  0.46342975  0.50008012
   0.55279177  0.53952204  0.49995551
   0.49781652  0.55991835  0.50015271
   0.43643097  0.55230440  0.50031567
   0.38778588  0.51689380  0.50506418
   0.39256326  0.48440097  0.47520829
   0.39322253  0.47471580  0.51828793
   0.44984116  0.44552929  0.50032128
   0.51070672  0.45277438  0.50016806
 
 position of ions in cartesian coordinates  (Angst):
  19.79124355 18.99759114 20.00426173
  18.40964963 18.83161577 20.00755966
  17.53564365 19.93528414 20.00768925
  18.10789230 21.21461783 20.00837168
  19.49437865 21.38673359 20.00479402
  20.37151049 20.28510193 20.00210863
  21.81980327 20.52370141 20.00048206
  22.80242912 19.60223153 20.00091908
  24.26269942 19.92262607 19.99827032
  16.04268748 19.73875506 19.99115277
  24.76564908 19.48910323 20.87847545
  24.76278634 19.48577384 19.11799766
  24.43987243 21.00735309 19.99580754
  22.54740186 18.53718988 20.00320480
  22.11167082 21.58088167 19.99822051
  19.91266078 22.39673415 20.00610836
  17.45723895 22.09217610 20.01262684
  15.51143539 20.67575195 20.20256716
  15.70253037 19.37603869 19.00833164
  15.72890119 18.98863213 20.73151725
  17.99364651 17.82117153 20.01285105
  20.42826871 18.11097525 20.00672255
 


--------------------------------------------------------------------------------------------------------


 k-point   1 :   0.0000 0.0000 0.0000  plane waves: 1624525

 maximum and minimum number of plane-waves per node :    162473   162437

 maximum number of plane-waves:   1624525
 maximum index in each direction: 
   IXMAX=   72   IYMAX=   72   IZMAX=   72
   IXMIN=  -72   IYMIN=  -72   IZMIN=  -72


 real space projection operators:
  total allocation   :       2419.16 KBytes
  max/ min on nodes  :        248.42        238.95


 parallel 3D FFT for wavefunctions:
    minimum data exchange during FFTs selected (reduces bandwidth)
 parallel 3D FFT for charge:
    minimum data exchange during FFTs selected (reduces bandwidth)


 total amount of memory used by VASP MPI-rank0   665089. kBytes
=======================================================================

   base      :      30000. kBytes
   nonlr-proj:       1376. kBytes
   fftplans  :     167689. kBytes
   grid      :     429606. kBytes
   one-center:         18. kBytes
   wavefun   :      36400. kBytes
 
     INWAV:  cpu time     11.8278: real time     11.8556
 Broyden mixing: mesh for mixing (old mesh)
   NGX =145   NGY =145   NGZ =145
  (NGX  =588   NGY  =588   NGZ  =588)
  gives a total of ****** points

 initial charge density was supplied:
 charge density of overlapping atoms calculated
 number of electron      52.0000000 magnetization      22.0000000
 keeping initial charge density in first step


--------------------------------------------------------------------------------------------------------


 Maximum index for non-local projection operator          321
 Maximum index for augmentation-charges          332 (set IRDMAX)


--------------------------------------------------------------------------------------------------------


 First call to EWALD:  gamma=   0.044
 Maximum number of real-space cells 3x 3x 3
 Maximum number of reciprocal cells 3x 3x 3

    FEWALD:  cpu time      0.0017: real time      0.0017


--------------------------------------- Iteration      1(   1)  ---------------------------------------


    POTLOK:  cpu time      9.1341: real time      9.1505
    SETDIJ:  cpu time      0.1059: real time      0.1059
     EDDAV:  cpu time     40.8969: real time     40.9858
       DOS:  cpu time      0.0179: real time      0.0179
    CHARGE:  cpu time      2.9448: real time      2.9481
    MIXING:  cpu time      0.5724: real time      0.5729
    --------------------------------------------
      LOOP:  cpu time     53.6721: real time     53.7812

 eigenvalue-minimisations  :   304
 total energy-change (2. order) :-0.1229443E+03  (-0.1218320E+02)
 number of electron      52.0000003 magnetization      21.1523888
 augmentation part        1.3546764 magnetization      21.1815364

 Broyden mixing:
  rms(total) = 0.30493E+01    rms(broyden)= 0.30490E+01
  rms(prec ) = 0.30833E+01
  weight for this iteration     100.00

 Free energy of the ion-electron system (eV)
  ---------------------------------------------------
  alpha Z        PSCENC =         0.19061315
  Ewald energy   TEWEN  =      5149.85559735
  -Hartree energ DENC   =     -6177.07952078
  -exchange      EXHF   =         0.00000000
  -V(xc)+E(xc)   XCENC  =       163.37188168
  PAW double counting   =      1105.46993731    -1111.17591603
  entropy T*S    EENTRO =        -0.00000000
  eigenvalues    EBANDS =      -874.89822187
  atomic energy  EATOM  =      1621.32137526
  Solvation  Ecorr_sol  =         0.00000000
  ---------------------------------------------------
  free energy    TOTEN  =      -122.94425393 eV

  energy without entropy =     -122.94425393  energy(sigma->0) =     -122.94425393


--------------------------------------------------------------------------------------------------------




--------------------------------------- Iteration      1(   2)  ---------------------------------------


    --------------------------------------------
      INIT:  cpu time      0.5981: real time      0.5987
  FINALIZE:  cpu time     47.1610: real time     47.2566
    --------------------------------------------
    POTLOK:  cpu time     56.7474: real time     56.8651
    SETDIJ:  cpu time      0.1426: real time      0.1429
    EDDIAG:  cpu time      7.5938: real time      7.6099
  RMM-DIIS:  cpu time     24.7096: real time     24.7641
    ORTHCH:  cpu time      0.3348: real time      0.3356
       DOS:  cpu time      0.0024: real time      0.0024
    CHARGE:  cpu time      2.8997: real time      2.9056
    MIXING:  cpu time      0.4415: real time      0.4424
    --------------------------------------------
      LOOP:  cpu time     92.8717: real time     93.0681

 eigenvalue-minimisations  :   224
 total energy-change (2. order) : 0.6286172E+02  (-0.1197778E+02)
 number of electron      52.0000002 magnetization      20.2238237
 augmentation part        1.3452151 magnetization      20.1664745

 Broyden mixing:
  rms(total) = 0.14664E+01    rms(broyden)= 0.14664E+01
  rms(prec ) = 0.14949E+01
  weight for this iteration     100.00

 eigenvalues of (default mixing * dielectric matrix)
  average eigenvalue GAMMA=   0.9607
  0.9607

 Free energy of the ion-electron system (eV)
  ---------------------------------------------------
  alpha Z        PSCENC =         0.19061315
  Ewald energy   TEWEN  =      5149.85559735
  -Hartree energ DENC   =     -6292.70862834
  -exchange      EXHF   =         0.00000000
  -V(xc)+E(xc)   XCENC  =       220.92717628
  PAW double counting   =      2131.44262844    -2138.24221202
  entropy T*S    EENTRO =        -0.00000000
  eigenvalues    EBANDS =      -748.10767690
  atomic energy  EATOM  =      1621.32137526
  Solvation  Ecorr_sol  =        -4.76140704
  ---------------------------------------------------
  free energy    TOTEN  =       -60.08253383 eV

  energy without entropy =      -60.08253383  energy(sigma->0) =      -60.08253383


--------------------------------------------------------------------------------------------------------




--------------------------------------- Iteration      1(   3)  ---------------------------------------


    --------------------------------------------
      INIT:  cpu time      0.5845: real time      0.5854
  FINALIZE:  cpu time     55.8276: real time     55.9489
    --------------------------------------------
    POTLOK:  cpu time     65.3646: real time     65.5119
    SETDIJ:  cpu time      0.1385: real time      0.1388
    EDDIAG:  cpu time      7.6025: real time      7.6180
  RMM-DIIS:  cpu time     24.6518: real time     24.7047
    ORTHCH:  cpu time      0.3297: real time      0.3307
       DOS:  cpu time      0.0014: real time      0.0014
    CHARGE:  cpu time      2.8592: real time      2.8654
    MIXING:  cpu time      0.4464: real time      0.4473
    --------------------------------------------
      LOOP:  cpu time    101.3942: real time    101.6182

 eigenvalue-minimisations  :   224
 total energy-change (2. order) :-0.3906719E+02  (-0.5259088E+01)
 number of electron      52.0000001 magnetization      19.2001464
 augmentation part        1.2983146 magnetization      19.1083433

 Broyden mixing:
  rms(total) = 0.87349E+00    rms(broyden)= 0.87342E+00
  rms(prec ) = 0.88291E+00
  weight for this iteration     100.00

 eigenvalues of (default mixing * dielectric matrix)
  average eigenvalue GAMMA=   1.1048
  0.7831  1.4265

 Free energy of the ion-electron system (eV)
  ---------------------------------------------------
  alpha Z        PSCENC =         0.19061315
  Ewald energy   TEWEN  =      5149.85559735
  -Hartree energ DENC   =     -6386.81184417
  -exchange      EXHF   =         0.00000000
  -V(xc)+E(xc)   XCENC  =       193.00782203
  PAW double counting   =      3065.12037142    -3072.56690155
  entropy T*S    EENTRO =        -0.00000000
  eigenvalues    EBANDS =      -660.17543025
  atomic energy  EATOM  =      1621.32137526
  Solvation  Ecorr_sol  =        -9.09133119
  ---------------------------------------------------
  free energy    TOTEN  =       -99.14972795 eV

  energy without entropy =      -99.14972795  energy(sigma->0) =      -99.14972795


--------------------------------------------------------------------------------------------------------




--------------------------------------- Iteration      1(   4)  ---------------------------------------


    --------------------------------------------
      INIT:  cpu time      0.5869: real time      0.5874
  FINALIZE:  cpu time     58.9563: real time     59.0539
    --------------------------------------------
    POTLOK:  cpu time     68.4881: real time     68.6075
    SETDIJ:  cpu time      0.1398: real time      0.1399
    EDDIAG:  cpu time      7.6165: real time      7.6314
  RMM-DIIS:  cpu time     24.6382: real time     24.6930
    ORTHCH:  cpu time      0.3242: real time      0.3250
       DOS:  cpu time      0.0025: real time      0.0025
    CHARGE:  cpu time      2.8982: real time      2.9041
    MIXING:  cpu time      0.4532: real time      0.4541
    --------------------------------------------
      LOOP:  cpu time    104.5607: real time    104.7576

 eigenvalue-minimisations  :   224
 total energy-change (2. order) :-0.9118028E+01  (-0.2038759E+01)
 number of electron      52.0000000 magnetization      18.3571718
 augmentation part        1.2568103 magnetization      18.2742782

 Broyden mixing:
  rms(total) = 0.66590E+00    rms(broyden)= 0.66582E+00
  rms(prec ) = 0.67148E+00
  weight for this iteration     100.00

 eigenvalues of (default mixing * dielectric matrix)
  average eigenvalue GAMMA=   1.0397
  1.3917  1.0610  0.6662

 Free energy of the ion-electron system (eV)
  ---------------------------------------------------
  alpha Z        PSCENC =         0.19061315
  Ewald energy   TEWEN  =      5149.85559735
  -Hartree energ DENC   =     -6439.12661903
  -exchange      EXHF   =         0.00000000
  -V(xc)+E(xc)   XCENC  =       189.14933349
  PAW double counting   =      3783.07540095    -3790.67001420
  entropy T*S    EENTRO =        -0.00000000
  eigenvalues    EBANDS =      -610.20199565
  atomic energy  EATOM  =      1621.32137526
  Solvation  Ecorr_sol  =       -11.86144742
  ---------------------------------------------------
  free energy    TOTEN  =      -108.26775610 eV

  energy without entropy =     -108.26775610  energy(sigma->0) =     -108.26775610


--------------------------------------------------------------------------------------------------------




--------------------------------------- Iteration      1(   5)  ---------------------------------------


    --------------------------------------------
      INIT:  cpu time      0.5866: real time      0.5871
  FINALIZE:  cpu time     58.8575: real time     58.9545
    --------------------------------------------
    POTLOK:  cpu time     68.3506: real time     68.4698
    SETDIJ:  cpu time      0.1386: real time      0.1388
    EDDIAG:  cpu time      7.6114: real time      7.6264
  RMM-DIIS:  cpu time     24.6765: real time     24.7297
    ORTHCH:  cpu time      0.3298: real time      0.3306
       DOS:  cpu time      0.0014: real time      0.0014
    CHARGE:  cpu time      2.9145: real time      2.9206
    MIXING:  cpu time      0.4645: real time      0.4654
    --------------------------------------------
      LOOP:  cpu time    104.4874: real time    104.6827

 eigenvalue-minimisations  :   225
 total energy-change (2. order) :-0.6304298E+01  (-0.4698609E+00)
 number of electron      52.0000000 magnetization      16.6575979
 augmentation part        1.2434029 magnetization      16.5851876

 Broyden mixing:
  rms(total) = 0.44483E+00    rms(broyden)= 0.44481E+00
  rms(prec ) = 0.44806E+00
  weight for this iteration     100.00

 eigenvalues of (default mixing * dielectric matrix)
  average eigenvalue GAMMA=   1.3470
  1.9557  1.9557  0.8413  0.6352

 Free energy of the ion-electron system (eV)
  ---------------------------------------------------
  alpha Z        PSCENC =         0.19061315
  Ewald energy   TEWEN  =      5149.85559735
  -Hartree energ DENC   =     -6441.79743516
  -exchange      EXHF   =         0.00000000
  -V(xc)+E(xc)   XCENC  =       184.70960467
  PAW double counting   =      4013.37257250    -4020.79543207
  entropy T*S    EENTRO =        -0.00000000
  eigenvalues    EBANDS =      -609.88826422
  atomic energy  EATOM  =      1621.32137526
  Solvation  Ecorr_sol  =       -11.54068568
  ---------------------------------------------------
  free energy    TOTEN  =      -114.57205422 eV

  energy without entropy =     -114.57205422  energy(sigma->0) =     -114.57205422


--------------------------------------------------------------------------------------------------------




--------------------------------------- Iteration      1(   6)  ---------------------------------------


    --------------------------------------------
      INIT:  cpu time      0.5909: real time      0.5916
  FINALIZE:  cpu time     58.9642: real time     59.0637
    --------------------------------------------
    POTLOK:  cpu time     68.4748: real time     68.5988
    SETDIJ:  cpu time      0.1386: real time      0.1388
    EDDIAG:  cpu time      7.6205: real time      7.6355
  RMM-DIIS:  cpu time     24.5387: real time     24.5942
    ORTHCH:  cpu time      0.3306: real time      0.3315
       DOS:  cpu time      0.0010: real time      0.0010
    CHARGE:  cpu time      2.8516: real time      2.8576
    MIXING:  cpu time      0.4790: real time      0.4799
    --------------------------------------------
      LOOP:  cpu time    104.4347: real time    104.6373

 eigenvalue-minimisations  :   225
 total energy-change (2. order) :-0.1168019E+02  (-0.7464130E+00)
 number of electron      52.0000000 magnetization      16.1296722
 augmentation part        1.2363547 magnetization      16.0781614

 Broyden mixing:
  rms(total) = 0.26204E+00    rms(broyden)= 0.26202E+00
  rms(prec ) = 0.26387E+00
  weight for this iteration     100.00

 eigenvalues of (default mixing * dielectric matrix)
  average eigenvalue GAMMA=   1.2981
  2.3460  1.6495  1.0056  0.6408  0.8486

 Free energy of the ion-electron system (eV)
  ---------------------------------------------------
  alpha Z        PSCENC =         0.19061315
  Ewald energy   TEWEN  =      5149.85559735
  -Hartree energ DENC   =     -6449.41949526
  -exchange      EXHF   =         0.00000000
  -V(xc)+E(xc)   XCENC  =       176.34845166
  PAW double counting   =      4385.50605989    -4392.64740944
  entropy T*S    EENTRO =        -0.00000000
  eigenvalues    EBANDS =      -607.77762466
  atomic energy  EATOM  =      1621.32137526
  Solvation  Ecorr_sol  =        -9.62981027
  ---------------------------------------------------
  free energy    TOTEN  =      -126.25224233 eV

  energy without entropy =     -126.25224233  energy(sigma->0) =     -126.25224233


--------------------------------------------------------------------------------------------------------




--------------------------------------- Iteration      1(   7)  ---------------------------------------


    --------------------------------------------
      INIT:  cpu time      0.5871: real time      0.5875
  FINALIZE:  cpu time     68.1598: real time     68.2686
    --------------------------------------------
    POTLOK:  cpu time     77.7163: real time     77.8601
    SETDIJ:  cpu time      0.1383: real time      0.1385
    EDDIAG:  cpu time      7.6244: real time      7.6397
  RMM-DIIS:  cpu time     24.9268: real time     24.9800
    ORTHCH:  cpu time      0.3173: real time      0.3180
       DOS:  cpu time      0.0047: real time      0.0047
    CHARGE:  cpu time      2.8939: real time      2.8998
    MIXING:  cpu time      0.4848: real time      0.4858
    --------------------------------------------
      LOOP:  cpu time    114.1064: real time    114.3265

 eigenvalue-minimisations  :   225
 total energy-change (2. order) :-0.1062095E+01  (-0.1583666E+00)
 number of electron      52.0000000 magnetization      15.1286621
 augmentation part        1.2199077 magnetization      15.0932680

 Broyden mixing:
  rms(total) = 0.22738E+00    rms(broyden)= 0.22737E+00
  rms(prec ) = 0.22854E+00
  weight for this iteration     100.00

 eigenvalues of (default mixing * dielectric matrix)
  average eigenvalue GAMMA=   1.1721
  2.0666  2.0666  0.8543  0.8543  0.5955  0.5955

 Free energy of the ion-electron system (eV)
  ---------------------------------------------------
  alpha Z        PSCENC =         0.19061315
  Ewald energy   TEWEN  =      5149.85559735
  -Hartree energ DENC   =     -6456.78087871
  -exchange      EXHF   =         0.00000000
  -V(xc)+E(xc)   XCENC  =       175.81455733
  PAW double counting   =      4395.57687528    -4402.78451317
  entropy T*S    EENTRO =        -0.00000000
  eigenvalues    EBANDS =      -602.32701169
  atomic energy  EATOM  =      1621.32137526
  Solvation  Ecorr_sol  =        -8.18095223
  ---------------------------------------------------
  free energy    TOTEN  =      -127.31433744 eV

  energy without entropy =     -127.31433744  energy(sigma->0) =     -127.31433744


--------------------------------------------------------------------------------------------------------




--------------------------------------- Iteration      1(   8)  ---------------------------------------


    --------------------------------------------
      INIT:  cpu time      0.5862: real time      0.5869
  FINALIZE:  cpu time     62.0643: real time     62.1765
    --------------------------------------------
    POTLOK:  cpu time     71.6540: real time     71.7893
    SETDIJ:  cpu time      0.1392: real time      0.1394
    EDDIAG:  cpu time      7.6329: real time      7.6479
  RMM-DIIS:  cpu time     24.6081: real time     24.6629
    ORTHCH:  cpu time      0.3191: real time      0.3200
       DOS:  cpu time      0.0037: real time      0.0037
    CHARGE:  cpu time      2.8881: real time      2.8944
    MIXING:  cpu time      0.4950: real time      0.4960
    --------------------------------------------
      LOOP:  cpu time    107.7402: real time    107.9537

 eigenvalue-minimisations  :   224
 total energy-change (2. order) :-0.1657076E+01  (-0.6770575E-01)
 number of electron      52.0000000 magnetization      12.2925957
 augmentation part        1.2194859 magnetization      12.2647902

 Broyden mixing:
  rms(total) = 0.17538E+00    rms(broyden)= 0.17538E+00
  rms(prec ) = 0.17587E+00
  weight for this iteration     100.00

 eigenvalues of (default mixing * dielectric matrix)
  average eigenvalue GAMMA=   1.5396
  3.1038  3.1038  1.3872  1.0267  0.8976  0.6549  0.6035

 Free energy of the ion-electron system (eV)
  ---------------------------------------------------
  alpha Z        PSCENC =         0.19061315
  Ewald energy   TEWEN  =      5149.85559735
  -Hartree energ DENC   =     -6453.02983439
  -exchange      EXHF   =         0.00000000
  -V(xc)+E(xc)   XCENC  =       174.21309434
  PAW double counting   =      4290.51012442    -4297.67238010
  entropy T*S    EENTRO =        -0.00000000
  eigenvalues    EBANDS =      -608.89436115
  atomic energy  EATOM  =      1621.32137526
  Solvation  Ecorr_sol  =        -5.46564218
  ---------------------------------------------------
  free energy    TOTEN  =      -128.97141330 eV

  energy without entropy =     -128.97141330  energy(sigma->0) =     -128.97141330


--------------------------------------------------------------------------------------------------------




--------------------------------------- Iteration      1(   9)  ---------------------------------------


    --------------------------------------------
      INIT:  cpu time      0.5802: real time      0.5811
  FINALIZE:  cpu time     61.9818: real time     62.0987
    --------------------------------------------
    POTLOK:  cpu time     71.4800: real time     71.6453
    SETDIJ:  cpu time      0.1393: real time      0.1395
    EDDIAG:  cpu time      7.6094: real time      7.6246
  RMM-DIIS:  cpu time     25.5684: real time     25.6237
    ORTHCH:  cpu time      0.3243: real time      0.3251
       DOS:  cpu time      0.0050: real time      0.0050
    CHARGE:  cpu time      2.8471: real time      2.8530
    MIXING:  cpu time      0.5104: real time      0.5116
    --------------------------------------------
      LOOP:  cpu time    108.4840: real time    108.7279

 eigenvalue-minimisations  :   234
 total energy-change (2. order) :-0.1133729E+01  (-0.2309301E+00)
 number of electron      52.0000000 magnetization      11.9559891
 augmentation part        1.2127944 magnetization      11.9436335

 Broyden mixing:
  rms(total) = 0.14509E+00    rms(broyden)= 0.14507E+00
  rms(prec ) = 0.14631E+00
  weight for this iteration     100.00

 eigenvalues of (default mixing * dielectric matrix)
  average eigenvalue GAMMA=   1.5191
  4.3301  2.3751  1.6009  0.9356  0.8540  0.6226  0.7171  0.7171

 Free energy of the ion-electron system (eV)
  ---------------------------------------------------
  alpha Z        PSCENC =         0.19061315
  Ewald energy   TEWEN  =      5149.85559735
  -Hartree energ DENC   =     -6453.01610327
  -exchange      EXHF   =         0.00000000
  -V(xc)+E(xc)   XCENC  =       173.44152449
  PAW double counting   =      4158.44268192    -4165.55177938
  entropy T*S    EENTRO =        -0.00000000
  eigenvalues    EBANDS =      -615.67298549
  atomic energy  EATOM  =      1621.32137526
  Solvation  Ecorr_sol  =         0.88393327
  ---------------------------------------------------
  free energy    TOTEN  =      -130.10514271 eV

  energy without entropy =     -130.10514271  energy(sigma->0) =     -130.10514271


--------------------------------------------------------------------------------------------------------




--------------------------------------- Iteration      1(  10)  ---------------------------------------


    --------------------------------------------
      INIT:  cpu time      0.5783: real time      0.5795
  FINALIZE:  cpu time     65.0527: real time     65.1568
    --------------------------------------------
    POTLOK:  cpu time     74.5865: real time     74.7136
    SETDIJ:  cpu time      0.1386: real time      0.1388
    EDDIAG:  cpu time      7.6082: real time      7.6245
  RMM-DIIS:  cpu time     25.1668: real time     25.2225
    ORTHCH:  cpu time      0.3256: real time      0.3264
       DOS:  cpu time      0.0027: real time      0.0027
    CHARGE:  cpu time      2.8488: real time      2.8550
    MIXING:  cpu time      0.5295: real time      0.5306
    --------------------------------------------
      LOOP:  cpu time    111.2066: real time    111.4141

 eigenvalue-minimisations  :   229
 total energy-change (2. order) :-0.7361146E+00  (-0.1933101E-01)
 number of electron      52.0000000 magnetization      10.9545749
 augmentation part        1.2105015 magnetization      10.9468455

 Broyden mixing:
  rms(total) = 0.10333E+00    rms(broyden)= 0.10332E+00
  rms(prec ) = 0.10428E+00
  weight for this iteration     100.00

 eigenvalues of (default mixing * dielectric matrix)
  average eigenvalue GAMMA=   1.5036
  4.7748  2.1024  1.4504  1.4504  0.8018  0.8018  0.8363  0.6079  0.7063

 Free energy of the ion-electron system (eV)
  ---------------------------------------------------
  alpha Z        PSCENC =         0.19061315
  Ewald energy   TEWEN  =      5149.85559735
  -Hartree energ DENC   =     -6455.35912319
  -exchange      EXHF   =         0.00000000
  -V(xc)+E(xc)   XCENC  =       172.87825342
  PAW double counting   =      4201.92802616    -4209.04909621
  entropy T*S    EENTRO =        -0.00000000
  eigenvalues    EBANDS =      -613.92501468
  atomic energy  EATOM  =      1621.32137526
  Solvation  Ecorr_sol  =         1.31811148
  ---------------------------------------------------
  free energy    TOTEN  =      -130.84125726 eV

  energy without entropy =     -130.84125726  energy(sigma->0) =     -130.84125726


--------------------------------------------------------------------------------------------------------




--------------------------------------- Iteration      1(  11)  ---------------------------------------


    --------------------------------------------
      INIT:  cpu time      0.5796: real time      0.5805
  FINALIZE:  cpu time     55.8361: real time     55.9469
    --------------------------------------------
    POTLOK:  cpu time     65.3591: real time     65.4955
    SETDIJ:  cpu time      0.1402: real time      0.1405
    EDDIAG:  cpu time      7.6150: real time      7.6320
  RMM-DIIS:  cpu time     24.5133: real time     24.5679
    ORTHCH:  cpu time      0.3267: real time      0.3274
       DOS:  cpu time      0.0050: real time      0.0050
    CHARGE:  cpu time      2.8580: real time      2.8645
    MIXING:  cpu time      0.5504: real time      0.5516
    --------------------------------------------
      LOOP:  cpu time    101.3678: real time    101.5845

 eigenvalue-minimisations  :   224
 total energy-change (2. order) :-0.1106159E+01  (-0.1857356E-01)
 number of electron      52.0000000 magnetization       9.4186231
 augmentation part        1.2106842 magnetization       9.4136999

 Broyden mixing:
  rms(total) = 0.75068E-01    rms(broyden)= 0.75065E-01
  rms(prec ) = 0.75489E-01
  weight for this iteration     100.00

 eigenvalues of (default mixing * dielectric matrix)
  average eigenvalue GAMMA=   1.7628
  6.7805  2.3005  2.3005  1.5788  0.8699  0.8699  0.8196  0.8196  0.6149  0.6741

 Free energy of the ion-electron system (eV)
  ---------------------------------------------------
  alpha Z        PSCENC =         0.19061315
  Ewald energy   TEWEN  =      5149.85559735
  -Hartree energ DENC   =     -6455.64233813
  -exchange      EXHF   =         0.00000000
  -V(xc)+E(xc)   XCENC  =       171.84578154
  PAW double counting   =      4219.34310043    -4226.46949129
  entropy T*S    EENTRO =        -0.00000000
  eigenvalues    EBANDS =      -615.06039491
  atomic energy  EATOM  =      1621.32137526
  Solvation  Ecorr_sol  =         2.66834076
  ---------------------------------------------------
  free energy    TOTEN  =      -131.94741585 eV

  energy without entropy =     -131.94741585  energy(sigma->0) =     -131.94741585


--------------------------------------------------------------------------------------------------------




--------------------------------------- Iteration      1(  12)  ---------------------------------------


    --------------------------------------------
      INIT:  cpu time      0.5843: real time      0.5853
  FINALIZE:  cpu time     58.7813: real time     58.9014
    --------------------------------------------
    POTLOK:  cpu time     68.3340: real time     68.4796
    SETDIJ:  cpu time      0.1395: real time      0.1398
    EDDIAG:  cpu time      7.6134: real time      7.6282
  RMM-DIIS:  cpu time     24.5746: real time     24.6280
    ORTHCH:  cpu time      0.3238: real time      0.3246
       DOS:  cpu time      0.0042: real time      0.0043
    CHARGE:  cpu time      2.9280: real time      2.9344
    MIXING:  cpu time      0.5658: real time      0.5670
    --------------------------------------------
      LOOP:  cpu time    104.4833: real time    104.7057

 eigenvalue-minimisations  :   226
 total energy-change (2. order) :-0.1106732E+01  (-0.1613207E-01)
 number of electron      52.0000000 magnetization       9.1107314
 augmentation part        1.2091754 magnetization       9.1078705

 Broyden mixing:
  rms(total) = 0.59769E-01    rms(broyden)= 0.59767E-01
  rms(prec ) = 0.60405E-01
  weight for this iteration     100.00

 eigenvalues of (default mixing * dielectric matrix)
  average eigenvalue GAMMA=   1.6765
  7.0617  2.1965  2.1965  1.1891  1.1891  1.0553  0.7489  0.7489  0.7967  0.6082
  0.6509

 Free energy of the ion-electron system (eV)
  ---------------------------------------------------
  alpha Z        PSCENC =         0.19061315
  Ewald energy   TEWEN  =      5149.85559735
  -Hartree energ DENC   =     -6456.41540157
  -exchange      EXHF   =         0.00000000
  -V(xc)+E(xc)   XCENC  =       170.73992266
  PAW double counting   =      4195.48360613    -4202.63784074
  entropy T*S    EENTRO =        -0.00000000
  eigenvalues    EBANDS =      -616.42695987
  atomic energy  EATOM  =      1621.32137526
  Solvation  Ecorr_sol  =         4.83493960
  ---------------------------------------------------
  free energy    TOTEN  =      -133.05414803 eV

  energy without entropy =     -133.05414803  energy(sigma->0) =     -133.05414803


--------------------------------------------------------------------------------------------------------




--------------------------------------- Iteration      1(  13)  ---------------------------------------


    --------------------------------------------
      INIT:  cpu time      0.5797: real time      0.5799
  FINALIZE:  cpu time     55.8738: real time     55.9821
    --------------------------------------------
    POTLOK:  cpu time     65.4499: real time     65.5804
    SETDIJ:  cpu time      0.1371: real time      0.1374
    EDDIAG:  cpu time      7.6074: real time      7.6239
  RMM-DIIS:  cpu time     25.2500: real time     25.3074
    ORTHCH:  cpu time      0.3333: real time      0.3341
       DOS:  cpu time      0.0038: real time      0.0038
    CHARGE:  cpu time      2.8959: real time      2.9025
    MIXING:  cpu time      0.5845: real time      0.5857
    --------------------------------------------
      LOOP:  cpu time    102.2618: real time    102.4752

 eigenvalue-minimisations  :   232
 total energy-change (2. order) :-0.1070768E+00  (-0.3659649E-02)
 number of electron      52.0000000 magnetization       7.4999357
 augmentation part        1.2078010 magnetization       7.4986222

 Broyden mixing:
  rms(total) = 0.46663E-01    rms(broyden)= 0.46662E-01
  rms(prec ) = 0.46940E-01
  weight for this iteration     100.00

 eigenvalues of (default mixing * dielectric matrix)
  average eigenvalue GAMMA=   1.7383
  7.5120  1.9331  1.9331  1.9697  1.9697  0.9596  0.9596  0.7844  0.7844  0.8054
  0.6246  0.6246

 Free energy of the ion-electron system (eV)
  ---------------------------------------------------
  alpha Z        PSCENC =         0.19061315
  Ewald energy   TEWEN  =      5149.85559735
  -Hartree energ DENC   =     -6456.52248940
  -exchange      EXHF   =         0.00000000
  -V(xc)+E(xc)   XCENC  =       170.63254243
  PAW double counting   =      4195.49783253    -4202.65486915
  entropy T*S    EENTRO =        -0.00000000
  eigenvalues    EBANDS =      -616.46350198
  atomic energy  EATOM  =      1621.32137526
  Solvation  Ecorr_sol  =         4.98167503
  ---------------------------------------------------
  free energy    TOTEN  =      -133.16122479 eV

  energy without entropy =     -133.16122479  energy(sigma->0) =     -133.16122479


--------------------------------------------------------------------------------------------------------




--------------------------------------- Iteration      1(  14)  ---------------------------------------


    --------------------------------------------
      INIT:  cpu time      0.5764: real time      0.5774
  FINALIZE:  cpu time     55.8948: real time     55.9928
    --------------------------------------------
    POTLOK:  cpu time     65.4793: real time     65.6049
    SETDIJ:  cpu time      0.1377: real time      0.1380
    EDDIAG:  cpu time      7.6291: real time      7.6443
  RMM-DIIS:  cpu time     24.5399: real time     24.5978
    ORTHCH:  cpu time      0.3268: real time      0.3276
       DOS:  cpu time      0.0010: real time      0.0010
    CHARGE:  cpu time      2.8766: real time      2.8826
    MIXING:  cpu time      0.6063: real time      0.6076
    --------------------------------------------
      LOOP:  cpu time    101.5966: real time    101.8038

 eigenvalue-minimisations  :   224
 total energy-change (2. order) :-0.3765428E+00  (-0.6853271E-02)
 number of electron      52.0000000 magnetization       6.5609801
 augmentation part        1.2074322 magnetization       6.5599398

 Broyden mixing:
  rms(total) = 0.47317E-01    rms(broyden)= 0.47316E-01
  rms(prec ) = 0.47949E-01
  weight for this iteration     100.00

 eigenvalues of (default mixing * dielectric matrix)
  average eigenvalue GAMMA=   1.9074
  8.9228  3.7943  2.1221  2.1221  1.2332  1.2332  1.0741  0.7786  0.7786  0.7788
  0.6957  0.6313  0.6313

 Free energy of the ion-electron system (eV)
  ---------------------------------------------------
  alpha Z        PSCENC =         0.19061315
  Ewald energy   TEWEN  =      5149.85559735
  -Hartree energ DENC   =     -6454.34705989
  -exchange      EXHF   =         0.00000000
  -V(xc)+E(xc)   XCENC  =       170.22282036
  PAW double counting   =      4214.28588557    -4221.43227848
  entropy T*S    EENTRO =        -0.00000000
  eigenvalues    EBANDS =      -619.22686260
  atomic energy  EATOM  =      1621.32137526
  Solvation  Ecorr_sol  =         5.59214166
  ---------------------------------------------------
  free energy    TOTEN  =      -133.53776763 eV

  energy without entropy =     -133.53776763  energy(sigma->0) =     -133.53776763


--------------------------------------------------------------------------------------------------------




--------------------------------------- Iteration      1(  15)  ---------------------------------------


    --------------------------------------------
      INIT:  cpu time      0.5776: real time      0.5785
  FINALIZE:  cpu time     55.7958: real time     55.9062
    --------------------------------------------
    POTLOK:  cpu time     65.3532: real time     65.4949
    SETDIJ:  cpu time      0.1377: real time      0.1379
    EDDIAG:  cpu time      7.6180: real time      7.6331
  RMM-DIIS:  cpu time     24.7305: real time     24.7836
    ORTHCH:  cpu time      0.3239: real time      0.3247
       DOS:  cpu time      0.0020: real time      0.0020
    CHARGE:  cpu time      2.8463: real time      2.8525
    MIXING:  cpu time      0.6287: real time      0.6300
    --------------------------------------------
      LOOP:  cpu time    101.6403: real time    101.8587

 eigenvalue-minimisations  :   225
 total energy-change (2. order) :-0.1952442E+00  (-0.9570731E-03)
 number of electron      52.0000000 magnetization       6.1443503
 augmentation part        1.2072217 magnetization       6.1434140

 Broyden mixing:
  rms(total) = 0.35250E-01    rms(broyden)= 0.35250E-01
  rms(prec ) = 0.35605E-01
  weight for this iteration     100.00

 eigenvalues of (default mixing * dielectric matrix)
  average eigenvalue GAMMA=   1.8575
  9.1613  3.9749  2.0795  2.0795  1.2336  1.2336  1.0639  0.8138  0.8138  0.8382
  0.7349  0.7349  0.6103  0.6325

 Free energy of the ion-electron system (eV)
  ---------------------------------------------------
  alpha Z        PSCENC =         0.19061315
  Ewald energy   TEWEN  =      5149.85559735
  -Hartree energ DENC   =     -6453.55030628
  -exchange      EXHF   =         0.00000000
  -V(xc)+E(xc)   XCENC  =       170.00628946
  PAW double counting   =      4217.76116403    -4224.91285440
  entropy T*S    EENTRO =        -0.00000000
  eigenvalues    EBANDS =      -620.39838894
  atomic energy  EATOM  =      1621.32137526
  Solvation  Ecorr_sol  =         5.99349856
  ---------------------------------------------------
  free energy    TOTEN  =      -133.73301180 eV

  energy without entropy =     -133.73301180  energy(sigma->0) =     -133.73301180


--------------------------------------------------------------------------------------------------------




--------------------------------------- Iteration      1(  16)  ---------------------------------------


    --------------------------------------------
      INIT:  cpu time      0.5781: real time      0.5790
  FINALIZE:  cpu time     55.8297: real time     55.9551
    --------------------------------------------
    POTLOK:  cpu time     65.3740: real time     65.5251
    SETDIJ:  cpu time      0.1384: real time      0.1386
    EDDIAG:  cpu time      7.6532: real time      7.6702
  RMM-DIIS:  cpu time     24.3446: real time     24.3998
    ORTHCH:  cpu time      0.3260: real time      0.3268
       DOS:  cpu time      0.0013: real time      0.0013
    CHARGE:  cpu time      2.8751: real time      2.8814
    MIXING:  cpu time      0.6553: real time      0.6567
    --------------------------------------------
      LOOP:  cpu time    101.3679: real time    101.5998

 eigenvalue-minimisations  :   224
 total energy-change (2. order) :-0.4141954E-01  (-0.1823802E-02)
 number of electron      52.0000000 magnetization       4.5577380
 augmentation part        1.2074505 magnetization       4.5571260

 Broyden mixing:
  rms(total) = 0.27477E-01    rms(broyden)= 0.27476E-01
  rms(prec ) = 0.27585E-01
  weight for this iteration     100.00

 eigenvalues of (default mixing * dielectric matrix)
  average eigenvalue GAMMA=   1.9619
  9.7937  4.6656  2.2116  2.2116  1.6556  1.3807  1.3807  0.9600  0.7896  0.7896
  0.8265  0.8265  0.6857  0.6216  0.6299

 Free energy of the ion-electron system (eV)
  ---------------------------------------------------
  alpha Z        PSCENC =         0.19061315
  Ewald energy   TEWEN  =      5149.85559735
  -Hartree energ DENC   =     -6453.08658140
  -exchange      EXHF   =         0.00000000
  -V(xc)+E(xc)   XCENC  =       169.93808347
  PAW double counting   =      4209.40551094    -4216.55717367
  entropy T*S    EENTRO =        -0.00000000
  eigenvalues    EBANDS =      -620.71791178
  atomic energy  EATOM  =      1621.32137526
  Solvation  Ecorr_sol  =         5.87605535
  ---------------------------------------------------
  free energy    TOTEN  =      -133.77443134 eV

  energy without entropy =     -133.77443134  energy(sigma->0) =     -133.77443134


--------------------------------------------------------------------------------------------------------




--------------------------------------- Iteration      1(  17)  ---------------------------------------


    --------------------------------------------
      INIT:  cpu time      0.6135: real time      0.6146
  FINALIZE:  cpu time     61.9381: real time     62.0462
    --------------------------------------------
    POTLOK:  cpu time     71.5043: real time     71.6383
    SETDIJ:  cpu time      0.1396: real time      0.1399
    EDDIAG:  cpu time      7.6382: real time      7.6535
  RMM-DIIS:  cpu time     25.6583: real time     25.7145
    ORTHCH:  cpu time      0.3225: real time      0.3232
       DOS:  cpu time      0.0010: real time      0.0010
    CHARGE:  cpu time      2.8758: real time      2.8820
    MIXING:  cpu time      0.6814: real time      0.6829
    --------------------------------------------
      LOOP:  cpu time    108.8212: real time    109.0353

 eigenvalue-minimisations  :   230
 total energy-change (2. order) :-0.7248276E-01  (-0.1132162E-02)
 number of electron      52.0000000 magnetization       3.8346944
 augmentation part        1.2082613 magnetization       3.8344266

 Broyden mixing:
  rms(total) = 0.29297E-01    rms(broyden)= 0.29296E-01
  rms(prec ) = 0.29689E-01
  weight for this iteration     100.00

 eigenvalues of (default mixing * dielectric matrix)
  average eigenvalue GAMMA=   2.0175
 10.4342  5.5185  2.6290  2.0517  2.0517  1.2561  1.2561  1.0957  0.7966  0.7966
  0.9095  0.7857  0.7857  0.6506  0.6310  0.6310

 Free energy of the ion-electron system (eV)
  ---------------------------------------------------
  alpha Z        PSCENC =         0.19061315
  Ewald energy   TEWEN  =      5149.85559735
  -Hartree energ DENC   =     -6451.37216716
  -exchange      EXHF   =         0.00000000
  -V(xc)+E(xc)   XCENC  =       169.83072052
  PAW double counting   =      4212.16776857    -4219.30733042
  entropy T*S    EENTRO =        -0.00000000
  eigenvalues    EBANDS =      -621.79052430
  atomic energy  EATOM  =      1621.32137526
  Solvation  Ecorr_sol  =         5.25703293
  ---------------------------------------------------
  free energy    TOTEN  =      -133.84691410 eV

  energy without entropy =     -133.84691410  energy(sigma->0) =     -133.84691410


--------------------------------------------------------------------------------------------------------




--------------------------------------- Iteration      1(  18)  ---------------------------------------


    --------------------------------------------
      INIT:  cpu time      0.5952: real time      0.5961
  FINALIZE:  cpu time     55.7868: real time     55.8834
    --------------------------------------------
    POTLOK:  cpu time     65.3016: real time     65.4225
    SETDIJ:  cpu time      0.1396: real time      0.1399
    EDDIAG:  cpu time      7.6309: real time      7.6460
  RMM-DIIS:  cpu time     24.5230: real time     24.5809
    ORTHCH:  cpu time      0.3305: real time      0.3313
       DOS:  cpu time      0.0015: real time      0.0015
    CHARGE:  cpu time      2.9014: real time      2.9077
    MIXING:  cpu time      0.7094: real time      0.7109
    --------------------------------------------
      LOOP:  cpu time    101.5379: real time    101.7407

 eigenvalue-minimisations  :   224
 total energy-change (2. order) :-0.1331176E-01  (-0.3897103E-03)
 number of electron      52.0000000 magnetization       2.4642756
 augmentation part        1.2082031 magnetization       2.4640988

 Broyden mixing:
  rms(total) = 0.19583E-01    rms(broyden)= 0.19583E-01
  rms(prec ) = 0.19699E-01
  weight for this iteration     100.00

 eigenvalues of (default mixing * dielectric matrix)
  average eigenvalue GAMMA=   2.0532
 10.8947  6.0165  2.8024  2.2175  2.2175  1.3093  1.3093  1.2607  0.9582  0.9582
  0.7778  0.7778  0.7373  0.7373  0.6775  0.6262  0.6262

 Free energy of the ion-electron system (eV)
  ---------------------------------------------------
  alpha Z        PSCENC =         0.19061315
  Ewald energy   TEWEN  =      5149.85559735
  -Hartree energ DENC   =     -6451.23576616
  -exchange      EXHF   =         0.00000000
  -V(xc)+E(xc)   XCENC  =       169.82646934
  PAW double counting   =      4214.56652774    -4221.70936859
  entropy T*S    EENTRO =        -0.00000000
  eigenvalues    EBANDS =      -621.63671661
  atomic energy  EATOM  =      1621.32137526
  Solvation  Ecorr_sol  =         4.96104266
  ---------------------------------------------------
  free energy    TOTEN  =      -133.86022586 eV

  energy without entropy =     -133.86022586  energy(sigma->0) =     -133.86022586


--------------------------------------------------------------------------------------------------------




--------------------------------------- Iteration      1(  19)  ---------------------------------------


    --------------------------------------------
      INIT:  cpu time      0.5878: real time      0.5888
  FINALIZE:  cpu time     55.7384: real time     55.8459
    --------------------------------------------
    POTLOK:  cpu time     65.2846: real time     65.4168
    SETDIJ:  cpu time      0.1403: real time      0.1405
    EDDIAG:  cpu time      7.6080: real time      7.6230
  RMM-DIIS:  cpu time     24.5268: real time     24.5791
    ORTHCH:  cpu time      0.3225: real time      0.3232
       DOS:  cpu time      0.0031: real time      0.0031
    CHARGE:  cpu time      2.8397: real time      2.8458
    MIXING:  cpu time      0.7361: real time      0.7378
    --------------------------------------------
      LOOP:  cpu time    101.4609: real time    101.6693

 eigenvalue-minimisations  :   226
 total energy-change (2. order) :-0.1526914E-01  (-0.1295862E-02)
 number of electron      52.0000000 magnetization       1.3920165
 augmentation part        1.2074991 magnetization       1.3920220

 Broyden mixing:
  rms(total) = 0.20713E-01    rms(broyden)= 0.20712E-01
  rms(prec ) = 0.20942E-01
  weight for this iteration     100.00

 eigenvalues of (default mixing * dielectric matrix)
  average eigenvalue GAMMA=   2.2375
 12.5504  7.4312  3.8422  2.1933  2.1933  1.6883  1.2825  1.2825  1.0700  0.9396
  0.7962  0.7962  0.8181  0.8181  0.6891  0.6407  0.6219  0.6219

 Free energy of the ion-electron system (eV)
  ---------------------------------------------------
  alpha Z        PSCENC =         0.19061315
  Ewald energy   TEWEN  =      5149.85559735
  -Hartree energ DENC   =     -6451.34371637
  -exchange      EXHF   =         0.00000000
  -V(xc)+E(xc)   XCENC  =       169.81376496
  PAW double counting   =      4200.12942368    -4207.28526344
  entropy T*S    EENTRO =        -0.00000000
  eigenvalues    EBANDS =      -620.99455867
  atomic energy  EATOM  =      1621.32137526
  Solvation  Ecorr_sol  =         4.43726908
  ---------------------------------------------------
  free energy    TOTEN  =      -133.87549501 eV

  energy without entropy =     -133.87549501  energy(sigma->0) =     -133.87549501


--------------------------------------------------------------------------------------------------------




--------------------------------------- Iteration      1(  20)  ---------------------------------------


    --------------------------------------------
      INIT:  cpu time      0.5940: real time      0.5950
  FINALIZE:  cpu time     58.8797: real time     58.9780
    --------------------------------------------
    POTLOK:  cpu time     68.4505: real time     68.5718
    SETDIJ:  cpu time      0.1388: real time      0.1389
    EDDIAG:  cpu time      7.6170: real time      7.6322
  RMM-DIIS:  cpu time     24.6180: real time     24.6759
    ORTHCH:  cpu time      0.3271: real time      0.3280
       DOS:  cpu time      0.0054: real time      0.0054
    CHARGE:  cpu time      2.8965: real time      2.9027
    MIXING:  cpu time      0.7687: real time      0.7703
    --------------------------------------------
      LOOP:  cpu time    104.8219: real time    105.0252

 eigenvalue-minimisations  :   224
 total energy-change (2. order) : 0.8166955E-02  (-0.1800285E-03)
 number of electron      52.0000000 magnetization       0.7589140
 augmentation part        1.2074301 magnetization       0.7589908

 Broyden mixing:
  rms(total) = 0.16962E-01    rms(broyden)= 0.16962E-01
  rms(prec ) = 0.17165E-01
  weight for this iteration     100.00

 eigenvalues of (default mixing * dielectric matrix)
  average eigenvalue GAMMA=   2.3405
 14.1958  8.1004  4.2142  2.2391  2.2391  2.0187  1.2803  1.2803  1.2520  0.9513
  0.9513  0.7845  0.7845  0.7795  0.7795  0.7297  0.6303  0.6303  0.6288

 Free energy of the ion-electron system (eV)
  ---------------------------------------------------
  alpha Z        PSCENC =         0.19061315
  Ewald energy   TEWEN  =      5149.85559735
  -Hartree energ DENC   =     -6451.23422384
  -exchange      EXHF   =         0.00000000
  -V(xc)+E(xc)   XCENC  =       169.82550595
  PAW double counting   =      4198.45214275    -4205.60883736
  entropy T*S    EENTRO =        -0.00000000
[...]


    --------------------------------------------
      INIT:  cpu time      0.5828: real time      0.5838
  FINALIZE:  cpu time    134.3335: real time    134.5617
    --------------------------------------------
    POTLOK:  cpu time    143.8616: real time    144.1114
    SETDIJ:  cpu time      0.1398: real time      0.1401
    EDDIAG:  cpu time      7.6142: real time      7.6312
  RMM-DIIS:  cpu time     24.3812: real time     24.4356
    ORTHCH:  cpu time      0.3206: real time      0.3214
       DOS:  cpu time      0.0026: real time      0.0026
    --------------------------------------------
      LOOP:  cpu time    176.3200: real time    176.6422

 eigenvalue-minimisations  :   220
 total energy-change (2. order) :-0.5851543E-06  (-0.4104428E-05)
 number of electron      52.0000000 magnetization       0.0000008
 augmentation part        1.2088747 magnetization       0.0000008

 Free energy of the ion-electron system (eV)
  ---------------------------------------------------
  alpha Z        PSCENC =         0.19061315
  Ewald energy   TEWEN  =      5152.78428318
  -Hartree energ DENC   =     -6454.47391517
  -exchange      EXHF   =         0.00000000
  -V(xc)+E(xc)   XCENC  =       169.80485177
  PAW double counting   =      4219.20824217    -4226.36040718
  entropy T*S    EENTRO =        -0.00000000
  eigenvalues    EBANDS =      -621.05860082
  atomic energy  EATOM  =      1621.32137526
  Solvation  Ecorr_sol  =         4.63971556
  ---------------------------------------------------
  free energy    TOTEN  =      -133.94384210 eV

  energy without entropy =     -133.94384210  energy(sigma->0) =     -133.94384210


--------------------------------------------------------------------------------------------------------




 average (electrostatic) potential at core
  the test charge radii are     0.6991  0.5201
  (the norm of the test charge is              1.0000)
       1 -58.6934       2 -58.6646       3 -58.9035       4 -58.6503       5 -58.6822
       6 -58.9070       7 -58.6175       8 -58.6875       9 -58.4477      10 -58.4488
      11 -41.8085      12 -41.8081      13 -41.7757      14 -41.9912      15 -41.9173
      16 -42.0411      17 -42.0218      18 -41.8129      19 -41.8300      20 -41.8252
      21 -42.0268      22 -42.0748
 
 
 
 E-fermi :  -5.0373     XC(G=0):  -0.0478     alpha+bet : -0.0208

 Fermi energy:        -5.0373403240

 spin component 1

 k-point     1 :       0.0000    0.0000    0.0000
  band No.  band energies     occupation 
      1     -21.3253      1.00000
      2     -19.8799      1.00000
      3     -18.9075      1.00000
      4     -18.3358      1.00000
      5     -17.4297      1.00000
      6     -16.1771      1.00000
      7     -14.9900      1.00000
      8     -14.3441      1.00000
      9     -13.4302      1.00000
     10     -12.3284      1.00000
     11     -11.3966      1.00000
     12     -11.0331      1.00000
     13     -10.4604      1.00000
     14     -10.2043      1.00000
     15     -10.0412      1.00000
     16      -9.9956      1.00000
     17      -9.9825      1.00000
     18      -9.1668      1.00000
     19      -9.1008      1.00000
     20      -8.9212      1.00000
     21      -8.4741      1.00000
     22      -8.1413      1.00000
     23      -7.8544      1.00000
     24      -7.0491      1.00000
     25      -6.2829      1.00000
     26      -5.2770      1.00000
     27      -1.8145      0.00000
     28      -1.2181      0.00000
     29      -0.4812      0.00000
     30      -0.2805      0.00000
     31      -0.1539      0.00000
     32      -0.0275      0.00000
     33       0.0152      0.00000
     34       0.0654      0.00000
     35       0.1011      0.00000
     36       0.1107      0.00000
     37       0.1118      0.00000
     38       0.1126      0.00000
     39       0.1181      0.00000
     40       0.1418      0.00000
     41       0.1757      0.00000
     42       0.1850      0.00000
     43       0.1918      0.00000
     44       0.1942      0.00000
     45       0.1952      0.00000
     46       0.1957      0.00000
     47       0.1961      0.00000
     48       0.2083      0.00000
     49       0.2097      0.00000
     50       0.2200      0.00000
     51       0.2261      0.00000
     52       0.2549      0.00000
     53       0.2594      0.00000
     54       0.2711      0.00000
     55       0.2852      0.00000
     56       0.2871      0.00000
 Fermi energy:        -5.0373403240

 spin component 2

 k-point     1 :       0.0000    0.0000    0.0000
  band No.  band energies     occupation 
      1     -21.3253      1.00000
      2     -19.8799      1.00000
      3     -18.9075      1.00000
      4     -18.3358      1.00000
      5     -17.4297      1.00000
      6     -16.1771      1.00000
      7     -14.9900      1.00000
      8     -14.3441      1.00000
      9     -13.4302      1.00000
     10     -12.3284      1.00000
     11     -11.3966      1.00000
     12     -11.0331      1.00000
     13     -10.4604      1.00000
     14     -10.2043      1.00000
     15     -10.0412      1.00000
     16      -9.9956      1.00000
     17      -9.9825      1.00000
     18      -9.1668      1.00000
     19      -9.1008      1.00000
     20      -8.9212      1.00000
     21      -8.4741      1.00000
     22      -8.1413      1.00000
     23      -7.8544      1.00000
     24      -7.0491      1.00000
     25      -6.2829      1.00000
     26      -5.2771      1.00000
     27      -1.8145      0.00000
     28      -1.2181      0.00000
     29      -0.4814      0.00000
     30      -0.2808      0.00000
     31      -0.1542      0.00000
     32      -0.0278      0.00000
     33       0.0159      0.00000
     34       0.0651      0.00000
     35       0.1013      0.00000
     36       0.1119      0.00000
     37       0.1130      0.00000
     38       0.1140      0.00000
     39       0.1185      0.00000
     40       0.1406      0.00000
     41       0.1770      0.00000
     42       0.1864      0.00000
     43       0.1934      0.00000
     44       0.1946      0.00000
     45       0.1959      0.00000
     46       0.1964      0.00000
     47       0.1968      0.00000
     48       0.2084      0.00000
     49       0.2102      0.00000
     50       0.2202      0.00000
     51       0.2265      0.00000
     52       0.2556      0.00000
     53       0.2598      0.00000
     54       0.2716      0.00000
     55       0.2854      0.00000
     56       0.2923      0.00000


--------------------------------------------------------------------------------------------------------


 soft charge-density along one line, spin component           1
         0         1         2         3         4         5         6         7         8         9
 total charge-density along one line
 
 soft charge-density along one line, spin component           2
         0         1         2         3         4         5         6         7         8         9
 total charge-density along one line
 
 pseudopotential strength for first ion, spin component:           1
 10.250  13.632   0.001   0.000  -0.000  -0.002  -0.000   0.001
 13.632  18.128   0.001   0.000  -0.000  -0.003  -0.000   0.002
  0.001   0.001  -4.374   0.000  -0.001   8.556  -0.000   0.001
  0.000   0.000   0.000  -4.367   0.000  -0.000   8.548  -0.000
 -0.000  -0.000  -0.001   0.000  -4.375   0.001  -0.000   8.557
 -0.002  -0.003   8.556  -0.000   0.001 -18.874   0.000  -0.001
 -0.000  -0.000  -0.000   8.548  -0.000   0.000 -18.867   0.000
  0.001   0.002   0.001  -0.000   8.557  -0.001   0.000 -18.874
 pseudopotential strength for first ion, spin component:           2
 10.250  13.632   0.001   0.000  -0.000  -0.002  -0.000   0.001
 13.632  18.128   0.001   0.000  -0.000  -0.003  -0.000   0.002
  0.001   0.001  -4.374   0.000  -0.001   8.556  -0.000   0.001
  0.000   0.000   0.000  -4.367   0.000  -0.000   8.548  -0.000
 -0.000  -0.000  -0.001   0.000  -4.375   0.001  -0.000   8.557
 -0.002  -0.003   8.556  -0.000   0.001 -18.874   0.000  -0.001
 -0.000  -0.000  -0.000   8.548  -0.000   0.000 -18.867   0.000
  0.001   0.002   0.001  -0.000   8.557  -0.001   0.000 -18.874
 total augmentation occupancy for first ion, spin component:           1
  7.838  -3.404   0.152   0.002  -0.164   0.032   0.000  -0.031
 -3.404   1.522  -0.098  -0.001   0.099  -0.020  -0.000   0.018
  0.152  -0.098   1.767  -0.001   0.048   0.156  -0.000   0.009
  0.002  -0.001  -0.001   1.157  -0.001  -0.000   0.065  -0.000
 -0.164   0.099   0.048  -0.001   1.825   0.009  -0.000   0.165
  0.032  -0.020   0.156  -0.000   0.009   0.015  -0.000   0.002
  0.000  -0.000  -0.000   0.065  -0.000  -0.000   0.004  -0.000
 -0.031   0.018   0.009  -0.000   0.165   0.002  -0.000   0.016
 total augmentation occupancy for first ion, spin component:           2
  0.000  -0.000   0.000  -0.000   0.000   0.000  -0.000   0.000
 -0.000   0.000  -0.000   0.000  -0.000  -0.000   0.000  -0.000
  0.000  -0.000  -0.000   0.000   0.000   0.000   0.000   0.000
 -0.000   0.000   0.000  -0.000  -0.000   0.000   0.000   0.000
  0.000  -0.000   0.000  -0.000  -0.000   0.000   0.000   0.000
  0.000  -0.000   0.000   0.000   0.000   0.000   0.000   0.000
 -0.000   0.000   0.000   0.000   0.000   0.000   0.000   0.000
  0.000  -0.000   0.000   0.000   0.000   0.000   0.000   0.000


------------------------ aborting loop because EDIFF is reached ----------------------------------------


    CHARGE:  cpu time      2.8705: real time      2.8767
    FORLOC:  cpu time      0.5386: real time      0.5394
    FORNL :  cpu time     11.8355: real time     11.8731
    STRESS:  cpu time     35.7096: real time     35.8036
    FORCOR:  cpu time      8.3024: real time      8.3217
    FORHAR:  cpu time      1.3490: real time      1.3566
    MIXING:  cpu time      0.2168: real time      0.2173
    OFIELD:  cpu time      0.0000: real time      0.0000

 ---------------------------------------------------------------------------------------------

         DFTD3 V3.0 Rev 1        
 Edisp (eV)   -0.22190

 E6    (eV) :    -0.0946
 E8    (eV) :    -0.1273
 % E8        : 57.38
    FORVDW:  cpu time      0.0068: real time      0.0068

  FORCE on cell =-STRESS in cart. coord.  units (eV):
  Direction    XX          YY          ZZ          XY          YZ          ZX
  --------------------------------------------------------------------------------------
  Alpha Z     0.19061     0.19061     0.19061
  Ewald    3750.30916  1671.11285  -268.63875    -1.09805    -0.08291    -0.52416
  Hartree  3751.70832  1937.69612   760.66485     9.32247     0.14048     0.07287
  E(xc)    -184.54164  -184.93568  -189.23595    -0.04090    -0.00194    -0.00394
  Local   -7968.00982 -4060.53039 -1022.96545   -10.56219    -0.11469     0.30375
  n-local   -69.22969   -72.92295   -67.42910     0.42078     0.00810     0.01063
  augment    -2.18377    -2.33548    -1.96902     0.01915     0.00038     0.00105
  Kinetic   721.64373   711.51695   789.16960     1.91923     0.05490     0.14265
  Fock        0.00000     0.00000     0.00000     0.00000     0.00000     0.00000
  vdW        -0.05051     0.01402     0.00693     0.00673    -0.00081    -0.00347
  -------------------------------------------------------------------------------------
  Total      -0.16361    -0.19396    -0.20627    -0.01278     0.00352    -0.00062
  in kB      -0.00410    -0.00486    -0.00516    -0.00032     0.00009    -0.00002
  external pressure =       -0.00 kB  Pullay stress =        0.00 kB


 VOLUME and BASIS-vectors are now :
 -----------------------------------------------------------------------------
  energy-cutoff  :      500.00
  volume of cell :    64000.00
      direct lattice vectors                 reciprocal lattice vectors
    40.000000000  0.000000000  0.000000000     0.025000000  0.000000000  0.000000000
     0.000000000 40.000000000  0.000000000     0.000000000  0.025000000  0.000000000
     0.000000000  0.000000000 40.000000000     0.000000000  0.000000000  0.025000000

  length of vectors
    40.000000000 40.000000000 40.000000000     0.025000000  0.025000000  0.025000000


 FORCES acting on ions
    electron-ion (+dipol)            ewald-force                    non-local-force                 convergence-correction
 -----------------------------------------------------------------------------------------------
   -.574E+02 0.167E+03 0.126E+00   0.578E+02 -.168E+03 -.139E+00   -.387E+00 0.663E+00 0.121E-01   0.726E-04 0.251E-02 0.660E-05
   0.673E+02 0.184E+03 -.474E+00   -.678E+02 -.185E+03 0.497E+00   0.409E+00 0.612E+00 -.234E-01   -.257E-02 0.210E-02 -.283E-04
   0.124E+03 0.127E+02 -.164E+01   -.125E+03 -.127E+02 0.170E+01   0.449E+00 -.253E-01 -.691E-01   0.150E-02 -.642E-04 -.195E-03
   0.105E+03 -.170E+03 -.700E+00   -.106E+03 0.171E+03 0.727E+00   0.644E+00 -.552E+00 -.264E-01   -.202E-02 -.318E-02 -.285E-04
   -.236E+02 -.191E+03 0.253E-01   0.241E+02 0.192E+03 -.393E-01   -.433E+00 -.650E+00 0.139E-01   0.822E-03 -.332E-02 -.260E-04
   -.637E+02 -.214E+02 0.420E+00   0.639E+02 0.213E+02 -.446E+00   -.222E+00 0.123E+00 0.259E-01   -.713E-03 -.170E-03 -.873E-05
   -.727E+02 -.976E+02 0.282E+00   0.732E+02 0.979E+02 -.283E+00   -.497E+00 -.338E+00 0.167E-03   -.171E-02 -.434E-03 -.482E-04
   -.974E+02 0.939E+02 -.909E-01   0.974E+02 -.941E+02 0.934E-01   0.199E-01 0.153E+00 -.331E-02   0.124E-03 -.187E-02 -.610E-04
   -.164E+03 -.421E+01 0.212E+00   0.164E+03 0.474E+01 -.213E+00   -.374E+00 -.523E+00 -.443E-03   0.409E-03 -.120E-02 0.606E-04
   0.186E+03 0.222E+02 0.105E+01   -.187E+03 -.220E+02 -.900E+00   0.435E+00 -.147E+00 -.154E+00   0.304E-02 -.218E-04 -.369E-03
   -.517E+02 0.237E+02 -.500E+02   0.542E+02 -.258E+02 0.543E+02   -.252E+01 0.211E+01 -.435E+01   -.619E-04 -.212E-03 0.835E-04
   -.515E+02 0.239E+02 0.501E+02   0.540E+02 -.260E+02 -.544E+02   -.250E+01 0.213E+01 0.435E+01   -.509E-04 -.215E-03 -.894E-04
   -.402E+02 -.617E+02 0.177E+00   0.412E+02 0.672E+02 -.189E+00   -.945E+00 -.546E+01 0.123E-01   0.119E-03 0.264E-04 0.314E-05
   -.997E+01 0.754E+02 -.138E+00   0.865E+01 -.809E+02 0.150E+00   0.132E+01 0.549E+01 -.120E-01   0.136E-03 -.366E-04 -.299E-05
   -.317E+02 -.765E+02 0.177E+00   0.332E+02 0.819E+02 -.187E+00   -.155E+01 -.540E+01 0.108E-01   -.162E-03 0.129E-03 -.181E-05
   -.206E+02 -.854E+02 -.111E+00   0.228E+02 0.907E+02 0.119E+00   -.217E+01 -.530E+01 -.723E-02   0.284E-03 0.535E-04 0.240E-05
   0.478E+02 -.743E+02 -.319E+00   -.511E+02 0.789E+02 0.342E+00   0.340E+01 -.460E+01 -.225E-01   -.336E-04 -.416E-03 0.145E-05
   0.612E+02 -.490E+02 -.126E+02   -.639E+02 0.537E+02 0.137E+02   0.274E+01 -.470E+01 -.107E+01   0.108E-03 0.267E-03 -.973E-05
   0.485E+02 0.236E+02 0.585E+02   -.503E+02 -.254E+02 -.633E+02   0.172E+01 0.179E+01 0.487E+01   0.175E-03 -.192E-03 -.464E-03
   0.479E+02 0.454E+02 -.442E+02   -.495E+02 -.491E+02 0.479E+02   0.162E+01 0.373E+01 -.371E+01   0.206E-03 -.335E-03 0.203E-03
   0.296E+02 0.831E+02 -.356E+00   -.318E+02 -.884E+02 0.382E+00   0.217E+01 0.529E+01 -.280E-01   -.143E-03 0.436E-03 -.127E-04
   -.337E+02 0.777E+02 -.166E+00   0.370E+02 -.824E+02 0.177E+00   -.332E+01 0.468E+01 -.123E-01   0.229E-03 0.702E-04 -.366E-05
 -----------------------------------------------------------------------------------------------
   -.488E-02 0.944E+00 0.189E+00   -.568E-13 0.142E-13 -.930E-14   0.915E-02 -.907E+00 -.200E+00   -.246E-03 -.608E-02 -.988E-03
 
 
 POSITION                                       TOTAL-FORCE (eV/Angst)
 -----------------------------------------------------------------------------------
     19.79088     18.99889     20.00433        -0.009049      0.000468     -0.000215
     18.41030     18.83254     20.00750        -0.003125      0.009855     -0.000404
     17.53685     19.93556     20.00760        -0.001133     -0.001588     -0.001538
     18.10887     21.21410     20.00839        -0.001581     -0.011014      0.000142
     19.49441     21.38521     20.00481        -0.005204     -0.002998      0.000386
     20.37125     20.28483     20.00218         0.001587     -0.002010      0.000292
     21.81841     20.52229     20.00040         0.001210      0.002216     -0.000044
     22.80164     19.60311     20.00092         0.002348     -0.008800     -0.000387
     24.26196     19.92206     19.99828        -0.002817     -0.000812     -0.001047
     16.04411     19.73845     19.99069        -0.008746     -0.002717     -0.001071
     24.76565     19.49045     20.87840        -0.000478      0.004025      0.005305
     24.76285     19.48713     19.11814        -0.000076      0.004468     -0.003252
     24.44108     21.00560     19.99586         0.008543      0.006182      0.000790
     22.54673     18.53817     20.00325        -0.009497     -0.006057      0.000747
     22.11119     21.57933     19.99830        -0.006322      0.000325      0.000654
     19.91157     22.39483     20.00624         0.002951      0.004517      0.001569
     17.45799     22.09142     20.01272         0.004495      0.002625      0.001140
     15.51138     20.67479     20.20266         0.005102     -0.006074     -0.000468
     15.70245     19.37653     19.00816         0.004652      0.002947     -0.000373
     15.72894     18.98950     20.73187         0.006760      0.006174     -0.000029
     17.99385     17.82222     20.01271         0.000182      0.000793     -0.001524
     20.42765     18.11301     20.00661         0.010199     -0.002524     -0.000672
 -----------------------------------------------------------------------------------
    total drift:                                0.004018      0.031729     -0.011474


--------------------------------------------------------------------------------------------------------



  FREE ENERGIE OF THE ION-ELECTRON SYSTEM (eV)
  ---------------------------------------------------
  free  energy   TOTEN  =      -134.16573887 eV

  energy  without entropy=     -134.16573887  energy(sigma->0) =     -134.16573887
 
 d Force = 0.1209751E-03[-0.626E-06, 0.243E-03]  d Energy = 0.1197415E-03 0.123E-05
 d Force = 0.6819735E+00[ 0.682E+00, 0.682E+00]  d Ewald  = 0.6819734E+00 0.800E-07


--------------------------------------------------------------------------------------------------------


    --------------------------------------------
      INIT:  cpu time      0.5905: real time      0.5912
  FINALIZE:  cpu time     93.6425: real time     93.8029
    --------------------------------------------
    POTLOK:  cpu time    103.3618: real time    103.5385


--------------------------------------------------------------------------------------------------------




--------------------------------------------------------------------------------------------------------


  
 reached required accuracy - stopping structural energy minimisation
 writing wavefunctions
     LOOP+:  cpu time    719.1089: real time    721.3641
    4ORBIT:  cpu time      0.0000: real time      0.0000

 total amount of memory used by VASP MPI-rank0   665089. kBytes
=======================================================================

   base      :      30000. kBytes
   nonlr-proj:       1376. kBytes
   fftplans  :     167689. kBytes
   grid      :     429606. kBytes
   one-center:         18. kBytes
   wavefun   :      36400. kBytes
 
  
  
 General timing and accounting informations for this job:
 ========================================================
  
                  Total CPU time used (sec):     8707.447
                            User time (sec):     8377.494
                          System time (sec):      329.952
                         Elapsed time (sec):     8726.217
  
                   Maximum memory used (kb):     2268196.
                   Average memory used (kb):          N/A
  
                          Minor page faults:     82968267
                          Major page faults:            0
                 Voluntary context switches:       302857
