 vasp.6.3.2 27Jun22 (build Oct 25 2024 11:36:28) complex                        
  
 executed on             LinuxIFC date 2025.09.09  15:30:40
 running on   90 total cores
 distrk:  each k-point on   90 cores,    1 groups
 distr:  one band on NCORE=  10 cores,    9 groups


--------------------------------------------------------------------------------------------------------


 INCAR:
   SYSTEM = 068_red
   ISTART = 1
   ICHARG = 2
   INIWAV = 1
   LHFCALC = .TRUE.
   HFSCREEN = 0.2
   NELM = 500
   ALGO = Damped
   ISPIN = 2
   EDIFF = 1E-05
   ISMEAR = 0
   SIGMA = 0.05
   PREC = accurate
   ENCUT = 500
   LREAL = auto  	
   LDIAG = .FALSE.
   LWAVE = .TRUE.
   LCHARG = .FALSE.
   LAECHG = .FALSE.
   LVHAR = .FALSE.
   LVTOT = .FALSE.
   EDIFFG = -0.02
   IBRION = 2
   NSW = 0
   ISIF = 2
   POTIM = 0.5
   IVDW = 12
   VDW_A1 = 0.383
   VDW_S8 = 2.310
   VDW_A2 = 5.685
   LPLANE = .TRUE.
   NCORE = 10
   LSCALU = .FALSE.
   NSIM = 4
   LSOL = .TRUE.
   ISOL = 2
   R_SOLV = 2.1900
   EPSILON_INF = 1.8069
   N_MOL = 0.0115
   P_MOL = 0.82
   EB_K = 35.6880

 POTCAR:    PAW_PBE C 08Apr2002                   
 POTCAR:    PAW_PBE N 08Apr2002                   
 POTCAR:    PAW_PBE H 15Jun2001                   
 -----------------------------------------------------------------------------
|                                                                             |
|           W    W    AA    RRRRR   N    N  II  N    N   GGGG   !!!           |
|           W    W   A  A   R    R  NN   N  II  NN   N  G    G  !!!           |
|           W    W  A    A  R    R  N N  N  II  N N  N  G       !!!           |
|           W WW W  AAAAAA  RRRRR   N  N N  II  N  N N  G  GGG   !            |
|           WW  WW  A    A  R   R   N   NN  II  N   NN  G    G                |
|           W    W  A    A  R    R  N    N  II  N    N   GGGG   !!!           |
|                                                                             |
|     You use a magnetic or noncollinear calculation, but did not specify     |
|     the initial magnetic moment with the MAGMOM tag. Note that a            |
|     default of 1 will be used for all atoms. This ferromagnetic setup       |
|     may break the symmetry of the crystal, in particular it may rule        |
|     out finding an antiferromagnetic solution. Thence, we recommend         |
|     setting the initial magnetic moment manually or verifying carefully     |
|     that this magnetic setup is desired.                                    |
|                                                                             |
 -----------------------------------------------------------------------------

 POTCAR:    PAW_PBE C 08Apr2002                   
   SHA256 =  253f7b50bb8d59471dbedb8285d89021f4a42ed1a2c5d38a03a736e69125dd95 C/POTCAR              
   COPYR  = (c) Copyright 08Apr2002 Georg Kresse                                                    
   COPYR  = This file is part of the software VASP. Any use, copying, and all other rights are regul
   COPYR  = If you do not have a valid VASP license, you may not use, copy or distribute this file. 
   VRHFIN =C: s2p2                                                                                  
   LEXCH  = PE                                                                                      
   EATOM  =   147.1560 eV,   10.8157 Ry                                                             
                                                                                                    
   TITEL  = PAW_PBE C 08Apr2002                                                                     
   LULTRA =        F    use ultrasoft PP ?                                                          
   IUNSCR =        1    unscreen: 0-lin 1-nonlin 2-no                                               
   RPACOR =    1.200    partial core radius                                                         
   POMASS =   12.011; ZVAL   =    4.000    mass and valenz                                          
   RCORE  =    1.500    outmost cutoff radius                                                       
   RWIGS  =    1.630; RWIGS  =    0.863    wigner-seitz radius (au A)                               
   ENMAX  =  400.000; ENMIN  =  300.000 eV                                                          
   ICORE  =        2    local potential                                                             
   LCOR   =        T    correct aug charges                                                         
   LPAW   =        T    paw PP                                                                      
   EAUG   =  644.873                                                                                
   DEXC   =    0.000                                                                                
   RMAX   =    1.529    core radius for proj-oper                                                   
   RAUG   =    1.300    factor for augmentation sphere                                              
   RDEP   =    1.501    radius for radial grids                                                     
   RDEPT  =    1.300    core radius for aug-charge                                                  
                                                                                                    
   Atomic configuration                                                                             
    4 entries                                                                                       
     n  l   j            E        occ.                                                              
     1  0  0.50      -273.3789   2.0000                                                             
     2  0  0.50       -13.7508   2.0000                                                             
     2  1  0.50        -5.2854   2.0000                                                             
     3  2  1.50        -5.4423   0.0000                                                             
   Description                                                                                      
     l       E           TYP  RCUT    TYP  RCUT                                                     
     0    -13.7508458     23  1.200                                                                 
     0     -8.2022199     23  1.200                                                                 
     1     -5.2854383     23  1.500                                                                 
     1     34.0145650     23  1.500                                                                 
     2     -5.4423304      7  1.500                                                                 
  local pseudopotential read in
  partial core-charges read in
  partial kinetic energy density read in
  atomic valenz-charges read in
  non local Contribution for L=           0  read in
    real space projection operators read in
  non local Contribution for L=           0  read in
    real space projection operators read in
  non local Contribution for L=           1  read in
    real space projection operators read in
  non local Contribution for L=           1  read in
    real space projection operators read in
    PAW grid and wavefunctions read in
 
   number of l-projection  operators is LMAX  =           4
   number of lm-projection operators is LMMAX =           8
 
 POTCAR:    PAW_PBE N 08Apr2002                   
   SHA256 =  e053789ff3a61a86a1b75d8a110fcc91f86041011e7b0817c7c99e4e8a6349d7 N/POTCAR              
   COPYR  = (c) Copyright 08Apr2002 Georg Kresse                                                    
   COPYR  = This file is part of the software VASP. Any use, copying, and all other rights are regul
   COPYR  = If you do not have a valid VASP license, you may not use, copy or distribute this file. 
   VRHFIN =N: s2p3                                                                                  
   LEXCH  = PE                                                                                      
   EATOM  =   264.5486 eV,   19.4438 Ry                                                             
                                                                                                    
   TITEL  = PAW_PBE N 08Apr2002                                                                     
   LULTRA =        F    use ultrasoft PP ?                                                          
   IUNSCR =        1    unscreen: 0-lin 1-nonlin 2-no                                               
   RPACOR =    1.200    partial core radius                                                         
   POMASS =   14.001; ZVAL   =    5.000    mass and valenz                                          
   RCORE  =    1.500    outmost cutoff radius                                                       
   RWIGS  =    1.400; RWIGS  =    0.741    wigner-seitz radius (au A)                               
   ENMAX  =  400.000; ENMIN  =  300.000 eV                                                          
   ICORE  =        2    local potential                                                             
   LCOR   =        T    correct aug charges                                                         
   LPAW   =        T    paw PP                                                                      
   EAUG   =  627.112                                                                                
   DEXC   =    0.000                                                                                
   RMAX   =    1.529    core radius for proj-oper                                                   
   RAUG   =    1.300    factor for augmentation sphere                                              
   RDEP   =    1.514    radius for radial grids                                                     
   RDEPT  =    1.338    core radius for aug-charge                                                  
                                                                                                    
   Atomic configuration                                                                             
    4 entries                                                                                       
     n  l   j            E        occ.                                                              
     1  0  0.50      -384.7179   2.0000                                                             
     2  0  0.50       -18.5828   2.0000                                                             
     2  1  0.50        -7.0898   3.0000                                                             
     3  2  1.50        -6.8029   0.0000                                                             
   Description                                                                                      
     l       E           TYP  RCUT    TYP  RCUT                                                     
     0    -18.5828119     23  1.200                                                                 
     0    -13.5018863     23  1.200                                                                 
     1     -7.0897853     23  1.500                                                                 
     1      9.5240782     23  1.500                                                                 
     2     -6.8029130      7  1.500                                                                 
  local pseudopotential read in
  partial core-charges read in
  partial kinetic energy density read in
  atomic valenz-charges read in
  non local Contribution for L=           0  read in
    real space projection operators read in
  non local Contribution for L=           0  read in
    real space projection operators read in
  non local Contribution for L=           1  read in
    real space projection operators read in
  non local Contribution for L=           1  read in
    real space projection operators read in
    PAW grid and wavefunctions read in
 
   number of l-projection  operators is LMAX  =           4
   number of lm-projection operators is LMMAX =           8
 
 POTCAR:    PAW_PBE H 15Jun2001                   
   SHA256 =  030f79b5d3ab3cf0e668861823c8fb652ff669f3e15e46930bd03bfd63a607b6 H/POTCAR              
   COPYR  = (c) Copyright 15Jun2001 Georg Kresse                                                    
   COPYR  = This file is part of the software VASP. Any use, copying, and all other rights are regul
   COPYR  = If you do not have a valid VASP license, you may not use, copy or distribute this file. 
   VRHFIN =H: ultrasoft test                                                                        
   LEXCH  = PE                                                                                      
   EATOM  =    12.4884 eV,    0.9179 Ry                                                             
                                                                                                    
   TITEL  = PAW_PBE H 15Jun2001                                                                     
   LULTRA =        F    use ultrasoft PP ?                                                          
   IUNSCR =        0    unscreen: 0-lin 1-nonlin 2-no                                               
   RPACOR =    0.000    partial core radius                                                         
   POMASS =    1.000; ZVAL   =    1.000    mass and valenz                                          
   RCORE  =    1.100    outmost cutoff radius                                                       
   RWIGS  =    0.700; RWIGS  =    0.370    wigner-seitz radius (au A)                               
   ENMAX  =  250.000; ENMIN  =  200.000 eV                                                          
   RCLOC  =    0.701    cutoff for local pot                                                        
   LCOR   =        T    correct aug charges                                                         
   LPAW   =        T    paw PP                                                                      
   EAUG   =  400.000                                                                                
   RMAX   =    1.123    core radius for proj-oper                                                   
   RAUG   =    1.200    factor for augmentation sphere                                              
   RDEP   =    1.112    radius for radial grids                                                     
   RDEPT  =    0.926    core radius for aug-charge                                                  
                                                                                                    
   Atomic configuration                                                                             
    2 entries                                                                                       
     n  l   j            E        occ.                                                              
     1  0  0.50        -6.4927   1.0000                                                             
     2  1  0.50        -3.4015   0.0000                                                             
   Description                                                                                      
     l       E           TYP  RCUT    TYP  RCUT                                                     
     0     -6.4927494     23  1.100                                                                 
     0      6.8029130     23  1.100                                                                 
     1     -4.0817478     23  1.100                                                                 
  local pseudopotential read in
  atomic valenz-charges read in
  non local Contribution for L=           0  read in
    real space projection operators read in
  non local Contribution for L=           0  read in
    real space projection operators read in
  non local Contribution for L=           1  read in
    real space projection operators read in
    PAW grid and wavefunctions read in
 
   number of l-projection  operators is LMAX  =           3
   number of lm-projection operators is LMMAX =           5
 
 Optimization of the real space projectors (new method)

 maximal supplied QI-value         = 25.13
 optimisation between [QCUT,QGAM] = [ 11.31, 22.87] = [ 35.82,146.48] Ry 
 Optimized for a Real-space Cutoff    1.03 Angstroem

   l    n(q)    QCUT    max X(q) W(low)/X(q) W(high)/X(q)  e(spline) 
   0      7    11.310   115.676    0.20E-03    0.90E-03    0.20E-06
   0      7    11.310    87.132    0.20E-03    0.89E-03    0.19E-06
   1      6    11.310     4.429    0.16E-03    0.28E-03    0.12E-06
   1      6    11.310     2.733    0.12E-03    0.21E-03    0.99E-07
 Optimization of the real space projectors (new method)

 maximal supplied QI-value         = 25.13
 optimisation between [QCUT,QGAM] = [ 11.31, 22.87] = [ 35.82,146.48] Ry 
 Optimized for a Real-space Cutoff    1.43 Angstroem

   l    n(q)    QCUT    max X(q) W(low)/X(q) W(high)/X(q)  e(spline) 
   0     10    11.310    79.467    0.42E-04    0.81E-04    0.60E-06
   0     10    11.310    66.151    0.40E-04    0.81E-04    0.60E-06
   1      9    11.310    17.416    0.14E-03    0.88E-04    0.14E-05
   1      9    11.310    12.382    0.15E-03    0.93E-04    0.14E-05
 Optimization of the real space projectors (new method)

 maximal supplied QI-value         = 34.20
 optimisation between [QCUT,QGAM] = [ 11.29, 22.57] = [ 35.68,142.71] Ry 
 Optimized for a Real-space Cutoff    1.20 Angstroem

   l    n(q)    QCUT    max X(q) W(low)/X(q) W(high)/X(q)  e(spline) 
   0      8    11.287    19.460    0.22E-03    0.50E-03    0.19E-06
   0      8    11.287    12.209    0.21E-03    0.48E-03    0.18E-06
   1      8    11.287     4.655    0.21E-03    0.11E-04    0.26E-06
  PAW_PBE C 08Apr2002                   :
 energy of atom  1       EATOM= -147.1560
 kinetic energy error for atom=    0.0076 (will be added to EATOM!!)
  PAW_PBE N 08Apr2002                   :
 energy of atom  2       EATOM= -264.5486
 kinetic energy error for atom=    0.0138 (will be added to EATOM!!)
  PAW_PBE H 15Jun2001                   :
 energy of atom  3       EATOM=  -12.4884
 kinetic energy error for atom=    0.0020 (will be added to EATOM!!)
 
 
 POSCAR: C N H
  positions in direct lattice
  velocities in cartesian coordinates
 exchange correlation table for  LEXCH =        8
   RHO(1)=    0.500       N(1)  =     2000
   RHO(2)=  100.500       N(2)  =     4000
 
 POSCAR: C N H
  positions in direct lattice
  velocities in cartesian coordinates
 
 POSCAR: C N H
  positions in direct lattice
  velocities in cartesian coordinates
 


--------------------------------------------------------------------------------------------------------


 ion  position               nearest neighbor table
   1  0.470  0.499  0.522-  11 1.10  12 1.10   7 1.47   2 1.54
   2  0.442  0.500  0.495-   9 1.10   8 1.10  10 1.10   1 1.54
   3  0.516  0.477  0.487-  17 1.10  16 1.11   7 1.46   4 1.53
   4  0.515  0.442  0.503-  14 1.10  13 1.10  15 1.10   3 1.53
   5  0.511  0.537  0.497-  22 1.10  21 1.11   7 1.47   6 1.53
   6  0.548  0.547  0.499-  19 1.10  18 1.10  20 1.10   5 1.53
   7  0.504  0.503  0.510-   3 1.46   5 1.47   1 1.47
   8  0.417  0.498  0.507-   2 1.10
   9  0.444  0.479  0.477-   2 1.10
  10  0.442  0.524  0.481-   2 1.10
  11  0.468  0.476  0.536-   1 1.10
  12  0.465  0.519  0.540-   1 1.10
  13  0.489  0.433  0.507-   4 1.10
  14  0.527  0.424  0.486-   4 1.10
  15  0.528  0.442  0.527-   4 1.10
  16  0.501  0.477  0.463-   3 1.11
  17  0.542  0.483  0.480-   3 1.10
  18  0.564  0.531  0.484-   6 1.10
  19  0.556  0.545  0.525-   6 1.10
  20  0.551  0.573  0.491-   6 1.10
  21  0.503  0.539  0.470-   5 1.11
  22  0.496  0.554  0.511-   5 1.10
 
  LATTYP: Found a simple cubic cell.
 ALAT       =    40.0000000000
  
  Lattice vectors:
  
 A1 = (  40.0000000000,   0.0000000000,   0.0000000000)
 A2 = (   0.0000000000,  40.0000000000,   0.0000000000)
 A3 = (   0.0000000000,   0.0000000000,  40.0000000000)


Analysis of symmetry for initial positions (statically):
=====================================================================
 Subroutine PRICEL returns:
 Original cell was already a primitive cell.
 

 Routine SETGRP: Setting up the symmetry group for a 
 simple cubic supercell.


 Subroutine GETGRP returns: Found  1 space group operations
 (whereof  1 operations were pure point group operations)
 out of a pool of 48 trial point group operations.


The static configuration has the point symmetry C_1 .


Analysis of symmetry for dynamics (positions and initial velocities):
=====================================================================
 Subroutine PRICEL returns:
 Original cell was already a primitive cell.
 

 Routine SETGRP: Setting up the symmetry group for a 
 simple cubic supercell.


 Subroutine GETGRP returns: Found  1 space group operations
 (whereof  1 operations were pure point group operations)
 out of a pool of 48 trial point group operations.


The dynamic configuration has the point symmetry C_1 .


Analysis of constrained symmetry for selective dynamics:
=====================================================================
 Subroutine PRICEL returns:
 Original cell was already a primitive cell.
 

 Routine SETGRP: Setting up the symmetry group for a 
 simple cubic supercell.


 Subroutine GETGRP returns: Found  1 space group operations
 (whereof  1 operations were pure point group operations)
 out of a pool of 48 trial point group operations.


The constrained configuration has the point symmetry C_1 .


Analysis of structural, dynamic, and magnetic symmetry:
=====================================================================
 Subroutine PRICEL returns:
 Original cell was already a primitive cell.
 

 Routine SETGRP: Setting up the symmetry group for a 
 simple cubic supercell.


 Subroutine GETGRP returns: Found  1 space group operations
 (whereof  1 operations were pure point group operations)
 out of a pool of 48 trial point group operations.


The overall configuration has the point symmetry C_1 .


 Subroutine INISYM returns: Found  1 space group operations
 (whereof  1 operations are pure point group operations),
 and found     1 'primitive' translations


----------------------------------------------------------------------------------------

                                     Primitive cell                                     

  volume of cell :   64000.0000

  direct lattice vectors                    reciprocal lattice vectors
    40.000000000  0.000000000  0.000000000     0.025000000  0.000000000  0.000000000
     0.000000000 40.000000000  0.000000000     0.000000000  0.025000000  0.000000000
     0.000000000  0.000000000 40.000000000     0.000000000  0.000000000  0.025000000

  length of vectors
    40.000000000 40.000000000 40.000000000     0.025000000  0.025000000  0.025000000

  position of ions in fractional coordinates (direct lattice)
     0.469724900  0.499234108  0.521792632
     0.441999540  0.499979078  0.495160056
     0.515559378  0.476825130  0.487316761
     0.514758878  0.441905338  0.502660703
     0.511083838  0.536642814  0.496793304
     0.547866636  0.546694917  0.499434666
     0.504270851  0.503188059  0.510078095
     0.417414933  0.497502625  0.507209323
     0.444460037  0.479353079  0.477154058
     0.442021370  0.523568848  0.481036404
     0.468177268  0.475631351  0.535848661
     0.465244034  0.519255792  0.540156705
     0.489151880  0.432786694  0.506683967
     0.527199043  0.424068972  0.485878523
     0.527865629  0.441667535  0.526819773
     0.501137653  0.476853254  0.463480702
     0.541505162  0.482720977  0.480393952
     0.564184571  0.530885418  0.483982938
     0.556435197  0.544900045  0.525477116
     0.551173968  0.572604614  0.490870513
     0.502737001  0.539265268  0.470365371
     0.496029234  0.554467082  0.511405776

  ion indices of the primitive-cell ions
   primitive index   ion index
                 1           1
                 2           2
                 3           3
                 4           4
                 5           5
                 6           6
                 7           7
                 8           8
                 9           9
                10          10
                11          11
                12          12
                13          13
                14          14
                15          15
                16          16
                17          17
                18          18
                19          19
                20          20
                21          21
                22          22

----------------------------------------------------------------------------------------

 
 
 KPOINTS: K-Point Grid                            

Automatic generation of k-mesh.
 Grid dimensions read from file:
 generate k-points for:    1    1    1

 Generating k-lattice:

  Cartesian coordinates                     Fractional coordinates (reciprocal lattice)
     0.025000000  0.000000000  0.000000000     1.000000000  0.000000000  0.000000000
     0.000000000  0.025000000  0.000000000     0.000000000  1.000000000  0.000000000
     0.000000000  0.000000000  0.025000000     0.000000000  0.000000000  1.000000000

  Length of vectors
     0.025000000  0.025000000  0.025000000

  Shift w.r.t. Gamma in fractional coordinates (k-lattice)
     0.000000000  0.000000000  0.000000000

 
 Subroutine IBZKPT returns following result:
 ===========================================
 
 Found      1 irreducible k-points:
 
 Following reciprocal coordinates:
            Coordinates               Weight
  0.000000  0.000000  0.000000      1.000000
 
 Following cartesian coordinates:
            Coordinates               Weight
  0.000000  0.000000  0.000000      1.000000
 
 
 Subroutine IBZKPT_HF returns following result:
 ==============================================
 
 Found      1 k-points in 1st BZ
 the following      1 k-points will be used (e.g. in the exchange kernel)
 Following reciprocal coordinates:   # in IRBZ
  0.000000  0.000000  0.000000    1.00000000   1 t-inv F


--------------------------------------------------------------------------------------------------------




 Dimension of arrays:
   k-points           NKPTS =      1   k-points in BZ     NKDIM =      1   number of bands    NBANDS=     45
   number of dos      NEDOS =    301   number of ions     NIONS =     22
   non local maximal  LDIM  =      4   non local SUM 2l+1 LMDIM =      8
   total plane-waves  NPLWV = ******
   max r-space proj   IRMAX =   4928   max aug-charges    IRDMAX=   5085
   dimension x,y,z NGX =   294 NGY =  294 NGZ =  294
   dimension x,y,z NGXF=   588 NGYF=  588 NGZF=  588
   support grid    NGXF=   588 NGYF=  588 NGZF=  588
   ions per type =               6   1  15
   NGX,Y,Z   is equivalent  to a cutoff of  12.22, 12.22, 12.22 a.u.
   NGXF,Y,Z  is equivalent  to a cutoff of  24.44, 24.44, 24.44 a.u.

 SYSTEM =  068_red                                 
 POSCAR =  C N H                                   

 Startparameter for this run:
   NWRITE =      2    write-flag & timer
   PREC   = accura    normal or accurate (medium, high low for compatibility)
   ISTART =      1    job   : 0-new  1-cont  2-samecut
   ICHARG =      2    charge: 1-file 2-atom 10-const
   ISPIN  =      2    spin polarized calculation?
   LNONCOLLINEAR =      F non collinear calculations
   LSORBIT =      F    spin-orbit coupling
   INIWAV =      1    electr: 0-lowe 1-rand  2-diag
   LASPH  =      F    aspherical Exc in radial PAW
 Electronic Relaxation 1
   ENCUT  =  500.0 eV  36.75 Ry    6.06 a.u.  72.93 72.93 72.93*2*pi/ulx,y,z
   ENINI  =  500.0     initial cutoff
   ENAUG  =  644.9 eV  augmentation charge cutoff
   NELM   =    500;   NELMIN=  2; NELMDL=  0     # of ELM steps 
   EDIFF  = 0.1E-04   stopping-criterion for ELM
   LREAL  =      T    real-space projection
   NLSPLINE    = F    spline interpolate recip. space projectors
   LCOMPAT=      F    compatible to vasp.4.4
   GGA_COMPAT  = T    GGA compatible to vasp.4.4-vasp.4.6
   LMAXPAW     = -100 max onsite density
   LMAXMIX     =    2 max onsite mixed and CHGCAR
   VOSKOWN=      0    Vosko Wilk Nusair interpolation
   ROPT   =   -0.00025  -0.00025  -0.00025
 Ionic relaxation
   EDIFFG = -.2E-01   stopping-criterion for IOM
   NSW    =      0    number of steps for IOM
   NBLOCK =      1;   KBLOCK =      1    inner block; outer block 
   IBRION =     -1    ionic relax: 0-MD 1-quasi-New 2-CG
   NFREE  =      1    steps in history (QN), initial steepest desc. (CG)
   ISIF   =      2    stress and relaxation
   IWAVPR =     10    prediction:  0-non 1-charg 2-wave 3-comb
   ISYM   =      3    0-nonsym 1-usesym 2-fastsym
   LCORR  =      T    Harris-Foulkes like correction to forces

   POTIM  = 0.5000    time-step for ionic-motion
   TEIN   =    0.0    initial temperature
   TEBEG  =    0.0;   TEEND  =   0.0 temperature during run
   SMASS  =  -3.00    Nose mass-parameter (am)
   estimated Nose-frequenzy (Omega)   =  0.10E-29 period in steps = 0.13E+47 mass=  -0.366E-25a.u.
   SCALEE = 1.0000    scale energy and forces
   NPACO  =    256;   APACO  = 10.0  distance and # of slots for P.C.
   PSTRESS=    0.0 pullay stress

  Mass of Ions in am
   POMASS =  12.01 14.00  1.00
  Ionic Valenz
   ZVAL   =   4.00  5.00  1.00
  Atomic Wigner-Seitz radii
   RWIGS  =  -1.00 -1.00 -1.00
  virtual crystal weights 
   VCA    =   1.00  1.00  1.00
   NELECT =      44.0000    total number of electrons
   NUPDOWN=      -1.0000    fix difference up-down

 DOS related values:
   EMIN   =  10.00;   EMAX   =-10.00  energy-range for DOS
   EFERMI =   0.00
   ISMEAR =     0;   SIGMA  =   0.05  broadening in eV -4-tet -1-fermi 0-gaus

 Electronic relaxation 2 (details)
   IALGO  =     53    algorithm
   LDIAG  =      F    sub-space diagonalisation (order eigenvalues)
   LSUBROT=      F    optimize rotation matrix (better conditioning)
   TURBO    =      0    0=normal 1=particle mesh
   IRESTART =      0    0=no restart 2=restart with 2 vectors
   NREBOOT  =      0    no. of reboots
   NMIN     =      0    reboot dimension
   EREF     =   0.00    reference energy to select bands
   IMIX   =      4    mixing-type and parameters
     AMIX     =   0.40;   BMIX     =  1.00
     AMIX_MAG =   1.60;   BMIX_MAG =  1.00
     AMIN     =   0.10
     WC   =   100.;   INIMIX=   1;  MIXPRE=   1;  MAXMIX= -45

 Intra band minimization:
   WEIMIN = 0.0000     energy-eigenvalue tresh-hold
   EBREAK =  0.56E-07  absolut break condition
   DEPER  =   0.30     relativ break condition  

   TIME   =   0.40     timestep for ELM

  volume/ion in A,a.u.               =    2909.09     19631.51
  Fermi-wavevector in a.u.,A,eV,Ry     =   0.144488  0.273043  0.284047  0.020877
  Thomas-Fermi vector in A             =   0.810532
 
 Write flags
   LWAVE        =      T    write WAVECAR
   LDOWNSAMPLE  =      F    k-point downsampling of WAVECAR
   LCHARG       =      F    write CHGCAR
   LVTOT        =      F    write LOCPOT, total local potential
   LVHAR        =      F    write LOCPOT, Hartree potential only
   LELF         =      F    write electronic localiz. function (ELF)
   LORBIT       =      0    0 simple, 1 ext, 2 COOP (PROOUT), +10 PAW based schemes


 Dipole corrections
   LMONO  =      F    monopole corrections only (constant potential shift)
   LDIPOL =      F    correct potential (dipole corrections)
   IDIPOL =      0    1-x, 2-y, 3-z, 4-all directions 
   EPSILON=  1.0000000 bulk dielectric constant

 Exchange correlation treatment:
   GGA     =    --    GGA type
   LEXCH   =     8    internal setting for exchange type
   LIBXC   =     F    Libxc                    
   VOSKOWN =     0    Vosko Wilk Nusair interpolation
   EXXOEP  =     0    0=HF, 1=EXX-LHF (local Hartree Fock) 2=EXX OEP
   LHFCALC =     T    Hartree Fock is set to
   LSYMGRAD=     F    symmetrize gradient (conserves proper symmetry)
   PRECFOCK=normal    Normal, Fast or Accurate (Low or Medium for compatibility)
   LRHFCALC=     F    long range Hartree Fock
   LRSCOR  =     F    long range correlation only (use DFT for short range part)
   LTHOMAS =     F    Thomas Fermi screening in HF
   LMODELHF=     F    short range full HF, long range fraction AEXX
   FOCKCORR=     1    mode to apply convergence corrections
   LFOCKACE=     T    use Adeptively-Compressed-Exchange operator
   ENCUT4O =  -1.0   cutoff for four orbital integrals eV
   LMAXFOCK=     4    L truncation for augmentation on plane wave grid
   LMAXFOCKAE=  -1    L truncation for all-electron charge restoration on plane wave grid
   NMAXFOCKAE=   1    number of basis functions for all-electron charge restoration
   LFOCKAEDFT=     F  apply the AE augmentation even for DFT
   NKREDX  =     1    reduce k-point grid by
   NKREDY  =     1    reduce k-point grid by
   NKREDZ  =     1    reduce k-point grid by
   SHIFTRED=     F    shift reduced grid of Gamma
   HFKIDENT=     F    idential grid for each k-point
   ODDONLY =     F    use only odd q-grid points
   EVENONLY=     F    use only even q-grid points
   HFALPHA =   -1.0000 decay constant for conv. correction
   MCALPHA =    0.0000 extent of test-charge in conv. correction in multipole expansion
   AEXX    =    0.2500 exact exchange contribution
   HFSCREEN=    0.2000 screening length (either q_TF or 0.3 A-1)
   HFSCREENC=   0.2000 screening length for correlation (either q_TF or 0.3 A-1)
   HFRCUT  =    0.0000 spherical cutoff for potential kernel
   ALDAX   =    0.7500 LDA exchange part
   AGGAX   =    0.7500 GGA exchange part
   ALDAC   =    1.0000 LDA correlation
   AGGAC   =    1.0000 GGA correlation
   ENCUTFOCK=  -1.0 apply spherical cutoff to Coloumb kernel
   NBANDSGWLOW=     1    first orbital included in HF term
   NBLOCK_FOCK=    64    blocking factor in FOCK_ACC

 Linear response parameters
   LEPSILON=     F    determine dielectric tensor
   LRPA    =     F    only Hartree local field effects (RPA)
   LNABLA  =     F    use nabla operator in PAW spheres
   LVEL    =     F    velocity operator in full k-point grid
   CSHIFT  =0.1000    complex shift for real part using Kramers Kronig
   OMEGAMAX=  -1.0    maximum frequency
   DEG_THRESHOLD= 0.2000000E-02 threshold for treating states as degnerate
   RTIME   =   -0.100 relaxation time in fs
  (WPLASMAI=    0.000 imaginary part of plasma frequency in eV, 0.658/RTIME)
   DFIELD  = 0.0000000 0.0000000 0.0000000 field for delta impulse in time
 
  Optional k-point grid parameters
   LKPOINTS_OPT  =     F    use optional k-point grid
   KPOINTS_OPT_MODE=     1    mode for optional k-point grid
 
 Orbital magnetization related:
   ORBITALMAG=     F  switch on orbital magnetization
   LCHIMAG   =     F  perturbation theory with respect to B field
   DQ        =  0.001000  dq finite difference perturbation B field
   LLRAUG    =     F  two centre corrections for induced B field

 Solvation model:
   LSOL             =     T         switch on solvation model
   LSOL_SCF         =     T         include solvation in SCF
   ISOL             =     2         solvation model type
   EFERMI_ref       =  0.000000         reference Fermi level
   capacitance_init =  1.000000         initial capacitance
 Nonlinear solvation model:
   LNLDIEL     =     T         switch on non-linear dielectric mode
   LNLION      =     T         switch on non-linear ionic mode
   LNLTEST     =     F         test non-linear model in linear regime
   I_NLOC_SOL  =     1         type of nonlocal dielectric response
   NC_K        =  0.015000     cutoff charge density for cavities (1/Angstrom**3)
   TAU         =  0.000879     cavity formation energy (eV/Angstrom**2)
   SIGMA_K     =  0.600000     cavity width
   A_K         =  0.125000     smoothing length (Angstrom)
   R_SOLV      =  2.190000     solvent radius (Angstrom)
   R_CAV       =  0.000000     cavity radius (Angstrom)
   R_DIEL      =  1.000000     dielectric radius (Angstrom)
   R_ION       =  0.000000     ionic radius (Angstrom)
   R_B         =  0.000000     bound charge radius (Angstrom)
   SOLTEMP     =298.000000     solvent temperature (K)
   EB_K        = 35.688000     relative permittivity of the bulk solvent
   EPSILON_INF =  1.806900     optical relative permittivity of bulk solvent
   N_MOL       =  0.011500     molar density of solvent (1/Angstrom**3)
   P_MOL       =  0.820000     solvent dipole moment (e*Angstrom)
   C_MOLAR     =  0.000000     electrolyte concentration (mol/L)
   LAMBDA_D_K  =  0.000000     Debye length (Angstrom)
   ZION        =  1.000000     charge of ions in electrolyte (e)
   D_ION       = -1.000000     minimum ion packing diameter (Angstrom)



--------------------------------------------------------------------------------------------------------


 Static calculation
 charge density and potential will be updated during run
 spin polarized calculation
 Conjugate gradient for all bands (Kresse, et al. variant)
 perform Loewdin sub-space diagonalisation
    ordering is kept fixed
    before iterative eigenvector-optimisation
 modified Broyden-mixing scheme, WC =      100.0
 initial mixing is a Kerker type mixing with AMIX =  0.4000 and BMIX =      1.0000
 Hartree-type preconditioning will be used
 using additional bands           23
 real space projection scheme for non local part
 use partial core corrections
 no Harris-corrections to forces 
 use gradient corrections 
 use of overlap-Matrix (Vanderbilt PP)
 Gauss-broadening in eV      SIGMA  =   0.05


--------------------------------------------------------------------------------------------------------


  energy-cutoff  :      500.00
  volume of cell :    64000.00
      direct lattice vectors                 reciprocal lattice vectors
    40.000000000  0.000000000  0.000000000     0.025000000  0.000000000  0.000000000
     0.000000000 40.000000000  0.000000000     0.000000000  0.025000000  0.000000000
     0.000000000  0.000000000 40.000000000     0.000000000  0.000000000  0.025000000

  length of vectors
    40.000000000 40.000000000 40.000000000     0.025000000  0.025000000  0.025000000


 
 old parameters found on file WAVECAR:
  energy-cutoff  :      500.00
  volume of cell :    64000.00
      direct lattice vectors                 reciprocal lattice vectors
    40.000000000  0.000000000  0.000000000     0.025000000  0.000000000  0.000000000
     0.000000000 40.000000000  0.000000000     0.000000000  0.025000000  0.000000000
     0.000000000  0.000000000 40.000000000     0.000000000  0.000000000  0.025000000

  length of vectors

 
 k-points in units of 2pi/SCALE and weight: K-Point Grid                            
   0.00000000  0.00000000  0.00000000       1.000
 
 k-points in reciprocal lattice and weights: K-Point Grid                            
   0.00000000  0.00000000  0.00000000       1.000
 
 position of ions in fractional coordinates (direct lattice) 
   0.46972490  0.49923411  0.52179263
   0.44199954  0.49997908  0.49516006
   0.51555938  0.47682513  0.48731676
   0.51475888  0.44190534  0.50266070
   0.51108384  0.53664281  0.49679330
   0.54786664  0.54669492  0.49943467
   0.50427085  0.50318806  0.51007810
   0.41741493  0.49750262  0.50720932
   0.44446004  0.47935308  0.47715406
   0.44202137  0.52356885  0.48103640
   0.46817727  0.47563135  0.53584866
   0.46524403  0.51925579  0.54015670
   0.48915188  0.43278669  0.50668397
   0.52719904  0.42406897  0.48587852
   0.52786563  0.44166753  0.52681977
   0.50113765  0.47685325  0.46348070
   0.54150516  0.48272098  0.48039395
   0.56418457  0.53088542  0.48398294
   0.55643520  0.54490004  0.52547712
   0.55117397  0.57260461  0.49087051
   0.50273700  0.53926527  0.47036537
   0.49602923  0.55446708  0.51140578
 
 position of ions in cartesian coordinates  (Angst):
  18.78899600 19.96936432 20.87170529
  17.67998159 19.99916312 19.80640225
  20.62237510 19.07300520 19.49267044
  20.59035513 17.67621353 20.10642813
  20.44335354 21.46571255 19.87173215
  21.91466545 21.86779669 19.97738665
  20.17083402 20.12752236 20.40312380
  16.69659733 19.90010499 20.28837293
  17.77840148 19.17412317 19.08616231
  17.68085478 20.94275391 19.24145617
  18.72709072 19.02525406 21.43394643
  18.60976138 20.77023169 21.60626819
  19.56607519 17.31146776 20.26735869
  21.08796171 16.96275890 19.43514092
  21.11462514 17.66670140 21.07279092
  20.04550613 19.07413016 18.53922807
  21.66020648 19.30883910 19.21575809
  22.56738285 21.23541674 19.35931753
  22.25740789 21.79600179 21.01908462
  22.04695870 22.90418457 19.63482053
  20.10948002 21.57061072 18.81461485
  19.84116936 22.17868327 20.45623104
 


--------------------------------------------------------------------------------------------------------


 k-point   1 :   0.0000 0.0000 0.0000  plane waves: 1624525

 maximum and minimum number of plane-waves per node :    162473   162437

 maximum number of plane-waves:   1624525
 maximum index in each direction: 
   IXMAX=   72   IYMAX=   72   IZMAX=   72
   IXMIN=  -72   IYMIN=  -72   IZMIN=  -72


 real space projection operators:
  total allocation   :       2596.53 KBytes
  max/ min on nodes  :        265.24        252.12


 parallel 3D FFT for wavefunctions:
    minimum data exchange during FFTs selected (reduces bandwidth)
 parallel 3D FFT for charge:
    minimum data exchange during FFTs selected (reduces bandwidth)


 FFT grid for exact exchange (Hartree Fock) 
  NGX =224; NGY =224; NGZ =224

 
 Radii for the augmentation spheres in the non-local exchange
 for species   1 augmentation radius   0.874 (default was   0.699)
       energy cutoff for augmentation   2000.0
 for species   2 augmentation radius   0.886 (default was   0.709)
       energy cutoff for augmentation   2000.0
 for species   3 augmentation radius   0.650 (default was   0.520)
       energy cutoff for augmentation   2000.0

 real space projection operators:
  total allocation   :        455.77 KBytes
  max/ min on nodes  :         53.51         36.35

 Maximum index for augmentation-charges in exchange           69
  SETUP_FOCK is finished

 total amount of memory used by VASP MPI-rank0   756058. kBytes
=======================================================================

   base      :      30000. kBytes
   nonlr-proj:       2400. kBytes
   fftplans  :     224335. kBytes
   grid      :     421299. kBytes
   one-center:         18. kBytes
   HF        :          9. kBytes
   wavefun   :      77997. kBytes
 
     INWAV:  cpu time     12.3886: real time     12.3932
 Broyden mixing: mesh for mixing (old mesh)
   NGX =145   NGY =145   NGZ =145
  (NGX  =588   NGY  =588   NGZ  =588)
  gives a total of ****** points

 initial charge density was supplied:
 charge density of overlapping atoms calculated
 number of electron      44.0000000 magnetization      22.0000000
 charge density for first step will be calculated from the start-wavefunctions


--------------------------------------------------------------------------------------------------------


 Maximum index for non-local projection operator          464
 Maximum index for augmentation-charges          211 (set IRDMAX)


--------------------------------------------------------------------------------------------------------


 initial charge from wavefunction
 First call to EWALD:  gamma=   0.044
 Maximum number of real-space cells 3x 3x 3
 Maximum number of reciprocal cells 3x 3x 3

    FEWALD:  cpu time      0.0065: real time      0.0065


--------------------------------------- Iteration      1(   1)  ---------------------------------------


    POTLOK:  cpu time     20.4899: real time     20.4907
    SETDIJ:  cpu time      0.0692: real time      0.0692
    TRIAL :  cpu time    136.8973: real time    136.9015
    CORREC:  cpu time      0.0210: real time      0.0210
    CHARGE:  cpu time      3.4377: real time      3.4378
    --------------------------------------------
      LOOP:  cpu time    160.9618: real time    160.9674

 eigenvalue-minimisations  :     0
 total energy-change (2. order) :-0.1364641E+03  (-0.7236382E-01)
 number of electron      44.0000004 magnetization      -0.0000000
 augmentation part        1.1266338 magnetization      -0.0000000

 Free energy of the ion-electron system (eV)
  ---------------------------------------------------
  alpha Z        PSCENC =         0.12465185
  Ewald energy   TEWEN  =      4286.97723881
  -Hartree energ DENC   =     -5361.67602138
  -exchange      EXHF   =        96.91033021
  -V(xc)+E(xc)   XCENC  =       111.97400187
  PAW double counting   =      3379.65187012    -3383.60655852
  entropy T*S    EENTRO =        -0.00000000
  eigenvalues    EBANDS =      -580.92770373
  atomic energy  EATOM  =      1314.10807275
  ---------------------------------------------------
  free energy    TOTEN  =      -136.46411802 eV

  energy without entropy =     -136.46411802  energy(sigma->0) =     -136.46411802
  exchange ACFDT corr.  =         0.00000000  see jH, gK, PRB 81, 115126


--------------------------------------------------------------------------------------------------------




--------------------------------------- Iteration      1(   2)  ---------------------------------------


    --------------------------------------------
      INIT:  cpu time      0.5863: real time      0.5863
  FINALIZE:  cpu time     86.2511: real time     86.2534
    --------------------------------------------
    POTLOK:  cpu time    109.0938: real time    109.0965
    SETDIJ:  cpu time      0.0706: real time      0.0706
    TRIAL :  cpu time    137.6174: real time    137.6229
    CORREC:  cpu time      0.3581: real time      0.3581
    CHARGE:  cpu time      2.8787: real time      2.8788
    --------------------------------------------
      LOOP:  cpu time    250.0237: real time    250.0427

 eigenvalue-minimisations  :     0
 total energy-change (2. order) : 0.1996590E+00  (-0.3282304E-01)
 number of electron      44.0000004 magnetization      -0.0000000
 augmentation part        1.1263045 magnetization      -0.0000000

 Free energy of the ion-electron system (eV)
  ---------------------------------------------------
  alpha Z        PSCENC =         0.12465185
  Ewald energy   TEWEN  =      4286.97723881
  -Hartree energ DENC   =     -5365.56206470
  -exchange      EXHF   =        96.94710156
  -V(xc)+E(xc)   XCENC  =       112.01222288
  PAW double counting   =      3376.12177204    -3380.07959277
  entropy T*S    EENTRO =        -0.00000000
  eigenvalues    EBANDS =      -577.24702772
  atomic energy  EATOM  =      1314.10807275
  ---------------------------------------------------
  free energy    TOTEN  =      -136.26445905 eV

  energy without entropy =     -136.26445905  energy(sigma->0) =     -136.26445905
  exchange ACFDT corr.  =         0.00000000  see jH, gK, PRB 81, 115126


--------------------------------------------------------------------------------------------------------




--------------------------------------- Iteration      1(   3)  ---------------------------------------


    --------------------------------------------
      INIT:  cpu time      0.5853: real time      0.5853
  FINALIZE:  cpu time     78.8276: real time     78.8295
    --------------------------------------------
    POTLOK:  cpu time     99.9286: real time     99.9310
    SETDIJ:  cpu time      0.0694: real time      0.0694
    TRIAL :  cpu time    137.3750: real time    137.3784
    CORREC:  cpu time      0.1621: real time      0.1621
    CHARGE:  cpu time      2.8745: real time      2.8746
    --------------------------------------------
      LOOP:  cpu time    240.4200: real time    240.4324

 eigenvalue-minimisations  :     0
 total energy-change (2. order) :-0.2115786E-01  (-0.1006953E-01)
 number of electron      44.0000004 magnetization      -0.0000000
 augmentation part        1.1252522 magnetization      -0.0000000

 Free energy of the ion-electron system (eV)
  ---------------------------------------------------
  alpha Z        PSCENC =         0.12465185
  Ewald energy   TEWEN  =      4286.97723881
  -Hartree energ DENC   =     -5366.86225809
  -exchange      EXHF   =        96.94587411
  -V(xc)+E(xc)   XCENC  =       112.01271826
  PAW double counting   =      3374.31291645    -3378.26945804
  entropy T*S    EENTRO =        -0.00000000
  eigenvalues    EBANDS =      -576.10716511
  atomic energy  EATOM  =      1314.10807275
  ---------------------------------------------------
  free energy    TOTEN  =      -136.28561690 eV

  energy without entropy =     -136.28561690  energy(sigma->0) =     -136.28561690
  exchange ACFDT corr.  =         0.00000000  see jH, gK, PRB 81, 115126


--------------------------------------------------------------------------------------------------------




--------------------------------------- Iteration      1(   4)  ---------------------------------------


    --------------------------------------------
      INIT:  cpu time      0.9688: real time      0.9688
  FINALIZE:  cpu time     70.2549: real time     70.2570
    --------------------------------------------
    POTLOK:  cpu time     91.3197: real time     91.3222
    SETDIJ:  cpu time      0.0694: real time      0.0694
    TRIAL :  cpu time    138.1847: real time    138.1883
    CORREC:  cpu time      0.1364: real time      0.1364
    CHARGE:  cpu time      3.4600: real time      3.4601
    --------------------------------------------
      LOOP:  cpu time    233.1819: real time    233.1966

 eigenvalue-minimisations  :     0
 total energy-change (2. order) :-0.5195664E-02  (-0.1534923E-02)
 number of electron      44.0000004 magnetization      -0.0000000
 augmentation part        1.1251680 magnetization      -0.0000000

 Free energy of the ion-electron system (eV)
  ---------------------------------------------------
  alpha Z        PSCENC =         0.12465185
  Ewald energy   TEWEN  =      4286.97723881
  -Hartree energ DENC   =     -5365.85921488
  -exchange      EXHF   =        96.92169449
  -V(xc)+E(xc)   XCENC  =       111.98903462
  PAW double counting   =      3373.68973154    -3377.64288305
  entropy T*S    EENTRO =        -0.00000000
  eigenvalues    EBANDS =      -577.08075772
  atomic energy  EATOM  =      1314.10807275
  ---------------------------------------------------
  free energy    TOTEN  =      -136.29081257 eV

  energy without entropy =     -136.29081257  energy(sigma->0) =     -136.29081257
  exchange ACFDT corr.  =         0.00000000  see jH, gK, PRB 81, 115126


--------------------------------------------------------------------------------------------------------




--------------------------------------- Iteration      1(   5)  ---------------------------------------


    --------------------------------------------
      INIT:  cpu time      0.4045: real time      0.4045
  FINALIZE:  cpu time     75.5458: real time     75.5477
    --------------------------------------------
    POTLOK:  cpu time     93.8975: real time     93.8997
    SETDIJ:  cpu time      0.0701: real time      0.0701
    TRIAL :  cpu time    136.6194: real time    136.6232
    CORREC:  cpu time      0.1183: real time      0.1183
    CHARGE:  cpu time      3.6376: real time      3.6378
    --------------------------------------------
      LOOP:  cpu time    234.3504: real time    234.3639

 eigenvalue-minimisations  :     0
 total energy-change (2. order) :-0.5216751E-03  (-0.5788618E-03)
 number of electron      44.0000004 magnetization      -0.0000000
 augmentation part        1.1254534 magnetization      -0.0000000

 Free energy of the ion-electron system (eV)
  ---------------------------------------------------
  alpha Z        PSCENC =         0.12465185
  Ewald energy   TEWEN  =      4286.97723881
  -Hartree energ DENC   =     -5365.75966073
  -exchange      EXHF   =        96.92681052
  -V(xc)+E(xc)   XCENC  =       111.99216735
  PAW double counting   =      3374.24999696    -3378.20277269
  entropy T*S    EENTRO =        -0.00000000
  eigenvalues    EBANDS =      -577.16979797
  atomic energy  EATOM  =      1314.10807275
  ---------------------------------------------------
  free energy    TOTEN  =      -136.29133424 eV

  energy without entropy =     -136.29133424  energy(sigma->0) =     -136.29133424
  exchange ACFDT corr.  =         0.00000000  see jH, gK, PRB 81, 115126


--------------------------------------------------------------------------------------------------------




--------------------------------------- Iteration      1(   6)  ---------------------------------------


    --------------------------------------------
      INIT:  cpu time      0.4065: real time      0.4065
  FINALIZE:  cpu time     68.6478: real time     68.6494
    --------------------------------------------
    POTLOK:  cpu time     88.4010: real time     88.4031
    SETDIJ:  cpu time      0.0685: real time      0.0685
    TRIAL :  cpu time    139.5316: real time    139.5351
    CORREC:  cpu time      0.6206: real time      0.6206
    CHARGE:  cpu time      3.0635: real time      3.0636
    --------------------------------------------
      LOOP:  cpu time    231.6962: real time    231.7077

 eigenvalue-minimisations  :     0
 total energy-change (2. order) :-0.2827960E-03  (-0.4437248E-03)
 number of electron      44.0000004 magnetization       0.0000000
 augmentation part        1.1255532 magnetization       0.0000000

 Free energy of the ion-electron system (eV)
  ---------------------------------------------------
  alpha Z        PSCENC =         0.12465185
  Ewald energy   TEWEN  =      4286.97723881
  -Hartree energ DENC   =     -5366.07843858
  -exchange      EXHF   =        96.93788021
  -V(xc)+E(xc)   XCENC  =       112.00176402
  PAW double counting   =      3374.70583464    -3378.65935232
  entropy T*S    EENTRO =        -0.00000000
  eigenvalues    EBANDS =      -576.86558663
  atomic energy  EATOM  =      1314.10807275
  ---------------------------------------------------
  free energy    TOTEN  =      -136.29161704 eV

  energy without entropy =     -136.29161704  energy(sigma->0) =     -136.29161704
  exchange ACFDT corr.  =         0.00000000  see jH, gK, PRB 81, 115126


--------------------------------------------------------------------------------------------------------




--------------------------------------- Iteration      1(   7)  ---------------------------------------


    --------------------------------------------
      INIT:  cpu time      0.7901: real time      0.7902
  FINALIZE:  cpu time     69.7527: real time     69.7551
    --------------------------------------------
    POTLOK:  cpu time     89.9986: real time     90.0015
    SETDIJ:  cpu time      0.0726: real time      0.0726
    TRIAL :  cpu time    137.2610: real time    137.2645
    CORREC:  cpu time      0.1032: real time      0.1032
    CHARGE:  cpu time      2.8837: real time      2.8837
    --------------------------------------------
      LOOP:  cpu time    230.3359: real time    230.3492

 eigenvalue-minimisations  :     0
 total energy-change (2. order) :-0.3001550E-03  (-0.2753659E-03)
 number of electron      44.0000004 magnetization      -0.0000000
 augmentation part        1.1255008 magnetization      -0.0000000

 Free energy of the ion-electron system (eV)
  ---------------------------------------------------
  alpha Z        PSCENC =         0.12465185
  Ewald energy   TEWEN  =      4286.97723881
  -Hartree energ DENC   =     -5366.10838222
  -exchange      EXHF   =        96.93839967
  -V(xc)+E(xc)   XCENC  =       112.00237811
  PAW double counting   =      3374.65904626    -3378.61275852
  entropy T*S    EENTRO =        -0.00000000
  eigenvalues    EBANDS =      -576.83914064
  atomic energy  EATOM  =      1314.10807275
  ---------------------------------------------------
  free energy    TOTEN  =      -136.29191719 eV

  energy without entropy =     -136.29191719  energy(sigma->0) =     -136.29191719
  exchange ACFDT corr.  =         0.00000000  see jH, gK, PRB 81, 115126


--------------------------------------------------------------------------------------------------------




--------------------------------------- Iteration      1(   8)  ---------------------------------------


    --------------------------------------------
      INIT:  cpu time      0.9704: real time      0.9704
  FINALIZE:  cpu time     67.0613: real time     67.0696
    --------------------------------------------
    POTLOK:  cpu time     83.4767: real time     83.4855
    SETDIJ:  cpu time      0.0708: real time      0.0708
    TRIAL :  cpu time    138.3029: real time    138.3109
    CORREC:  cpu time      0.0021: real time      0.0021
    CHARGE:  cpu time      2.8941: real time      2.8943
    --------------------------------------------
      LOOP:  cpu time    224.7545: real time    224.7783

 eigenvalue-minimisations  :     0
 total energy-change (2. order) :-0.1803464E-03  (-0.9543386E-04)
 number of electron      44.0000004 magnetization      -0.0000000
 augmentation part        1.1254982 magnetization      -0.0000000

 Free energy of the ion-electron system (eV)
  ---------------------------------------------------
  alpha Z        PSCENC =         0.12465185
  Ewald energy   TEWEN  =      4286.97723881
  -Hartree energ DENC   =     -5365.97422655
  -exchange      EXHF   =        96.93450487
  -V(xc)+E(xc)   XCENC  =       111.99905011
  PAW double counting   =      3374.43423689    -3378.38780352
  entropy T*S    EENTRO =        -0.00000000
  eigenvalues    EBANDS =      -576.96720921
  atomic energy  EATOM  =      1314.10807275
  ---------------------------------------------------
  free energy    TOTEN  =      -136.29209754 eV

  energy without entropy =     -136.29209754  energy(sigma->0) =     -136.29209754
  exchange ACFDT corr.  =         0.00000000  see jH, gK, PRB 81, 115126


--------------------------------------------------------------------------------------------------------




--------------------------------------- Iteration      1(   9)  ---------------------------------------


    --------------------------------------------
      INIT:  cpu time      0.3971: real time      0.3972
  FINALIZE:  cpu time     64.5513: real time     64.5548
    --------------------------------------------
    POTLOK:  cpu time     88.2557: real time     88.2606
    SETDIJ:  cpu time      0.0719: real time      0.0719
    TRIAL :  cpu time    137.4247: real time    137.4348
    CORREC:  cpu time      0.3387: real time      0.3388
    CHARGE:  cpu time      5.2336: real time      5.2339
    --------------------------------------------
      LOOP:  cpu time    231.3555: real time    231.3775

 eigenvalue-minimisations  :     0
 total energy-change (2. order) :-0.5982773E-04  (-0.2795675E-04)
 number of electron      44.0000004 magnetization      -0.0000000
 augmentation part        1.1255236 magnetization      -0.0000000

 Free energy of the ion-electron system (eV)
  ---------------------------------------------------
  alpha Z        PSCENC =         0.12465185
  Ewald energy   TEWEN  =      4286.97723881
  -Hartree energ DENC   =     -5365.96833258
  -exchange      EXHF   =        96.93434663
  -V(xc)+E(xc)   XCENC  =       111.99900101
  PAW double counting   =      3374.34905790    -3378.30269492
  entropy T*S    EENTRO =        -0.00000000
  eigenvalues    EBANDS =      -576.97199670
  atomic energy  EATOM  =      1314.10807275
  ---------------------------------------------------
  free energy    TOTEN  =      -136.29215737 eV

  energy without entropy =     -136.29215737  energy(sigma->0) =     -136.29215737
  exchange ACFDT corr.  =         0.00000000  see jH, gK, PRB 81, 115126


--------------------------------------------------------------------------------------------------------




--------------------------------------- Iteration      1(  10)  ---------------------------------------


    --------------------------------------------
      INIT:  cpu time      1.1690: real time      1.1691
  FINALIZE:  cpu time     73.9535: real time     73.9576
    --------------------------------------------
    POTLOK:  cpu time     98.3138: real time     98.3192
    SETDIJ:  cpu time      0.0702: real time      0.0702
    TRIAL :  cpu time    137.2592: real time    137.2673
    CORREC:  cpu time      0.1865: real time      0.1864
    CHARGE:  cpu time      3.2553: real time      3.2555
    --------------------------------------------
      LOOP:  cpu time    239.0919: real time    239.1134

 eigenvalue-minimisations  :     0
 total energy-change (2. order) :-0.1643779E-04  (-0.9786911E-05)
 number of electron      44.0000004 magnetization      -0.0000000
 augmentation part        1.1255279 magnetization      -0.0000000

 Free energy of the ion-electron system (eV)
  ---------------------------------------------------
  alpha Z        PSCENC =         0.12465185
  Ewald energy   TEWEN  =      4286.97723881
  -Hartree energ DENC   =     -5366.00583987
  -exchange      EXHF   =        96.93540197
  -V(xc)+E(xc)   XCENC  =       111.99997950
  PAW double counting   =      3374.32781981    -3378.28157173
  entropy T*S    EENTRO =        -0.00000000
  eigenvalues    EBANDS =      -576.93558737
  atomic energy  EATOM  =      1314.10807275
  ---------------------------------------------------
  free energy    TOTEN  =      -136.29217381 eV

  energy without entropy =     -136.29217381  energy(sigma->0) =     -136.29217381
  exchange ACFDT corr.  =         0.00000000  see jH, gK, PRB 81, 115126


--------------------------------------------------------------------------------------------------------




--------------------------------------- Iteration      1(  11)  ---------------------------------------


    --------------------------------------------
      INIT:  cpu time      0.7740: real time      0.7740
  FINALIZE:  cpu time     79.1522: real time     79.1570
    --------------------------------------------
    POTLOK:  cpu time     96.5566: real time     96.5624
    SETDIJ:  cpu time      0.0715: real time      0.0715
    TRIAL :  cpu time    138.0475: real time    138.0555
    CORREC:  cpu time      0.2696: real time      0.2696
    CHARGE:  cpu time      3.2439: real time      3.2441
    --------------------------------------------
      LOOP:  cpu time    238.2143: real time    238.2356

 eigenvalue-minimisations  :     0
 total energy-change (2. order) :-0.6013404E-05  (-0.4871734E-05)
 number of electron      44.0000004 magnetization      -0.0000000
 augmentation part        1.1255122 magnetization      -0.0000000

 Free energy of the ion-electron system (eV)
  ---------------------------------------------------
  alpha Z        PSCENC =         0.12465185
  Ewald energy   TEWEN  =      4286.97723881
  -Hartree energ DENC   =     -5366.00711027
  -exchange      EXHF   =        96.93548421
  -V(xc)+E(xc)   XCENC  =       112.00004820
  PAW double counting   =      3374.30011859    -3378.25388355
  entropy T*S    EENTRO =        -0.00000000
  eigenvalues    EBANDS =      -576.93393185
  atomic energy  EATOM  =      1314.10807275
  ---------------------------------------------------
  free energy    TOTEN  =      -136.29217982 eV

  energy without entropy =     -136.29217982  energy(sigma->0) =     -136.29217982
  exchange ACFDT corr.  =         0.00000000  see jH, gK, PRB 81, 115126


--------------------------------------------------------------------------------------------------------


  average scaling for gradient   1.5006


 average (electrostatic) potential at core
  the test charge radii are     0.6991  0.7089  0.5201
  (the norm of the test charge is              1.0000)
       1 -55.0461       2 -54.2823       3 -55.0504       4 -54.3205       5 -55.0726
       6 -54.2811       7 -67.7319       8 -37.3706       9 -37.3213      10 -37.3104
      11 -37.2928      12 -37.3235      13 -37.3288      14 -37.3822      15 -37.2674
      16 -37.0983      17 -37.3530      18 -37.3143      19 -37.2161      20 -37.3504
      21 -37.1294      22 -37.4059
 
 
 
 E-fermi :  -5.2768     XC(G=0):  -0.0255     alpha+bet : -0.0172

 Fermi energy:        -5.2768343979

 spin component 1

 k-point     1 :       0.0000    0.0000    0.0000
  band No.  band energies     occupation 
      1     -25.2215      1.00000
      2     -20.8086      1.00000
      3     -20.6720      1.00000
      4     -19.2857      1.00000
      5     -17.2921      1.00000
      6     -16.8264      1.00000
      7     -14.9427      1.00000
      8     -13.1639      1.00000
      9     -12.7834      1.00000
     10     -12.1973      1.00000
     11     -11.7857      1.00000
     12     -11.0881      1.00000
     13     -10.7237      1.00000
     14     -10.5107      1.00000
     15     -10.0775      1.00000
     16      -9.9142      1.00000
     17      -9.6819      1.00000
     18      -9.3610      1.00000
     19      -9.1147      1.00000
     20      -8.8600      1.00000
     21      -8.5877      1.00000
     22      -5.5681      1.00000
     23      -0.3460      0.00000
     24      -0.0628      0.00000
     25      -0.0253      0.00000
     26       0.0215      0.00000
     27       0.0271      0.00000
     28       0.1103      0.00000
     29       0.1109      0.00000
     30       0.1244      0.00000
     31       0.1254      0.00000
     32       0.1299      0.00000
     33       0.1423      0.00000
     34       0.2005      0.00000
     35       0.2021      0.00000
     36       0.2018      0.00000
     37       0.2031      0.00000
     38       0.2042      0.00000
     39       0.2056      0.00000
     40       0.2056      0.00000
     41       0.2056      0.00000
     42       0.2377      0.00000
     43       0.2372      0.00000
     44       0.2433      0.00000
     45       0.2647      0.00000
 Fermi energy:        -5.2768343979

 spin component 2

 k-point     1 :       0.0000    0.0000    0.0000
  band No.  band energies     occupation 
      1     -25.2215      1.00000
      2     -20.8086      1.00000
      3     -20.6720      1.00000
      4     -19.2857      1.00000
      5     -17.2921      1.00000
      6     -16.8264      1.00000
      7     -14.9427      1.00000
      8     -13.1639      1.00000
      9     -12.7834      1.00000
     10     -12.1973      1.00000
     11     -11.7857      1.00000
     12     -11.0881      1.00000
     13     -10.7237      1.00000
     14     -10.5107      1.00000
     15     -10.0775      1.00000
     16      -9.9142      1.00000
     17      -9.6819      1.00000
     18      -9.3610      1.00000
     19      -9.1147      1.00000
     20      -8.8600      1.00000
     21      -8.5877      1.00000
     22      -5.5681      1.00000
     23      -0.3460      0.00000
     24      -0.0628      0.00000
     25      -0.0253      0.00000
     26       0.0215      0.00000
     27       0.0271      0.00000
     28       0.1103      0.00000
     29       0.1109      0.00000
     30       0.1244      0.00000
     31       0.1254      0.00000
     32       0.1299      0.00000
     33       0.1423      0.00000
     34       0.2006      0.00000
     35       0.2021      0.00000
     36       0.2018      0.00000
     37       0.2031      0.00000
     38       0.2042      0.00000
     39       0.2056      0.00000
     40       0.2056      0.00000
     41       0.2056      0.00000
     42       0.2377      0.00000
     43       0.2372      0.00000
     44       0.2432      0.00000
     45       0.2641      0.00000


--------------------------------------------------------------------------------------------------------


 soft charge-density along one line, spin component           1
         0         1         2         3         4         5         6         7         8         9
 total charge-density along one line
 
 soft charge-density along one line, spin component           2
         0         1         2         3         4         5         6         7         8         9
 total charge-density along one line
 
 pseudopotential strength for first ion, spin component:           1
  9.980  13.271   0.000  -0.002   0.003  -0.001   0.005  -0.009
 13.271  17.645   0.000  -0.002   0.004  -0.001   0.006  -0.012
  0.000   0.000  -4.205   0.000  -0.001   8.204  -0.000   0.001
 -0.002  -0.002   0.000  -4.207   0.003  -0.000   8.207  -0.005
  0.003   0.004  -0.001   0.003  -4.213   0.001  -0.005   8.219
 -0.001  -0.001   8.204  -0.000   0.001 -18.120   0.000  -0.002
  0.005   0.006  -0.000   8.207  -0.005   0.000 -18.128   0.010
 -0.009  -0.012   0.001  -0.005   8.219  -0.002   0.010 -18.152
 pseudopotential strength for first ion, spin component:           2
  9.980  13.271   0.000  -0.002   0.003  -0.001   0.005  -0.009
 13.271  17.645   0.000  -0.002   0.004  -0.001   0.006  -0.012
  0.000   0.000  -4.205   0.000  -0.001   8.204  -0.000   0.001
 -0.002  -0.002   0.000  -4.207   0.003  -0.000   8.207  -0.005
  0.003   0.004  -0.001   0.003  -4.213   0.001  -0.005   8.219
 -0.001  -0.001   8.204  -0.000   0.001 -18.120   0.000  -0.002
  0.005   0.006  -0.000   8.207  -0.005   0.000 -18.128   0.010
 -0.009  -0.012   0.001  -0.005   8.219  -0.002   0.010 -18.152
 total augmentation occupancy for first ion, spin component:           1
  8.394  -3.796   0.000   0.070   0.053   0.003  -0.002   0.024
 -3.796   1.757  -0.005  -0.015  -0.072  -0.002   0.005  -0.019
  0.000  -0.005   1.659   0.004  -0.005   0.136  -0.000   0.002
  0.070  -0.015   0.004   1.580   0.028  -0.000   0.136  -0.001
  0.053  -0.072  -0.005   0.028   1.496   0.002  -0.001   0.147
  0.003  -0.002   0.136  -0.000   0.002   0.012  -0.000   0.000
 -0.002   0.005  -0.000   0.136  -0.001  -0.000   0.012  -0.001
  0.024  -0.019   0.002  -0.001   0.147   0.000  -0.001   0.016
 total augmentation occupancy for first ion, spin component:           2
 -0.000   0.000  -0.000  -0.000  -0.000   0.000  -0.000  -0.000
  0.000  -0.000   0.000   0.000   0.000  -0.000   0.000   0.000
 -0.000   0.000   0.000  -0.000   0.000  -0.000   0.000  -0.000
 -0.000   0.000  -0.000   0.000   0.000   0.000   0.000  -0.000
 -0.000   0.000   0.000   0.000   0.000   0.000   0.000   0.000
  0.000  -0.000  -0.000   0.000   0.000  -0.000   0.000  -0.000
 -0.000   0.000   0.000   0.000   0.000   0.000   0.000   0.000
 -0.000   0.000  -0.000  -0.000   0.000  -0.000   0.000   0.000


------------------------ aborting loop because EDIFF is reached ----------------------------------------


    FORLOC:  cpu time      0.3471: real time      0.3472
    FORHF :  cpu time     64.6950: real time     64.6989
    FORNL :  cpu time      3.9875: real time      3.9878
    STRESS:  cpu time     12.2183: real time     12.2190
    FORCOR:  cpu time     18.2967: real time     18.2977
    OFIELD:  cpu time      0.0208: real time      0.0208
 WARNING: Using user supplied parameters
     VDW_A1 = 0.383
     VDW_A2 = 5.685
     VDW_S8 = 2.31
     because the xc functional is not supported. Required parameters not
     defined in the INCAR file will be replaced with PBE defaults ones.


 ---------------------------------------------------------------------------------------------

         DFTD3 V3.0 Rev 1        
 IVDW         = 12
 DF unknown   
 parameters
 VDW_S6       =    1.0000
 VDW_S8       =    2.3100
 VDW_A1       =    0.3830
 VDW_A2       =    5.6850
 k1-k3        =   16.0000    1.3333   -4.0000
 VDW_RADIUS   =   50.2022 A
 VDW_CNRADIUS =   21.1671 A
 Edisp (eV)   -0.32256

 E6    (eV) :    -0.1776
 E8    (eV) :    -0.1450
 % E8        : 44.96
    FORVDW:  cpu time      0.0089: real time      0.0089

  FORCE on cell =-STRESS in cart. coord.  units (eV):
  Direction    XX          YY          ZZ          XY          YZ          ZX
  --------------------------------------------------------------------------------------
  Alpha Z     0.12465     0.12465     0.12465
  Ewald    1764.11457  1814.64201   708.21905   174.69560    -0.82632  -174.60499
  Hartree  2074.69381  2098.77527  1192.28820   146.84069    -2.84376  -114.95440
  E(xc)    -119.84543  -119.76233  -120.08130     0.04638     0.00992    -0.13801
  Local   -4229.34045 -4294.30531 -2292.36369  -322.31223     7.19723   276.92704
  n-local   -73.61422   -72.98228   -75.97765     0.43701    -0.15584    -1.34743
  augment     0.59194     0.33132     0.80416    -0.02060    -0.06962     0.37823
  Kinetic   623.27901   613.26706   627.28781     0.19395    -3.28056    13.80771
  Fock      -42.73321   -42.82212   -42.96109     0.04894    -0.06665     0.06110
  vdW        -0.14352    -0.14812    -0.03251    -0.01500    -0.00054     0.01212
  -------------------------------------------------------------------------------------
  Total      -2.87285    -2.87985    -2.69236    -0.08526    -0.03615     0.14135
  in kB      -0.07192    -0.07209    -0.06740    -0.00213    -0.00090     0.00354
  external pressure =       -0.07 kB  Pullay stress =        0.00 kB


 VOLUME and BASIS-vectors are now :
 -----------------------------------------------------------------------------
  energy-cutoff  :      500.00
  volume of cell :    64000.00
      direct lattice vectors                 reciprocal lattice vectors
    40.000000000  0.000000000  0.000000000     0.025000000  0.000000000  0.000000000
     0.000000000 40.000000000  0.000000000     0.000000000  0.025000000  0.000000000
     0.000000000  0.000000000 40.000000000     0.000000000  0.000000000  0.025000000

  length of vectors
    40.000000000 40.000000000 40.000000000     0.025000000  0.025000000  0.025000000


 FORCES acting on ions:
    Electron-Ion                     Ewald-Force                    Non-Local-Force
 -----------------------------------------------------------------------------------------------
   0.133E+03 0.913E+01 -.141E+03   -.135E+03 -.936E+01 0.142E+03   0.246E+01 0.227E+00 -.999E+00
   0.184E+03 -.293E+01 0.597E+02   -.183E+03 0.298E+01 -.592E+02   -.481E+00 -.450E-01 -.465E+00
   -.837E+02 0.960E+02 0.125E+03   0.844E+02 -.977E+02 -.127E+03   -.723E+00 0.177E+01 0.180E+01
   -.413E+02 0.188E+03 -.222E+02   0.414E+02 -.188E+03 0.225E+02   -.114E+00 -.271E+00 -.262E+00
   -.299E+00 -.173E+03 0.490E+02   0.666E+00 0.176E+03 -.500E+02   -.389E+00 -.230E+01 0.102E+01
   -.154E+03 -.112E+03 -.292E+00   0.153E+03 0.112E+03 0.706E+00   0.297E+00 0.237E+00 -.396E+00
   -.645E+02 -.596E+01 -.120E+03   0.775E+02 0.391E+01 0.139E+03   -.121E+02 0.189E+01 -.179E+02
   0.806E+02 0.513E+01 -.207E+02   -.854E+02 -.561E+01 0.230E+02   0.479E+01 0.477E+00 -.229E+01
   0.319E+02 0.477E+02 0.531E+02   -.315E+02 -.517E+02 -.566E+02   -.432E+00 0.399E+01 0.351E+01
   0.361E+02 -.560E+02 0.432E+02   -.361E+02 0.605E+02 -.460E+02   0.337E-01 -.456E+01 0.276E+01
   0.269E+02 0.575E+02 -.612E+02   -.272E+02 -.621E+02 0.640E+02   0.296E+00 0.462E+01 -.284E+01
   0.319E+02 -.481E+02 -.701E+02   -.328E+02 0.520E+02 0.738E+02   0.876E+00 -.388E+01 -.367E+01
   0.505E+02 0.586E+02 -.112E+02   -.554E+02 -.604E+02 0.120E+02   0.496E+01 0.183E+01 -.791E+00
   -.340E+02 0.662E+02 0.362E+02   0.364E+02 -.697E+02 -.394E+02   -.242E+01 0.351E+01 0.324E+01
   -.401E+02 0.336E+02 -.617E+02   0.426E+02 -.336E+02 0.664E+02   -.254E+01 0.393E-01 -.471E+01
   0.208E+02 0.174E+02 0.830E+02   -.234E+02 -.174E+02 -.873E+02   0.263E+01 -.130E-01 0.442E+01
   -.789E+02 0.719E+01 0.360E+02   0.841E+02 -.607E+01 -.373E+02   -.514E+01 -.113E+01 0.139E+01
   -.665E+02 0.132E+02 0.377E+02   0.697E+02 -.163E+02 -.407E+02   -.322E+01 0.303E+01 0.299E+01
   -.462E+02 -.164E+02 -.630E+02   0.478E+02 0.161E+02 0.681E+02   -.168E+01 0.380E+00 -.508E+01
   -.277E+02 -.742E+02 0.198E+02   0.283E+02 0.793E+02 -.215E+02   -.690E+00 -.503E+01 0.165E+01
   0.179E+02 -.363E+02 0.771E+02   -.195E+02 0.368E+02 -.819E+02   0.157E+01 -.518E+00 0.489E+01
   0.338E+02 -.755E+02 -.322E+02   -.367E+02 0.791E+02 0.351E+02   0.295E+01 -.355E+01 -.284E+01
 -----------------------------------------------------------------------------------------------
   0.997E+01 -.837E+00 0.160E+02   0.426E-13 -.426E-13 0.426E-13   -.903E+01 0.709E+00 -.146E+02
 
 
 POSITION                                       TOTAL-FORCE (eV/Angst)
 -----------------------------------------------------------------------------------
     18.78900     19.96936     20.87171         0.099239      0.014200     -0.050727
     17.67998     19.99916     19.80640         0.044073      0.006828      0.012565
     20.62238     19.07301     19.49267        -0.026984      0.100008      0.015832
     20.59036     17.67621     20.10643        -0.014022      0.029416      0.005381
     20.44335     21.46571     19.87173        -0.045085     -0.089528      0.013518
     21.91467     21.86780     19.97739        -0.025622     -0.033144     -0.003228
     20.17083     20.12752     20.40312        -0.146500      0.006731     -0.214802
     16.69660     19.90010     20.28837         0.228303      0.023467     -0.095923
     17.77840     19.17412     19.08616        -0.006185      0.182086      0.169302
     17.68085     20.94275     19.24146         0.014783     -0.211172      0.137841
     18.72709     19.02525     21.43395         0.012486      0.207029     -0.149252
     18.60976     20.77023     21.60627         0.031624     -0.171542     -0.182347
     19.56608     17.31147     20.26736         0.223577      0.104322     -0.030209
     21.08796     16.96276     19.43514        -0.103077      0.161920      0.141705
     21.11463     17.66670     21.07279        -0.120010      0.005753     -0.222679
     20.04551     19.07413     18.53923         0.136090      0.007470      0.258769
     21.66021     19.30884     19.21576        -0.239500     -0.061746      0.067310
     22.56738     21.23542     19.35932        -0.164580      0.131224      0.141237
     22.25741     21.79600     21.01908        -0.084439      0.019406     -0.240317
     22.04696     22.90418     19.63482        -0.035890     -0.225843      0.080484
     20.10948     21.57061     18.81461         0.081192     -0.045804      0.271423
     19.84117     22.17868     20.45623         0.140526     -0.161081     -0.125885
 -----------------------------------------------------------------------------------
    total drift:                                0.012380     -0.012670      0.009436


--------------------------------------------------------------------------------------------------------



  FREE ENERGIE OF THE ION-ELECTRON SYSTEM (eV)
  ---------------------------------------------------
  free  energy   TOTEN  =      -136.61473897 eV

  energy  without entropy=     -136.61473897  energy(sigma->0) =     -136.61473897
 


--------------------------------------------------------------------------------------------------------


    --------------------------------------------
      INIT:  cpu time      0.7647: real time      0.7647
  FINALIZE:  cpu time     68.4710: real time     68.4746
    --------------------------------------------
    POTLOK:  cpu time     89.8101: real time     89.8148


--------------------------------------------------------------------------------------------------------


 writing wavefunctions
     LOOP+:  cpu time   2766.0680: real time   2767.5191
    4ORBIT:  cpu time      0.0000: real time      0.0000

 total amount of memory used by VASP MPI-rank0  2653662. kBytes
=======================================================================

   base      :      30000. kBytes
   nonlr-proj:       4182. kBytes
   fftplans  :     224335. kBytes
   grid      :     421299. kBytes
   one-center:         18. kBytes
   HF        :          9. kBytes
   wavefun   :      77997. kBytes
   fock_wrk  :    1895822. kBytes
 
  
  
 General timing and accounting informations for this job:
 ========================================================
  
                  Total CPU time used (sec):     2821.452
                            User time (sec):     1636.138
                          System time (sec):     1185.314
                         Elapsed time (sec):     2823.891
  
                   Maximum memory used (kb):     4140820.
                   Average memory used (kb):          N/A
  
                          Minor page faults:     26996447
                          Major page faults:            0
                 Voluntary context switches:         6996
