
                                 *****************
                                 * O   R   C   A *
                                 *****************

                                            #,                                       
                                            ###                                      
                                            ####                                     
                                            #####                                    
                                            ######                                   
                                           ########,                                 
                                     ,,################,,,,,                         
                               ,,#################################,,                 
                          ,,##########################################,,             
                       ,#########################################, ''#####,          
                    ,#############################################,,   '####,        
                  ,##################################################,,,,####,       
                ,###########''''           ''''###############################       
              ,#####''   ,,,,##########,,,,          '''####'''          '####       
            ,##' ,,,,###########################,,,                        '##       
           ' ,,###''''                  '''############,,,                           
         ,,##''                                '''############,,,,        ,,,,,,###''
      ,#''                                            '''#######################'''  
     '                                                          ''''####''''         
             ,#######,   #######,   ,#######,      ##                                
            ,#'     '#,  ##    ##  ,#'     '#,    #''#        ,####,   ,####,        
            ##       ##  ##   ,#'  ##            #'  '#       #'       #'  '#        
            ##       ##  #######   ##           ,######,      #####,   #    #        
            '#,     ,#'  ##    ##  '#,     ,#' ,#      #,     #,   #   #,  ,#        
             '#######'   ##     ##  '#######'  #'      '#     '####' # '####'        



                #########################################################
                #                        -***-                          #
                #          Department of theory and spectroscopy        #
                #                                                       #
                #                      Frank Neese                      #
                #                                                       #
                #     Directorship, Architecture, Infrastructure        #
                #                    SHARK, DRIVERS                     #
                #        Core code/Algorithms in most modules           #
                #                                                       #
                #        Max Planck Institute fuer Kohlenforschung      #
                #                Kaiser Wilhelm Platz 1                 #
                #                 D-45470 Muelheim/Ruhr                 #
                #                      Germany                          #
                #                                                       #
                #                  All rights reserved                  #
                #                        -***-                          #
                #########################################################


                         Program Version 6.0.0  -   RELEASE  -


 With contributions from (in alphabetic order):
   Daniel Aravena         : Magnetic Suceptibility
   Michael Atanasov       : Ab Initio Ligand Field Theory (pilot matlab implementation)
   Alexander A. Auer      : GIAO ZORA, VPT2 properties, NMR spectrum
   Ute Becker             : All parallelization in ORCA, NUMFREQ, NUMCALC
   Giovanni Bistoni       : ED, misc. LED, open-shell LED, HFLD
   Martin Brehm           : Molecular dynamics
   Dmytro Bykov           : pre 5.0 version of the SCF Hessian
   Marcos Casanova-Páez   : Triplet and SCS-CIS(D). UHF-(DLPNO)-IP/EA/STEOM-CCSD. UHF-CVS-IP/STEOM-CCSD
   Vijay G. Chilkuri      : MRCI spin determinant printing, contributions to CSF-ICE
   Pauline Colinet        : FMM embedding
   Dipayan Datta          : RHF DLPNO-CCSD density
   Achintya Kumar Dutta   : EOM-CC, STEOM-CC
   Nicolas Foglia         : Exact transition moments, OPA infrastructure, MCD improvements
   Dmitry Ganyushin       : Spin-Orbit,Spin-Spin,Magnetic field MRCI
   Miquel Garcia          : C-PCM and meta-GGA Hessian, CCSD/C-PCM, Gaussian charge scheme
   Tiago L. C. Gouveia    : GS-ROHF, GS-ROCIS
   Yang Guo               : DLPNO-NEVPT2, F12-NEVPT2, CIM, IAO-localization
   Andreas Hansen         : Spin unrestricted coupled pair/coupled cluster methods
   Ingolf Harden          : AUTO-CI MPn and infrastructure 
   Benjamin Helmich-Paris : MC-RPA, TRAH-(SCF,CASSCF), AVAS, COSX integrals, SCF dyn. polar.
   Lee Huntington         : MR-EOM, pCC
   Robert Izsak           : Overlap fitted RIJCOSX, COSX-SCS-MP3, EOM
   Riya Kayal             : Wick's Theorem for AUTO-CI, AUTO-CI UHF-CCSDT
   Emily Kempfer          : AUTO-CI, RHF CISDT and CCSDT
   Christian Kollmar      : KDIIS, OOCD, Brueckner-CCSD(T), CCSD density, CASPT2, CASPT2-K, improved NEVPT2
   Axel Koslowski         : Symmetry handling
   Simone Kossmann        : Meta GGA functionals, TD-DFT gradient, OOMP2, (MP2 Hessian; deprecated post 5.0)
   Lucas Lang             : DCDCAS
   Marvin Lechner         : AUTO-CI (C++ implementation), FIC-MRCC
   Spencer Leger          : CASSCF response
   Dagmar Lenk            : GEPOL surface, SMD, ORCA-2-JSON
   Dimitrios Liakos       : Extrapolation schemes; Compound Job, initial MDCI parallelization
   Dimitrios Manganas     : Further ROCIS development; embedding schemes. LFT, Crystal Embedding
   Dimitrios Pantazis     : SARC Basis sets
   Anastasios Papadopoulos: AUTO-CI, single reference methods and gradients
   Taras Petrenko         : pre 6.0 DFT Hessian and TD-DFT gradient, (ASA, deprecated), ECA, 1-Electron XAS/XES, NRVS
   Peter Pinski           : DLPNO-MP2, DLPNO-MP2 Gradient
   Christoph Reimann      : Effective Core Potentials
   Marius Retegan         : Local ZFS, SOC
   Christoph Riplinger    : Optimizer, TS searches, QM/MM, DLPNO-CCSD(T), (RO)-DLPNO pert. Triples
   Michael Roemelt        : Original ROCIS implementation
   Masaaki Saitow         : Open-shell DLPNO-CCSD energy and density
   Barbara Sandhoefer     : DKH picture change effects
   Kantharuban Sivalingam : CASSCF convergence/infrastructure, NEVPT2 and variants, FIC-MRCI
   Bernardo de Souza      : ESD, SOC TD-DFT
   Georgi Stoychev        : AutoAux, RI-MP2 NMR, DLPNO-MP2 response, X2C
   Van Anh Tran           : RI-MP2 g-tensors
   Willem Van den Heuvel  : Paramagnetic NMR
   Zikuan Wang            : NOTCH, Electric field optimization 
   Frank Wennmohs         : Technical directorship and infrastructure
   Hang Xu                : AUTO-CI-Response properties 


 We gratefully acknowledge several colleagues who have allowed us to
 interface, adapt or use parts of their codes:
   Stefan Grimme, W. Hujo, H. Kruse, P. Pracht,  : VdW corrections, initial TS optimization,
                  C. Bannwarth, S. Ehlert,         DFT functionals, gCP, sTDA/sTD-DF
                  L. Wittmann, M. Mueller
   Ed Valeev, F. Pavosevic, A. Kumar             : LibInt (2-el integral package), F12 methods
   Garnet Chan, S. Sharma, J. Yang, R. Olivares  : DMRG
   Ulf Ekstrom                                   : XCFun DFT Library
   Mihaly Kallay                                 : mrcc  (arbitrary order and MRCC methods)
   Frank Weinhold                                : gennbo (NPA and NBO analysis)
   Simon Mueller                                 : openCOSMO-RS
   Christopher J. Cramer and Donald G. Truhlar   : smd solvation model
   Lars Goerigk                                  : TD-DFT with DH, B97 family of functionals
   V. Asgeirsson, H. Jonsson                     : NEB implementation
   FAccTs GmbH                                   : IRC, NEB, NEB-TS, DLPNO-Multilevel, CI-OPT
                                                   MM, QMMM, 2- and 3-layer-ONIOM, Crystal-QMMM,
                                                   LR-CPCM, SF, NACMEs, symmetry and pop. for TD-DFT,
                                                   nearIR, NL-DFT gradient (VV10), updates on ESD,
                                                   ML-optimized integration grids, MBIS, APM,
                                                   GOAT, DOCKER, SOLVATOR, interface openCOSMO-RS
   S Lehtola, MJT Oliveira, MAL Marques          : LibXC Library
   Liviu Ungur et al                             : ANISO software


 Your calculation uses the libint2 library for the computation of 2-el integrals
 For citations please refer to: http://libint.valeyev.net

 Your ORCA version has been built with support for libXC version: 6.2.2
 For citations please refer to: https://libxc.gitlab.io

 This ORCA versions uses:
   CBLAS   interface :  Fast vector & matrix operations
   LAPACKE interface :  Fast linear algebra routines
   SCALAPACK package :  Parallel linear algebra routines
   Shared memory     :  Shared parallel matrices
   BLAS/LAPACK       :  OpenBLAS 0.3.27  USE64BITINT DYNAMIC_ARCH NO_AFFINITY Sandybridge SINGLE_THREADED
        Core in use  :  Sandybridge
   Copyright (c) 2011-2014, The OpenBLAS Project


NOTE: MaxCore=3000 MB was set to SCF,MP2,MDCI,CIPSI,MRCI and CIS
      => If you want to overwrite this, your respective input block should be placed after the MaxCore statement
Your calculation utilizes the atom-pairwise dispersion correction
with the Becke-Johnson damping scheme (D3BJ)


Your calculation utilizes the SMD solvation module
Please cite in your paper:
A.V. Marenich, C.J. Cramer, D.G. Truhlar J. Phys. Chem. B, 113, (2009), 6378 

Warning: RI is on but no J-basis has been assigned. Assigning Def2/J (nothing to worry about!)
================================================================================

----- Orbital basis set information -----
Your calculation utilizes the basis: aug-cc-pVTZ 
    H, B-Ne : Obtained from the ccRepo (grant-hill.group.shef.ac.uk/ccrepo) Feb. 2017
              R. A. Kendall, T. H. Dunning, Jr., R. J. Harrison, J. Chem. Phys. 96, 6796 (1992)
         He : Obtained from the ccRepo (grant-hill.group.shef.ac.uk/ccrepo) Feb. 2017
              D. E. Woon, T. H. Dunning, Jr., J. Chem. Phys. 100, 2975 (1994)
  Li-Be, Na : Obtained from the ccRepo (grant-hill.group.shef.ac.uk/ccrepo) Feb. 2017
              B. P. Prascher, D. E. Woon, K. A. Peterson, T. H. Dunning, Jr., A. K. Wilson, Theor. Chem. Acc. 128, 69 (2011)
         Mg : Obtained from the Peterson Research Group Website (tyr0.chem.wsu.edu/~kipeters) Feb. 2017
              B. P. Prascher, D. E. Woon, K. A. Peterson, T. H. Dunning, Jr., A. K. Wilson, Theor. Chem. Acc. 128, 69 (2011)
      Al-Ar : Obtained from the ccRepo (grant-hill.group.shef.ac.uk/ccrepo) Feb. 2017
              D. E. Woon, T. H. Dunning, Jr., J. Chem. Phys. 98, 1358 (1993)
      Sc-Zn : Obtained from the ccRepo (grant-hill.group.shef.ac.uk/ccrepo) Feb. 2017
              N. B. Balabanov, K. A. Peterson, J. Chem. Phys. 123, 064107 (2005)
              N. B. Balabanov, K. A. Peterson, J. Chem. Phys. 125, 074110 (2006)
      Ga-Kr : Obtained from the ccRepo (grant-hill.group.shef.ac.uk/ccrepo) Feb. 2017
              A. K. Wilson, D. E. Woon, K. A. Peterson, T. H. Dunning, Jr., J. Chem. Phys. 110, 7667 (1999)
     Ag, Au : Obtained from the Peterson Research Group Website (tyr0.chem.wsu.edu/~kipeters) Feb. 2017
              K. A. Peterson, C. Puzzarini, Theor. Chem. Acc. 114, 283 (2005)

----- AuxJ basis set information -----
Your calculation utilizes the auxiliary basis: def2/J
   F. Weigend, Phys. Chem. Chem. Phys. 8, 1057 (2006).

================================================================================
                                        WARNINGS
                       Please study these warnings very carefully!
================================================================================


WARNING: your system is open-shell and RHF/RKS was chosen
  ===> : WILL SWITCH to UHF/UKS


================================================================================
                                       INPUT FILE
================================================================================
NAME = cs_rporg_008_ox_solv_01.inp
|  1> !TPSSh aug-cc-pVTZ d3 TightSCF SlowConv RIJCOSX defgrid2
|  2>  
|  3> %pal
|  4> nprocs 4
|  5> end
|  6>  
|  7> %scf
|  8> MaxIter 1500
|  9> end
| 10>  
| 11> %maxcore 3000
| 12>  
| 13> !CPCM
| 14> %cpcm smd true
| 15> SMDsolvent "MeCN"
| 16> surfacetype gepol_ses
| 17> rsolv 2.19
| 18> end 
| 19>  
| 20> * xyz 1 2
| 21> C           1.84281234672153     -0.00006597869847      0.01285546623039
| 22> C           1.14355368564506     -1.23902490190253      0.00158488089103
| 23> C          -0.22635786234437     -1.24013111711704     -0.01699413586169
| 24> C          -0.95506719113591     -0.00029607647166     -0.02822657050256
| 25> C          -2.42493771335276     -0.00015694603531     -0.01540251479795
| 26> H          -2.85288988584861      0.90688759110700     -0.47308067341050
| 27> H          -2.85357110348468     -0.91037144459146     -0.46576655952987
| 28> H          -2.75683389603493      0.00504463864823      1.05046901822320
| 29> C          -0.22649470626097      1.23969602067318     -0.01458794729593
| 30> C           1.14339815090709      1.23878434923716      0.00398375524291
| 31> H           1.70466297579754      2.17704577622432      0.01138483317017
| 32> H          -0.78522490872320      2.18007136225477     -0.02327385957075
| 33> H          -0.78496408789097     -2.18055191214167     -0.02751919353185
| 34> H           1.70496196149810     -2.17721430622763      0.00716529435102
| 35> H           2.93762583450709      0.00000044504112      0.02964230639238
| 36> *
| 37> 
| 38>                          ****END OF INPUT****
================================================================================

                       ****************************
                       * Single Point Calculation *
                       ****************************

---------------------------------
CARTESIAN COORDINATES (ANGSTROEM)
---------------------------------
  C      1.842812   -0.000066    0.012855
  C      1.143554   -1.239025    0.001585
  C     -0.226358   -1.240131   -0.016994
  C     -0.955067   -0.000296   -0.028227
  C     -2.424938   -0.000157   -0.015403
  H     -2.852890    0.906888   -0.473081
  H     -2.853571   -0.910371   -0.465767
  H     -2.756834    0.005045    1.050469
  C     -0.226495    1.239696   -0.014588
  C      1.143398    1.238784    0.003984
  H      1.704663    2.177046    0.011385
  H     -0.785225    2.180071   -0.023274
  H     -0.784964   -2.180552   -0.027519
  H      1.704962   -2.177214    0.007165
  H      2.937626    0.000000    0.029642

----------------------------
CARTESIAN COORDINATES (A.U.)
----------------------------
  NO LB      ZA    FRAG     MASS         X           Y           Z
   0 C     6.0000    0    12.011    3.482411   -0.000125    0.024293
   1 C     6.0000    0    12.011    2.161003   -2.341418    0.002995
   2 C     6.0000    0    12.011   -0.427754   -2.343508   -0.032114
   3 C     6.0000    0    12.011   -1.804815   -0.000560   -0.053340
   4 C     6.0000    0    12.011   -4.582468   -0.000297   -0.029107
   5 H     1.0000    0     1.008   -5.391181    1.713769   -0.893993
   6 H     1.0000    0     1.008   -5.392468   -1.720353   -0.880171
   7 H     1.0000    0     1.008   -5.209661    0.009533    1.985099
   8 C     6.0000    0    12.011   -0.428013    2.342686   -0.027567
   9 C     6.0000    0    12.011    2.160709    2.340963    0.007528
  10 H     1.0000    0     1.008    3.221346    4.114020    0.021514
  11 H     1.0000    0     1.008   -1.483860    4.119738   -0.043981
  12 H     1.0000    0     1.008   -1.483367   -4.120646   -0.052004
  13 H     1.0000    0     1.008    3.221911   -4.114339    0.013540
  14 H     1.0000    0     1.008    5.551308    0.000001    0.056016

--------------------------------
INTERNAL COORDINATES (ANGSTROEM)
--------------------------------
 C      0   0   0     0.000000000000     0.00000000     0.00000000
 C      1   0   0     1.422711817119     0.00000000     0.00000000
 C      2   1   0     1.370037974981   119.48938289     0.00000000
 C      3   2   1     1.438170498052   120.40140836     0.14500440
 C      4   3   2     1.469926470217   120.44334118   181.48118186
 H      5   4   3     1.102425576252   112.62093391   206.14965660
 H      5   4   3     1.102290700907   112.65612557   332.67454637
 H      5   4   3     1.116362063789   107.79549188    89.46579704
 C      4   3   2     1.438257375695   119.11109408   359.76720359
 C      9   4   3     1.370019043444   120.40269378     0.23304682
 H     10   9   4     1.093346918862   120.85178639   179.81358971
 H      9   4   3     1.093874155134   118.83883285   179.99619756
 H      3   2   1     1.093866062995   120.76039707   179.90292782
 H      2   1   3     1.093347955410   119.65973399   179.95905748
 H      1   2   3     1.094942179045   119.44669179   179.88343874

---------------------------
INTERNAL COORDINATES (A.U.)
---------------------------
 C      0   0   0     0.000000000000     0.00000000     0.00000000
 C      1   0   0     2.688535701849     0.00000000     0.00000000
 C      2   1   0     2.588996565786   119.48938289     0.00000000
 C      3   2   1     2.717748375204   120.40140836     0.14500440
 C      4   3   2     2.777758465711   120.44334118   181.48118186
 H      5   4   3     2.083282422147   112.62093391   206.14965660
 H      5   4   3     2.083027544682   112.65612557   332.67454637
 H      5   4   3     2.109618566860   107.79549188    89.46579704
 C      4   3   2     2.717912550156   119.11109408   359.76720359
 C      9   4   3     2.588960790367   120.40269378     0.23304682
 H     10   9   4     2.066126246016   120.85178639   179.81358971
 H      9   4   3     2.067122578178   118.83883285   179.99619756
 H      3   2   1     2.067107286252   120.76039707   179.90292782
 H      2   1   3     2.066128204807   119.65973399   179.95905748
 H      1   2   3     2.069140850874   119.44669179   179.88343874

---------------------
BASIS SET INFORMATION
---------------------
There are 2 groups of distinct atoms

 Group   1 Type C   : 19s6p3d2f contracted to 5s4p3d2f pattern {88111/3111/111/11}
 Group   2 Type H   : 6s3p2d contracted to 4s3p2d pattern {3111/111/11}

Atom   0C    basis set group =>   1
Atom   1C    basis set group =>   1
Atom   2C    basis set group =>   1
Atom   3C    basis set group =>   1
Atom   4C    basis set group =>   1
Atom   5H    basis set group =>   2
Atom   6H    basis set group =>   2
Atom   7H    basis set group =>   2
Atom   8C    basis set group =>   1
Atom   9C    basis set group =>   1
Atom  10H    basis set group =>   2
Atom  11H    basis set group =>   2
Atom  12H    basis set group =>   2
Atom  13H    basis set group =>   2
Atom  14H    basis set group =>   2
---------------------------------
AUXILIARY/J BASIS SET INFORMATION
---------------------------------
There are 2 groups of distinct atoms

 Group   1 Type C   : 12s5p4d2f1g contracted to 6s4p3d1f1g pattern {711111/2111/211/2/1}
 Group   2 Type H   : 5s2p1d contracted to 3s1p1d pattern {311/2/1}

Atom   0C    basis set group =>   1
Atom   1C    basis set group =>   1
Atom   2C    basis set group =>   1
Atom   3C    basis set group =>   1
Atom   4C    basis set group =>   1
Atom   5H    basis set group =>   2
Atom   6H    basis set group =>   2
Atom   7H    basis set group =>   2
Atom   8C    basis set group =>   1
Atom   9C    basis set group =>   1
Atom  10H    basis set group =>   2
Atom  11H    basis set group =>   2
Atom  12H    basis set group =>   2
Atom  13H    basis set group =>   2
Atom  14H    basis set group =>   2


           ************************************************************
           *        Program running with 4 parallel MPI-processes     *
           *              working on a common directory               *
           ************************************************************
------------------------------------------------------------------------------
                             ORCA STARTUP CALCULATIONS
                           -- RI-GTO INTEGRALS CHOSEN --
------------------------------------------------------------------------------
------------------------------------------------------------------------------
                   ___                                                        
                  /   \      - P O W E R E D   B Y -                         
                 /     \                                                     
                 |  |  |   _    _      __       _____    __    __             
                 |  |  |  | |  | |    /  \     |  _  \  |  |  /  |          
                  \  \/   | |  | |   /    \    | | | |  |  | /  /          
                 / \  \   | |__| |  /  /\  \   | |_| |  |  |/  /          
                |  |  |   |  __  | /  /__\  \  |    /   |      \           
                |  |  |   | |  | | |   __   |  |    \   |  |\   \          
                \     /   | |  | | |  |  |  |  | |\  \  |  | \   \       
                 \___/    |_|  |_| |__|  |__|  |_| \__\ |__|  \__/        
                                                                              
                      - O R C A' S   B I G   F R I E N D -                    
                                      &                                       
                       - I N T E G R A L  F E E D E R -                       
                                                                              
 v1 FN, 2020, v2 2021, v3 2022-2024                                           
------------------------------------------------------------------------------


----------------------
SHARK INTEGRAL PACKAGE
----------------------

Number of atoms                             ...     15
Number of basis functions                   ...    548
Number of shells                            ...    212
Maximum angular momentum                    ...      3
Integral batch strategy                     ... SHARK/LIBINT Hybrid
RI-J (if used) integral strategy            ... SPLIT-RIJ (Revised 2003 algorithm where possible)
Printlevel                                  ...      1
Contraction scheme used                     ... PARTIAL GENERAL contraction
Prescreening option                         ... SCHWARTZ
   Thresh                                   ... 2.500e-11
   Tcut                                     ... 2.500e-12
   Tpresel                                  ... 2.500e-12 
Coulomb Range Separation                    ... NOT USED
Exchange Range Separation                   ... NOT USED
Multipole approximations                    ... NOT USED
Finite Nucleus Model                        ... NOT USED
CABS basis                                  ... NOT available
Auxiliary Coulomb fitting basis             ... AVAILABLE
   # of basis functions in Aux-J            ...    431
   # of shells in Aux-J                     ...    145
   Maximum angular momentum in Aux-J        ...      4
Auxiliary J/K fitting basis                 ... NOT available
Auxiliary Correlation fitting basis         ... NOT available
Auxiliary 'external' fitting basis          ... NOT available

Checking pre-screening integrals            ... done (  0.0 sec) Dimension = 212
Save PGC pre-screening integrals            ... done (  0.0 sec) Dimension = 212
Calculate PGC overlap integrals             ... done (  0.1 sec) Dimension = 170
Calculating pre-screening integrals (ORCA)  ... done (  0.2 sec) Dimension = 170
Check shell pair data                       ... done (  0.0 sec)
Shell pair information
Shell pair cut-off parameter TPreSel        ...   2.5e-12
Total number of shell pairs                 ...     22578
Shell pairs after pre-screening             ...     20202
Total number of primitive shell pairs       ...     29448
Primitive shell pairs kept                  ...     24635
          la=0 lb=0:   4656 shell pairs
          la=1 lb=0:   5184 shell pairs
          la=1 lb=1:   1330 shell pairs
          la=2 lb=0:   3679 shell pairs
          la=2 lb=1:   1857 shell pairs
          la=2 lb=2:    677 shell pairs
          la=3 lb=0:   1480 shell pairs
          la=3 lb=1:    720 shell pairs
          la=3 lb=2:    514 shell pairs
          la=3 lb=3:    105 shell pairs

Calculating one electron integrals          ... done (  0.1 sec)
Calculating RI/J V-Matrix + Cholesky decomp.... done (  0.0 sec)
Calculating Nuclear repulsion               ... done (  0.0 sec) ENN=    267.712162547234 Eh

Diagonalization of the overlap matrix:
Smallest eigenvalue                        ... 6.675e-07
Time for diagonalization                   ...    0.063 sec
Threshold for overlap eigenvalues          ... 1.000e-07
Number of eigenvalues below threshold      ... 0

IMPORTANT:
Smallest eigenvalue of S below the DiffSThresh (1.000e-06) while
Thresh>1e-12 and/or TCut>1e-13! In order to avoid SCF convergence issues,
Thresh will be set to at least 1e-12 and TCut to at least 1e-13.
This can be turned off by adding %SCF DiffSThresh -1 END to the input.

Time for construction of square roots      ...    0.048 sec
Total time needed                          ...    0.135 sec

-------------------
DFT GRID GENERATION
-------------------

General Integration Accuracy     IntAcc      ... 4.388
Radial Grid Type                 RadialGrid  ... OptM3 with GC (2021)
Angular Grid (max. ang.)         AngularGrid ... 4 (Lebedev-302)
Angular grid pruning method      GridPruning ... 4 (adaptive)
Weight generation scheme         WeightScheme... mBecke (2022)
Basis function cutoff            BFCut       ... 1.0000e-11
Integration weight cutoff        WCut        ... 1.0000e-14
Partially contracted basis set               ... off
Rotationally invariant grid construction     ... off
Angular grids for H and He will be reduced by one unit
Diffuse basis detected: some atoms will have their outermost
                        angular grid increased by 1.

Total number of grid points                  ...    71244
Total number of batches                      ...     1119
Average number of points per batch           ...       63
Average number of grid points per atom       ...     4750

---------------------
SHARK GRID GENERATION
---------------------

General Integration Accuracy     IntAcc      ... 4.388
Radial Grid Type                 RadialGrid  ... OptM3 with GC (2021)
Angular Grid (max. ang.)         AngularGrid ... 4 (Lebedev-302)
Angular grid pruning method      GridPruning ... 4 (adaptive)
Weight generation scheme         WeightScheme... mBecke (2022)
Basis function cutoff            BFCut       ... 1.0000e-11
Integration weight cutoff        WCut        ... 1.0000e-14
Partially contracted basis set               ... off
Rotationally invariant grid construction     ... off
Angular grids for H and He will be reduced by one unit
Diffuse basis detected: some atoms will have their outermost
                        angular grid increased by 1.
Steep s-basis detected: some atoms will have their radial
                        grid points doubled.

Total number of grid points                  ...   115427
Total number of batches                      ...     1809
Average number of points per batch           ...       63
Average number of grid points per atom       ...     7695

--------------------
COSX GRID GENERATION
--------------------

GRIDX 1
-------
General Integration Accuracy     IntAcc      ... 3.816
Radial Grid Type                 RadialGrid  ... OptM3 with GC (2021)
Angular Grid (max. ang.)         AngularGrid ... 1 (Lebedev-50)
Angular grid pruning method      GridPruning ... 4 (adaptive)
Weight generation scheme         WeightScheme... mBecke (2022)
Basis function cutoff            BFCut       ... 1.0000e-11
Integration weight cutoff        WCut        ... 1.0000e-14
Partially contracted basis set               ... on
Rotationally invariant grid construction     ... off
Angular grids for H and He will be reduced by one unit
Diffuse basis detected: some atoms will have their outermost
                        angular grid increased by 1.

Total number of grid points                  ...     8953
Total number of batches                      ...       76
Average number of points per batch           ...      117
Average number of grid points per atom       ...      597
UseSFitting                                  ... on

GRIDX 2
-------
General Integration Accuracy     IntAcc      ... 4.020
Radial Grid Type                 RadialGrid  ... OptM3 with GC (2021)
Angular Grid (max. ang.)         AngularGrid ... 2 (Lebedev-110)
Angular grid pruning method      GridPruning ... 4 (adaptive)
Weight generation scheme         WeightScheme... mBecke (2022)
Basis function cutoff            BFCut       ... 1.0000e-11
Integration weight cutoff        WCut        ... 1.0000e-14
Partially contracted basis set               ... on
Rotationally invariant grid construction     ... off
Angular grids for H and He will be reduced by one unit
Diffuse basis detected: some atoms will have their outermost
                        angular grid increased by 1.

Total number of grid points                  ...    21490
Total number of batches                      ...      174
Average number of points per batch           ...      123
Average number of grid points per atom       ...     1433
UseSFitting                                  ... on

GRIDX 3
-------
General Integration Accuracy     IntAcc      ... 4.338
Radial Grid Type                 RadialGrid  ... OptM3 with GC (2021)
Angular Grid (max. ang.)         AngularGrid ... 3 (Lebedev-194)
Angular grid pruning method      GridPruning ... 4 (adaptive)
Weight generation scheme         WeightScheme... mBecke (2022)
Basis function cutoff            BFCut       ... 1.0000e-11
Integration weight cutoff        WCut        ... 1.0000e-14
Partially contracted basis set               ... on
Rotationally invariant grid construction     ... off
Angular grids for H and He will be reduced by one unit
Diffuse basis detected: some atoms will have their outermost
                        angular grid increased by 1.

Total number of grid points                  ...    48167
Total number of batches                      ...      386
Average number of points per batch           ...      124
Average number of grid points per atom       ...     3211
UseSFitting                                  ... on
Initializing property integral containers    ... done (  0.0 sec)

SHARK setup successfully completed in   7.0 seconds

Maximum memory used throughout the entire STARTUP-calculation: 54.7 MB


           ************************************************************
           *        Program running with 4 parallel MPI-processes     *
           *              working on a common directory               *
           ************************************************************
-------------------------------------------------------------------------------
                                 ORCA GUESS
                   Start orbitals & Density for SCF / CASSCF
-------------------------------------------------------------------------------

------------
SCF SETTINGS
------------
Hamiltonian:
 Density Functional     Method          .... DFT(GTOs)
 Exchange Functional    Exchange        .... TPSS
 Correlation Functional Correlation     .... TPSS
 LDA part of GGA corr.  LDAOpt          .... PW91-LDA
 Gradients option       PostSCFGGA      .... off
 Hybrid DFT is turned on
   Fraction HF Exchange ScalHFX         ....  0.100000
   Scaling of DF-GGA-X  ScalDFX         ....  0.900000
   Scaling of DF-GGA-C  ScalDFC         ....  1.000000
   Scaling of DF-LDA-C  ScalLDAC        ....  1.000000
   Perturbative correction              ....  0.000000
   NL short-range parameter             ....  5.200000
 RI-approximation to the Coulomb term is turned on
   Number of AuxJ basis functions       .... 431
   RIJ-COSX (HFX calculated with COS-X)).... on


General Settings:
 Integral files         IntName         .... cs_rporg_008_ox_solv_01
 Hartree-Fock type      HFTyp           .... UHF
 Total Charge           Charge          ....    1
 Multiplicity           Mult            ....    2
 Number of Electrons    NEL             ....   49
 Basis Dimension        Dim             ....  506
 Nuclear Repulsion      ENuc            ....    267.7121625472 Eh

Convergence Acceleration:
 AO-DIIS                CNVDIIS         .... on
   Start iteration      DIISMaxIt       ....     0
   Startup error        DIISStart       ....  0.200000
   # of expansion vecs  DIISMaxEq       ....     5
   Bias factor          DIISBfac        ....   1.050
   Max. coefficient     DIISMaxC        ....  10.000
 MO-DIIS                CNVKDIIS        .... off
 Trust-Rad. Augm. Hess. CNVTRAH         .... auto
   Auto Start mean grad. ratio tolernc. ....  1.125000
   Auto Start start iteration           ....    50
   Auto Start num. interpolation iter.  ....    10
   Max. Number of Micro iterations      ....    24
   Max. Number of Macro iterations      .... Maxiter - #DIIS iter
   Number of Davidson start vectors     ....     2
   Converg. threshold    (grad. norm)   ....   1.000e-05
   Grad. Scal. Fac. for Micro threshold ....   0.100
   Minimum threshold for Micro iter.    ....   1.000e-02
   NR start threshold (gradient norm)   ....   1.000e-04
   Initial trust radius                 ....   0.400
   Minimum AH scaling param. (alpha)    ....   1.000
   Maximum AH scaling param. (alpha)    .... 1000.000
   Quad. conv. algorithm                .... NR
   White noise on init. David. guess    .... on
   Maximum white noise                  ....   0.010
   Pseudo random numbers                .... off
   Inactive MOs                         .... canonical
   Orbital update algorithm             .... Taylor
   Preconditioner                       .... Diag
   Full preconditioner red. dimension   ....   250
 SOSCF                  CNVSOSCF        .... on
   Start iteration      SOSCFMaxIt      ....   150
   Startup grad/error   SOSCFStart      ....  0.001000
   Hessian update       SOSCFHessUp     .... L-BFGS
 Level Shifting         CNVShift        .... on
   Level shift para.    LevelShift      ....    0.2500
   Turn off err/grad.   ShiftErr        ....    0.0000
 Zerner damping         CNVZerner       .... off
 Static damping         CNVDamp         .... on
   Fraction old density DampFac         ....    0.8500
   Max. Damping (<1)    DampMax         ....    0.9800
   Min. Damping (>=0)   DampMin         ....    0.0000
   Turn off err/grad.   DampErr         ....    0.0300

SCF Procedure:
 Maximum # iterations   MaxIter         ....  1500
 SCF integral mode      SCFMode         .... Direct
   Integral package                     .... SHARK and LIBINT hybrid scheme
 Reset frequency        DirectResetFreq ....    20
 Integral Threshold     Thresh          ....  1.000e-12 Eh
 Primitive CutOff       TCut            ....  1.000e-13 Eh

Convergence Tolerance:
 Convergence Check Mode ConvCheckMode   .... Total+1el-Energy
 Convergence forced     ConvForced      .... 0
 Energy Change          TolE            ....  1.000e-08 Eh
 1-El. energy change                    ....  1.000e-05 Eh
 Orbital Gradient       TolG            ....  1.000e-05
 Orbital Rotation angle TolX            ....  1.000e-05
 DIIS Error             TolErr          ....  5.000e-07

------------------------------
INITIAL GUESS: MODEL POTENTIAL
------------------------------
Loading Hartree-Fock densities                     ... done
Calculating cut-offs                               ... done
Initializing the effective Hamiltonian             ... done
Setting up the integral package (SHARK)            ... done
Starting the Coulomb interaction                   ... done (   0.5 sec)
Making the grid                                    ... done (   0.4 sec)
Mapping shells                                     ... done
Starting the XC term evaluation                    ... done (   0.6 sec)
  promolecular density results
     # of electrons  =     49.997429297
     EX              =    -38.107949410
     EC              =     -1.627585418
     EX+EC           =    -39.735534828
Transforming the Hamiltonian                       ... done (   0.1 sec)
Diagonalizing the Hamiltonian                      ... done (   0.1 sec)
Back transforming the eigenvectors                 ... done (   0.1 sec)
Now organizing SCF variables                       ... done
                      ------------------
                      INITIAL GUESS DONE (   1.9 sec)
                      ------------------
             **** ENERGY FILE WAS UPDATED (cs_rporg_008_ox_solv_01.en.tmp) ****
Finished Guess after   2.8 sec
Maximum memory used throughout the entire GUESS-calculation: 38.4 MB


           ************************************************************
           *        Program running with 4 parallel MPI-processes     *
           *              working on a common directory               *
           ************************************************************

-------------------------------------------------------------------------------------------
                                      ORCA LEAN-SCF
                              memory conserving SCF solver
-------------------------------------------------------------------------------------------

--------------------
CPCM SOLVATION MODEL
--------------------
CPCM parameters:
  Epsilon                                         ...      35.6880
  Refrac                                          ...       1.3442
  Rsolv                                           ...       2.1900
  Surface type                                    ...    GEPOL SES
  Discretization scheme                           ... Constant num. charges
  Epsilon function type                           ...         CPCM
Solvent:                                          ... ACETONITRILE
SMD-CDS solvent descriptors:
  Soln                                            ...       1.3442
  Soln25                                          ...       1.3416
  Sola                                            ...       0.0700
  Solb                                            ...       0.3200
  Solg                                            ...      41.2500
  Solc                                            ...       0.0000
  Solh                                            ...       0.0000
Radii:
  Scheme                                          ... Element-dependent radii
  Radius for C  used is    3.4960 Bohr (=   1.8500 Ang.)
  Radius for H  used is    2.2677 Bohr (=   1.2000 Ang.)
Calculating surface                               ...        done! (  0.0s)
Cavity surface points                             ...          494
Cavity Volume                                     ...     769.3903
Cavity Surface-area                               ...     472.1191
Calculating surface distance matrix               ...        done! (  0.0s)
Performing Cholesky decomposition & store         ...        done! (  0.0s)
Overall time for CPCM initialization              ...                 0.0s

----------------------------------------D-I-I-S--------------------------------------------
Iteration    Energy (Eh)           Delta-E    RMSDP     MaxDP     DIISErr   Damp  Time(sec)
-------------------------------------------------------------------------------------------
               ***  Starting incremental Fock matrix formation  ***
    1    -271.3593101752352368     0.00e+00  4.11e-04  1.88e-02  8.16e-02  0.850  21.3
Warning: op=1 Small HOMO/LUMO gap (   0.039) - skipping pre-diagonalization
         Will do a full diagonalization
    2    -271.3822565388608155    -2.29e-02  3.84e-04  1.65e-02  6.21e-02  0.850  14.8
                               ***Turning on AO-DIIS***
    3    -271.3982689112572189    -1.60e-02  2.94e-04  1.29e-02  4.33e-02  0.850  14.3
    4    -271.4090726588461848    -1.08e-02  2.39e-04  1.06e-02  3.42e-02  0.850  14.2
    5    -271.4170378678803672    -7.97e-03  2.00e-04  8.89e-03  2.84e-02  0.850  14.0
    6    -271.4233396834441692    -6.30e-03  1.12e-03  5.00e-02  2.41e-02  0.000  13.9
    7    -271.4547760269142600    -3.14e-02  4.37e-05  2.48e-03  1.22e-03  0.000  14.6
                              *** Initializing SOSCF ***
---------------------------------------S-O-S-C-F--------------------------------------
Iteration    Energy (Eh)           Delta-E    RMSDP     MaxDP     MaxGrad    Time(sec)
--------------------------------------------------------------------------------------
    8    -271.4548227064657340    -4.67e-05  1.60e-05  7.25e-04  6.92e-04    13.8
               *** Restarting incremental Fock matrix formation ***
    9    -271.4548371647180147    -1.45e-05  1.69e-05  6.83e-04  6.33e-04    20.9
   10    -271.4548453820050327    -8.22e-06  1.55e-05  6.92e-04  5.21e-04    17.8
   11    -271.4548492451600623    -3.86e-06  1.09e-05  3.95e-04  2.49e-04    17.6
   12    -271.4548501865206163    -9.41e-07  4.34e-06  1.74e-04  1.14e-04    16.8
   13    -271.4548504182808983    -2.32e-07  2.31e-06  1.03e-04  4.79e-05    16.3
   14    -271.4548504946860703    -7.64e-08  9.81e-07  3.27e-05  2.05e-05    15.8
   15    -271.4548505113017427    -1.66e-08  5.17e-07  1.82e-05  1.27e-05    15.4
   16    -271.4548505205675610    -9.27e-09  2.29e-07  1.13e-05  2.81e-06    14.9
                 **** Energy Check signals convergence ****

               *****************************************************
               *                     SUCCESS                       *
               *           SCF CONVERGED AFTER  16 CYCLES          *
               *****************************************************

Recomputing exchange energy using gridx3       ... done (   21.211 sec)
Old exchange energy                            :     -3.884315222 Eh
New exchange energy                            :     -3.884316027 Eh
Exchange energy change after final integration :     -0.000000804 Eh
Total energy after final integration           :   -271.454851325 Eh

SMD CDS free energy correction energy :                -1.89029     Kcal/mol
Total Energy after SMD CDS correction =              -271.457863692 Eh
             **** ENERGY FILE WAS UPDATED (cs_rporg_008_ox_solv_01.en.tmp) ****

----------------
TOTAL SCF ENERGY
----------------

Total Energy       :       -271.45786369155110 Eh           -7386.74401 eV

Components:
Nuclear Repulsion  :        267.71216254723356 Eh            7284.81830 eV
Electronic Energy  :       -539.07798889080937 Eh          -14669.05784 eV
One Electron Energy:       -883.98138015029531 Eh          -24054.35625 eV
Two Electron Energy:        344.90339125948589 Eh            9385.29842 eV
CPCM Dielectric    :         -0.08902417699166 Eh              -2.42247 eV
SMD CDS (Gcds)     :         -0.00301236658593 Eh              -0.08197 eV

Virial components:
Potential Energy   :       -541.15637879871349 Eh          -14725.61370 eV
Kinetic Energy     :        269.69851510716239 Eh            7338.86970 eV
Virial Ratio       :          2.00652338995522

DFT components:
N(Alpha)           :       24.999979387892 electrons
N(Beta)            :       23.999983386869 electrons
N(Total)           :       48.999962774761 electrons
E(X)               :      -35.213788036151 Eh       
E(C)               :       -1.596154362673 Eh       
E(XC)              :      -36.809942398824 Eh       

CPCM Solvation Model Properties:
Surface-charge          :         -1.03384421177183
Corrected charge        :         -1.00000000000000
Outlying charge corr.   :          0.00009270844941 Eh               0.00252 eV
Free-energy (cav+disp)  :         -0.00301236658593 Eh              -0.08197 eV

---------------
SCF CONVERGENCE
---------------

  Last Energy change         ...    9.2658e-09  Tolerance :   1.0000e-08
  Last MAX-Density change    ...    1.1315e-05  Tolerance :   1.0000e-07
  Last RMS-Density change    ...    2.2935e-07  Tolerance :   5.0000e-09
  Last DIIS Error            ...    6.9165e-04  Tolerance :   5.0000e-07
  Last Orbital Gradient      ...    2.8109e-06  Tolerance :   1.0000e-05
  Last Orbital Rotation      ...    2.7596e-05  Tolerance :   1.0000e-05


----------------------
UHF SPIN CONTAMINATION
----------------------

Warning: in a DFT calculation there is little theoretical justification to 
         calculate <S**2> as in Hartree-Fock theory. We will do it anyways
         but you should keep in mind that the values have only limited relevance

Expectation value of <S**2>     :     0.763225
Ideal value S*(S+1) for S=0.5   :     0.750000
Deviation                       :     0.013225

----------------
ORBITAL ENERGIES
----------------
                 SPIN UP ORBITALS
  NO   OCC          E(Eh)            E(eV) 
   0   1.0000     -10.211043      -277.8566 
   1   1.0000     -10.195392      -277.4307 
   2   1.0000     -10.168721      -276.7050 
   3   1.0000     -10.168670      -276.7036 
   4   1.0000     -10.164667      -276.5947 
   5   1.0000     -10.164609      -276.5931 
   6   1.0000     -10.137787      -275.8632 
   7   1.0000      -0.889454       -24.2033 
   8   1.0000      -0.803278       -21.8583 
   9   1.0000      -0.775576       -21.1045 
  10   1.0000      -0.704735       -19.1768 
  11   1.0000      -0.628200       -17.0942 
  12   1.0000      -0.608969       -16.5709 
  13   1.0000      -0.529401       -14.4057 
  14   1.0000      -0.487198       -13.2573 
  15   1.0000      -0.473598       -12.8873 
  16   1.0000      -0.444477       -12.0948 
  17   1.0000      -0.442511       -12.0413 
  18   1.0000      -0.428656       -11.6643 
  19   1.0000      -0.395872       -10.7722 
  20   1.0000      -0.388150       -10.5621 
  21   1.0000      -0.370484       -10.0814 
  22   1.0000      -0.358752        -9.7621 
  23   1.0000      -0.294300        -8.0083 
  24   1.0000      -0.292817        -7.9680 
  25   0.0000      -0.091469        -2.4890 
  26   0.0000      -0.062984        -1.7139 
  27   0.0000      -0.006806        -0.1852 
  28   0.0000       0.006679         0.1817 
  29   0.0000       0.011078         0.3014 
  30   0.0000       0.023534         0.6404 
  31   0.0000       0.028209         0.7676 
  32   0.0000       0.031634         0.8608 
  33   0.0000       0.038433         1.0458 
  34   0.0000       0.050067         1.3624 
  35   0.0000       0.051821         1.4101 

                 SPIN DOWN ORBITALS
  NO   OCC          E(Eh)            E(eV) 
   0   1.0000     -10.205015      -277.6926 
   1   1.0000     -10.188519      -277.2437 
   2   1.0000     -10.167429      -276.6698 
   3   1.0000     -10.167390      -276.6687 
   4   1.0000     -10.165014      -276.6041 
   5   1.0000     -10.164968      -276.6028 
   6   1.0000     -10.137762      -275.8625 
   7   1.0000      -0.879685       -23.9375 
   8   1.0000      -0.790812       -21.5191 
   9   1.0000      -0.773789       -21.0559 
  10   1.0000      -0.696636       -18.9564 
  11   1.0000      -0.623411       -16.9639 
  12   1.0000      -0.601758       -16.3747 
  13   1.0000      -0.526516       -14.3272 
  14   1.0000      -0.483872       -13.1668 
  15   1.0000      -0.469727       -12.7819 
  16   1.0000      -0.444084       -12.0842 
  17   1.0000      -0.424560       -11.5529 
  18   1.0000      -0.422450       -11.4954 
  19   1.0000      -0.394047       -10.7226 
  20   1.0000      -0.369541       -10.0557 
  21   1.0000      -0.365923        -9.9573 
  22   1.0000      -0.355980        -9.6867 
  23   1.0000      -0.288541        -7.8516 
  24   0.0000      -0.225661        -6.1405 
  25   0.0000      -0.052934        -1.4404 
  26   0.0000      -0.050470        -1.3733 
  27   0.0000      -0.005845        -0.1591 
  28   0.0000       0.007722         0.2101 
  29   0.0000       0.011101         0.3021 
  30   0.0000       0.024782         0.6744 
  31   0.0000       0.028870         0.7856 
  32   0.0000       0.031810         0.8656 
  33   0.0000       0.040641         1.1059 
  34   0.0000       0.051781         1.4090 
*Only the first 10 virtual orbitals were printed.

                    ********************************
                    * MULLIKEN POPULATION ANALYSIS *
                    ********************************

--------------------------------------------
MULLIKEN ATOMIC CHARGES AND SPIN POPULATIONS
--------------------------------------------
   0 C :   -0.101990    0.437835
   1 C :   -0.377133   -0.033359
   2 C :   -0.542002    0.067630
   3 C :    0.785662    0.469176
   4 C :   -0.126532   -0.061661
   5 H :    0.157561    0.007636
   6 H :    0.156811    0.007114
   7 H :    0.194858    0.064395
   8 C :   -0.543199    0.068697
   9 C :   -0.377299   -0.034153
  10 H :    0.479870    0.001163
  11 H :    0.194983   -0.002768
  12 H :    0.194123   -0.002942
  13 H :    0.481940    0.001207
  14 H :    0.422347    0.010031
Sum of atomic charges         :    1.0000000
Sum of atomic spin populations:    1.0000000

-----------------------------------------------------
MULLIKEN REDUCED ORBITAL CHARGES AND SPIN POPULATIONS
-----------------------------------------------------
CHARGE
  0 C s       :     3.515812  s :     3.515812
      pz      :     0.727923  p :     2.460154
      px      :     0.900779
      py      :     0.831452
      dz2     :    -0.013196  d :     0.127489
      dxz     :     0.000661
      dyz     :     0.023486
      dx2y2   :     0.114635
      dxy     :     0.001902
      f0      :     0.001493  f :    -0.001464
      f+1     :     0.000386
      f-1     :     0.000489
      f+2     :     0.000292
      f-2     :     0.001846
      f+3     :     0.002799
      f-3     :    -0.008770

  1 C s       :     3.473350  s :     3.473350
      pz      :     0.872797  p :     2.696004
      px      :     0.990089
      py      :     0.833117
      dz2     :    -0.002912  d :     0.217097
      dxz     :     0.020300
      dyz     :     0.009552
      dx2y2   :     0.036823
      dxy     :     0.153334
      f0      :     0.000885  f :    -0.009317
      f+1     :     0.000874
      f-1     :     0.000262
      f+2     :     0.000717
      f-2     :     0.000122
      f+3     :     0.000597
      f-3     :    -0.012775

  2 C s       :     3.751000  s :     3.751000
      pz      :     0.893311  p :     2.648604
      px      :     0.868098
      py      :     0.887196
      dz2     :    -0.011210  d :     0.150406
      dxz     :     0.007397
      dyz     :     0.020096
      dx2y2   :    -0.013291
      dxy     :     0.147414
      f0      :     0.001062  f :    -0.008009
      f+1     :     0.000471
      f-1     :     0.000109
      f+2     :     0.001493
      f-2     :    -0.000811
      f+3     :     0.003066
      f-3     :    -0.013399

  3 C s       :     3.076692  s :     3.076692
      pz      :     0.717697  p :     1.866419
      px      :     0.602521
      py      :     0.546202
      dz2     :    -0.001575  d :     0.325036
      dxz     :    -0.022668
      dyz     :    -0.015705
      dx2y2   :     0.216589
      dxy     :     0.148394
      f0      :     0.000487  f :    -0.053809
      f+1     :    -0.002968
      f-1     :    -0.000711
      f+2     :     0.000923
      f-2     :     0.002688
      f+3     :    -0.011168
      f-3     :    -0.043060

  4 C s       :     3.170982  s :     3.170982
      pz      :     1.004784  p :     2.943588
      px      :     0.917204
      py      :     1.021599
      dz2     :     0.012957  d :     0.003474
      dxz     :    -0.028469
      dyz     :     0.005578
      dx2y2   :     0.004448
      dxy     :     0.008959
      f0      :     0.002445  f :     0.008489
      f+1     :    -0.000513
      f-1     :    -0.000276
      f+2     :     0.002856
      f-2     :     0.000609
      f+3     :     0.002530
      f-3     :     0.000838

  5 H s       :     0.786224  s :     0.786224
      pz      :     0.008721  p :     0.046838
      px      :     0.025564
      py      :     0.012553
      dz2     :     0.002937  d :     0.009377
      dxz     :     0.000433
      dyz     :     0.000399
      dx2y2   :     0.003431
      dxy     :     0.002178

  6 H s       :     0.786945  s :     0.786945
      pz      :     0.008608  p :     0.046850
      px      :     0.025575
      py      :     0.012667
      dz2     :     0.002872  d :     0.009394
      dxz     :     0.000438
      dyz     :     0.000473
      dx2y2   :     0.003426
      dxy     :     0.002184

  7 H s       :     0.748548  s :     0.748548
      pz      :     0.021413  p :     0.050034
      px      :     0.020723
      py      :     0.007898
      dz2     :    -0.001026  d :     0.006560
      dxz     :     0.002495
      dyz     :     0.004037
      dx2y2   :     0.001277
      dxy     :    -0.000224

  8 C s       :     3.750890  s :     3.750890
      pz      :     0.892992  p :     2.650933
      px      :     0.870746
      py      :     0.887195
      dz2     :    -0.011211  d :     0.149448
      dxz     :     0.007519
      dyz     :     0.019992
      dx2y2   :    -0.014140
      dxy     :     0.147288
      f0      :     0.001069  f :    -0.008072
      f+1     :     0.000451
      f-1     :     0.000115
      f+2     :     0.001503
      f-2     :    -0.000816
      f+3     :     0.003065
      f-3     :    -0.013458

  9 C s       :     3.473536  s :     3.473536
      pz      :     0.873059  p :     2.695978
      px      :     0.989322
      py      :     0.833597
      dz2     :    -0.002925  d :     0.217122
      dxz     :     0.020232
      dyz     :     0.009626
      dx2y2   :     0.037140
      dxy     :     0.153048
      f0      :     0.000881  f :    -0.009336
      f+1     :     0.000873
      f-1     :     0.000262
      f+2     :     0.000714
      f-2     :     0.000118
      f+3     :     0.000588
      f-3     :    -0.012773

 10 H s       :     0.511943  s :     0.511943
      pz      :     0.018299  p :     0.000618
      px      :    -0.011885
      py      :    -0.005796
      dz2     :    -0.000534  d :     0.007569
      dxz     :     0.001058
      dyz     :     0.003933
      dx2y2   :     0.001712
      dxy     :     0.001401

 11 H s       :     0.764153  s :     0.764153
      pz      :     0.022166  p :     0.034702
      px      :     0.002853
      py      :     0.009683
      dz2     :    -0.000347  d :     0.006162
      dxz     :     0.001762
      dyz     :     0.002662
      dx2y2   :     0.001922
      dxy     :     0.000164

 12 H s       :     0.764874  s :     0.764874
      pz      :     0.022226  p :     0.034841
      px      :     0.002808
      py      :     0.009806
      dz2     :    -0.000351  d :     0.006163
      dxz     :     0.001765
      dyz     :     0.002661
      dx2y2   :     0.001935
      dxy     :     0.000154

 13 H s       :     0.509901  s :     0.509901
      pz      :     0.018307  p :     0.000589
      px      :    -0.011948
      py      :    -0.005770
      dz2     :    -0.000532  d :     0.007570
      dxz     :     0.001056
      dyz     :     0.003935
      dx2y2   :     0.001708
      dxy     :     0.001403

 14 H s       :     0.572801  s :     0.572801
      pz      :     0.009602  p :    -0.001604
      px      :     0.000611
      py      :    -0.011817
      dz2     :    -0.000425  d :     0.006455
      dxz     :     0.003833
      dyz     :     0.000033
      dx2y2   :     0.001291
      dxy     :     0.001723


SPIN
  0 C s       :     0.004529  s :     0.004529
      pz      :     0.388652  p :     0.432761
      px      :     0.018459
      py      :     0.025651
      dz2     :    -0.002145  d :     0.002607
      dxz     :     0.002095
      dyz     :     0.001347
      dx2y2   :     0.001588
      dxy     :    -0.000278
      f0      :    -0.001029  f :    -0.002062
      f+1     :    -0.000661
      f-1     :    -0.000338
      f+2     :     0.000320
      f-2     :     0.000266
      f+3     :    -0.000561
      f-3     :    -0.000060

  1 C s       :    -0.000478  s :    -0.000478
      pz      :    -0.007576  p :    -0.027343
      px      :    -0.017496
      py      :    -0.002271
      dz2     :    -0.000256  d :    -0.004663
      dxz     :     0.004199
      dyz     :     0.001373
      dx2y2   :    -0.003237
      dxy     :    -0.006742
      f0      :    -0.000114  f :    -0.000874
      f+1     :    -0.000124
      f-1     :     0.000046
      f+2     :     0.000087
      f-2     :     0.000044
      f+3     :    -0.000413
      f-3     :    -0.000400

  2 C s       :    -0.006937  s :    -0.006937
      pz      :     0.080258  p :     0.065192
      px      :    -0.012197
      py      :    -0.002869
      dz2     :    -0.000634  d :     0.011286
      dxz     :    -0.000575
      dyz     :     0.003270
      dx2y2   :     0.003610
      dxy     :     0.005615
      f0      :    -0.000300  f :    -0.001911
      f+1     :    -0.000209
      f-1     :     0.000027
      f+2     :     0.000364
      f-2     :    -0.000640
      f+3     :    -0.000446
      f-3     :    -0.000708

  3 C s       :     0.036372  s :     0.036372
      pz      :     0.334068  p :     0.397946
      px      :     0.025231
      py      :     0.038647
      dz2     :    -0.000618  d :     0.037040
      dxz     :     0.010541
      dyz     :     0.006050
      dx2y2   :     0.010579
      dxy     :     0.010487
      f0      :    -0.001065  f :    -0.002181
      f+1     :    -0.000480
      f-1     :    -0.000353
      f+2     :     0.001609
      f-2     :     0.000235
      f+3     :    -0.000328
      f-3     :    -0.001799

  4 C s       :    -0.071536  s :    -0.071536
      pz      :     0.008107  p :    -0.010153
      px      :    -0.011995
      py      :    -0.006266
      dz2     :     0.002414  d :     0.017196
      dxz     :     0.012649
      dyz     :    -0.000221
      dx2y2   :     0.001141
      dxy     :     0.001212
      f0      :     0.001222  f :     0.002832
      f+1     :     0.000311
      f-1     :     0.000110
      f+2     :     0.000761
      f-2     :     0.000109
      f+3     :     0.000039
      f-3     :     0.000280

  5 H s       :     0.006768  s :     0.006768
      pz      :    -0.000355  p :     0.000549
      px      :     0.000778
      py      :     0.000126
      dz2     :     0.000173  d :     0.000319
      dxz     :    -0.000098
      dyz     :     0.000084
      dx2y2   :     0.000083
      dxy     :     0.000077

  6 H s       :     0.006312  s :     0.006312
      pz      :    -0.000365  p :     0.000492
      px      :     0.000739
      py      :     0.000117
      dz2     :     0.000170  d :     0.000311
      dxz     :    -0.000098
      dyz     :     0.000088
      dx2y2   :     0.000079
      dxy     :     0.000072

  7 H s       :     0.060143  s :     0.060143
      pz      :     0.001178  p :     0.003423
      px      :     0.001382
      py      :     0.000863
      dz2     :     0.000194  d :     0.000829
      dxz     :     0.000259
      dyz     :     0.000289
      dx2y2   :     0.000088
      dxy     :    -0.000001

  8 C s       :    -0.006890  s :    -0.006890
      pz      :     0.080927  p :     0.066128
      px      :    -0.011994
      py      :    -0.002805
      dz2     :    -0.000643  d :     0.011364
      dxz     :    -0.000615
      dyz     :     0.003286
      dx2y2   :     0.003648
      dxy     :     0.005689
      f0      :    -0.000301  f :    -0.001905
      f+1     :    -0.000208
      f-1     :     0.000026
      f+2     :     0.000372
      f-2     :    -0.000642
      f+3     :    -0.000445
      f-3     :    -0.000707

  9 C s       :    -0.000567  s :    -0.000567
      pz      :    -0.008191  p :    -0.028093
      px      :    -0.017572
      py      :    -0.002330
      dz2     :    -0.000253  d :    -0.004620
      dxz     :     0.004204
      dyz     :     0.001378
      dx2y2   :    -0.003219
      dxy     :    -0.006729
      f0      :    -0.000113  f :    -0.000873
      f+1     :    -0.000123
      f-1     :     0.000047
      f+2     :     0.000088
      f-2     :     0.000043
      f+3     :    -0.000414
      f-3     :    -0.000401

 10 H s       :     0.001375  s :     0.001375
      pz      :    -0.001436  p :    -0.000243
      px      :    -0.000054
      py      :     0.001247
      dz2     :     0.000063  d :     0.000031
      dxz     :    -0.000127
      dyz     :     0.000035
      dx2y2   :     0.000054
      dxy     :     0.000005

 11 H s       :    -0.003265  s :    -0.003265
      pz      :     0.000387  p :     0.000191
      px      :    -0.000806
      py      :     0.000609
      dz2     :     0.000090  d :     0.000306
      dxz     :    -0.000057
      dyz     :     0.000199
      dx2y2   :     0.000027
      dxy     :     0.000046

 12 H s       :    -0.003417  s :    -0.003417
      pz      :     0.000383  p :     0.000174
      px      :    -0.000792
      py      :     0.000583
      dz2     :     0.000090  d :     0.000302
      dxz     :    -0.000058
      dyz     :     0.000199
      dx2y2   :     0.000026
      dxy     :     0.000045

 13 H s       :     0.001395  s :     0.001395
      pz      :    -0.001417  p :    -0.000223
      px      :    -0.000051
      py      :     0.001245
      dz2     :     0.000063  d :     0.000035
      dxz     :    -0.000126
      dyz     :     0.000038
      dx2y2   :     0.000055
      dxy     :     0.000006

 14 H s       :    -0.002991  s :    -0.002991
      pz      :     0.008957  p :     0.010626
      px      :     0.000027
      py      :     0.001642
      dz2     :     0.000191  d :     0.002396
      dxz     :     0.001765
      dyz     :    -0.000018
      dx2y2   :    -0.000010
      dxy     :     0.000467



                     *******************************
                     * LOEWDIN POPULATION ANALYSIS *
                     *******************************

-------------------------------------------
LOEWDIN ATOMIC CHARGES AND SPIN POPULATIONS
-------------------------------------------
   0 C :    0.311189    0.232108
   1 C :    0.280303    0.073108
   2 C :    0.293729    0.096815
   3 C :   -0.033923    0.227873
   4 C :    0.636237    0.082642
   5 H :   -0.137246    0.008951
   6 H :   -0.137511    0.008734
   7 H :   -0.108707    0.030776
   8 C :    0.293685    0.097013
   9 C :    0.280243    0.072873
  10 H :   -0.140995    0.000969
  11 H :   -0.135244    0.009486
  12 H :   -0.135361    0.009429
  13 H :   -0.140956    0.001039
  14 H :   -0.125442    0.048186

----------------------------------------------------
LOEWDIN REDUCED ORBITAL CHARGES AND SPIN POPULATIONS
----------------------------------------------------
CHARGE
  0 C s       :     2.506309  s :     2.506309
      pz      :     0.472440  p :     2.183900
      px      :     0.853723
      py      :     0.857737
      dz2     :     0.067835  d :     0.673911
      dxz     :     0.037197
      dyz     :     0.114943
      dx2y2   :     0.282680
      dxy     :     0.171256
      f0      :     0.019044  f :     0.324691
      f+1     :     0.019645
      f-1     :     0.030412
      f+2     :     0.006631
      f-2     :     0.059116
      f+3     :     0.055663
      f-3     :     0.134180

  1 C s       :     2.496931  s :     2.496931
      pz      :     0.566906  p :     2.261879
      px      :     0.861161
      py      :     0.833812
      dz2     :     0.067860  d :     0.643327
      dxz     :     0.066575
      dyz     :     0.048818
      dx2y2   :     0.194909
      dxy     :     0.265164
      f0      :     0.020618  f :     0.317561
      f+1     :     0.028871
      f-1     :     0.022647
      f+2     :     0.036170
      f-2     :     0.015180
      f+3     :     0.056320
      f-3     :     0.137754

  2 C s       :     2.489815  s :     2.489815
      pz      :     0.558367  p :     2.244101
      px      :     0.861979
      py      :     0.823755
      dz2     :     0.068124  d :     0.653373
      dxz     :     0.079633
      dyz     :     0.046467
      dx2y2   :     0.204141
      dxy     :     0.255008
      f0      :     0.020799  f :     0.318982
      f+1     :     0.029259
      f-1     :     0.022300
      f+2     :     0.035365
      f-2     :     0.018169
      f+3     :     0.059957
      f-3     :     0.133133

  3 C s       :     2.478737  s :     2.478737
      pz      :     0.468778  p :     2.150278
      px      :     0.831069
      py      :     0.850431
      dz2     :     0.083869  d :     0.919522
      dxz     :     0.149103
      dyz     :     0.112043
      dx2y2   :     0.301905
      dxy     :     0.272601
      f0      :     0.033147  f :     0.485387
      f+1     :     0.029888
      f-1     :     0.032657
      f+2     :     0.047223
      f-2     :     0.063395
      f+3     :     0.070180
      f-3     :     0.208897

  4 C s       :     2.449206  s :     2.449206
      pz      :     0.746625  p :     2.269141
      px      :     0.742058
      py      :     0.780458
      dz2     :     0.087688  d :     0.466073
      dxz     :     0.071990
      dyz     :     0.046362
      dx2y2   :     0.112179
      dxy     :     0.147853
      f0      :     0.021179  f :     0.179343
      f+1     :     0.025405
      f-1     :     0.004203
      f+2     :     0.023318
      f-2     :     0.013802
      f+3     :     0.033409
      f-3     :     0.058027

  5 H s       :     0.614260  s :     0.614260
      pz      :     0.094241  p :     0.302456
      px      :     0.081622
      py      :     0.126593
      dz2     :     0.048701  d :     0.220529
      dxz     :     0.015194
      dyz     :     0.047563
      dx2y2   :     0.064244
      dxy     :     0.044826

  6 H s       :     0.614532  s :     0.614532
      pz      :     0.093805  p :     0.302469
      px      :     0.081690
      py      :     0.126974
      dz2     :     0.047895  d :     0.220510
      dxz     :     0.014947
      dyz     :     0.048123
      dx2y2   :     0.064456
      dxy     :     0.045088

  7 H s       :     0.590365  s :     0.590365
      pz      :     0.140310  p :     0.296678
      px      :     0.076229
      py      :     0.080139
      dz2     :     0.060767  d :     0.221663
      dxz     :     0.057467
      dyz     :     0.081346
      dx2y2   :     0.018507
      dxy     :     0.003575

  8 C s       :     2.489828  s :     2.489828
      pz      :     0.558197  p :     2.243969
      px      :     0.862002
      py      :     0.823770
      dz2     :     0.068102  d :     0.653520
      dxz     :     0.079793
      dyz     :     0.046498
      dx2y2   :     0.204079
      dxy     :     0.255047
      f0      :     0.020805  f :     0.318998
      f+1     :     0.029241
      f-1     :     0.022299
      f+2     :     0.035404
      f-2     :     0.018172
      f+3     :     0.059946
      f-3     :     0.133130

  9 C s       :     2.496913  s :     2.496913
      pz      :     0.567087  p :     2.262023
      px      :     0.861132
      py      :     0.833804
      dz2     :     0.067862  d :     0.643273
      dxz     :     0.066520
      dyz     :     0.048802
      dx2y2   :     0.194940
      dxy     :     0.265149
      f0      :     0.020620  f :     0.317547
      f+1     :     0.028876
      f-1     :     0.022645
      f+2     :     0.036136
      f-2     :     0.015185
      f+3     :     0.056320
      f-3     :     0.137765

 10 H s       :     0.653094  s :     0.653094
      pz      :     0.067934  p :     0.283129
      px      :     0.090467
      py      :     0.124729
      dz2     :     0.022482  d :     0.204772
      dxz     :     0.018383
      dyz     :     0.038784
      dx2y2   :     0.071506
      dxy     :     0.053616

 11 H s       :     0.642974  s :     0.642974
      pz      :     0.066083  p :     0.284734
      px      :     0.095268
      py      :     0.123383
      dz2     :     0.023276  d :     0.207536
      dxz     :     0.018874
      dyz     :     0.037921
      dx2y2   :     0.072108
      dxy     :     0.055357

 12 H s       :     0.642968  s :     0.642968
      pz      :     0.066110  p :     0.284797
      px      :     0.095299
      py      :     0.123388
      dz2     :     0.023295  d :     0.207595
      dxz     :     0.018859
      dyz     :     0.037945
      dx2y2   :     0.072119
      dxy     :     0.055378

 13 H s       :     0.653089  s :     0.653089
      pz      :     0.067905  p :     0.283111
      px      :     0.090480
      py      :     0.124725
      dz2     :     0.022480  d :     0.204756
      dxz     :     0.018387
      dyz     :     0.038761
      dx2y2   :     0.071517
      dxy     :     0.053611

 14 H s       :     0.653148  s :     0.653148
      pz      :     0.054132  p :     0.275343
      px      :     0.147263
      py      :     0.073948
      dz2     :     0.022689  d :     0.196951
      dxz     :     0.044233
      dyz     :     0.003016
      dx2y2   :     0.045699
      dxy     :     0.081314


SPIN
  0 C s       :     0.007219  s :     0.007219
      pz      :     0.223878  p :     0.233746
      px      :     0.004958
      py      :     0.004910
      dz2     :    -0.001821  d :    -0.006716
      dxz     :    -0.000755
      dyz     :    -0.002232
      dx2y2   :    -0.001156
      dxy     :    -0.000753
      f0      :    -0.002267  f :    -0.002142
      f+1     :    -0.000573
      f-1     :    -0.000397
      f+2     :     0.003062
      f-2     :    -0.001326
      f+3     :    -0.000600
      f-3     :    -0.000040

  1 C s       :    -0.000879  s :    -0.000879
      pz      :     0.002005  p :    -0.003685
      px      :    -0.002021
      py      :    -0.003669
      dz2     :    -0.000056  d :     0.048373
      dxz     :     0.032911
      dyz     :     0.013809
      dx2y2   :     0.000811
      dxy     :     0.000896
      f0      :     0.002119  f :     0.029299
      f+1     :    -0.000132
      f-1     :    -0.000088
      f+2     :     0.013719
      f-2     :     0.012687
      f+3     :     0.000653
      f-3     :     0.000341

  2 C s       :     0.000985  s :     0.000985
      pz      :     0.049688  p :     0.047586
      px      :     0.000169
      py      :    -0.002271
      dz2     :    -0.000365  d :     0.026150
      dxz     :     0.014888
      dyz     :     0.011072
      dx2y2   :     0.000200
      dxy     :     0.000355
      f0      :     0.000852  f :     0.022094
      f+1     :    -0.000157
      f-1     :    -0.000193
      f+2     :     0.011298
      f-2     :     0.009917
      f+3     :     0.000359
      f-3     :     0.000016

  3 C s       :     0.006409  s :     0.006409
      pz      :     0.190740  p :     0.197395
      px      :     0.004320
      py      :     0.002335
      dz2     :    -0.001031  d :     0.011551
      dxz     :     0.007755
      dyz     :     0.004834
      dx2y2   :    -0.000051
      dxy     :     0.000045
      f0      :    -0.002139  f :     0.012518
      f+1     :    -0.000081
      f-1     :    -0.000423
      f+2     :     0.013220
      f-2     :     0.001684
      f+3     :     0.000067
      f-3     :     0.000190

  4 C s       :    -0.001085  s :    -0.001085
      pz      :     0.014747  p :     0.008009
      px      :    -0.005386
      py      :    -0.001352
      dz2     :     0.006484  d :     0.053018
      dxz     :     0.043519
      dyz     :     0.000565
      dx2y2   :     0.002108
      dxy     :     0.000341
      f0      :     0.008482  f :     0.022701
      f+1     :     0.000725
      f-1     :    -0.000001
      f+2     :     0.011877
      f-2     :     0.000309
      f+3     :     0.001067
      f-3     :     0.000242

  5 H s       :     0.005893  s :     0.005893
      pz      :     0.000539  p :     0.000780
      px      :    -0.000080
      py      :     0.000320
      dz2     :     0.000923  d :     0.002277
      dxz     :     0.000171
      dyz     :     0.000855
      dx2y2   :     0.000528
      dxy     :    -0.000198

  6 H s       :     0.005660  s :     0.005660
      pz      :     0.000550  p :     0.000768
      px      :    -0.000094
      py      :     0.000312
      dz2     :     0.000916  d :     0.002306
      dxz     :     0.000178
      dyz     :     0.000900
      dx2y2   :     0.000514
      dxy     :    -0.000202

  7 H s       :     0.028730  s :     0.028730
      pz      :     0.000414  p :     0.001905
      px      :     0.001532
      py      :    -0.000041
      dz2     :    -0.000031  d :     0.000141
      dxz     :    -0.000329
      dyz     :    -0.000157
      dx2y2   :     0.000651
      dxy     :     0.000006

  8 C s       :     0.000997  s :     0.000997
      pz      :     0.050019  p :     0.047942
      px      :     0.000183
      py      :    -0.002260
      dz2     :    -0.000364  d :     0.026021
      dxz     :     0.014784
      dyz     :     0.011054
      dx2y2   :     0.000195
      dxy     :     0.000352
      f0      :     0.000845  f :     0.022052
      f+1     :    -0.000157
      f-1     :    -0.000190
      f+2     :     0.011276
      f-2     :     0.009906
      f+3     :     0.000357
      f-3     :     0.000015

  9 C s       :    -0.000890  s :    -0.000890
      pz      :     0.001683  p :    -0.004027
      px      :    -0.002036
      py      :    -0.003674
      dz2     :    -0.000056  d :     0.048449
      dxz     :     0.032969
      dyz     :     0.013822
      dx2y2   :     0.000816
      dxy     :     0.000898
      f0      :     0.002127  f :     0.029341
      f+1     :    -0.000131
      f-1     :    -0.000090
      f+2     :     0.013748
      f-2     :     0.012690
      f+3     :     0.000653
      f-3     :     0.000343

 10 H s       :    -0.000307  s :    -0.000307
      pz      :     0.000262  p :    -0.000212
      px      :    -0.000366
      py      :    -0.000108
      dz2     :    -0.000025  d :     0.001487
      dxz     :    -0.001109
      dyz     :     0.003045
      dx2y2   :    -0.000314
      dxy     :    -0.000110

 11 H s       :    -0.001827  s :    -0.001827
      pz      :     0.005094  p :     0.005421
      px      :    -0.000060
      py      :     0.000388
      dz2     :    -0.000029  d :     0.005891
      dxz     :    -0.000433
      dyz     :     0.006358
      dx2y2   :    -0.000136
      dxy     :     0.000130

 12 H s       :    -0.001817  s :    -0.001817
      pz      :     0.005062  p :     0.005386
      px      :    -0.000062
      py      :     0.000385
      dz2     :    -0.000029  d :     0.005861
      dxz     :    -0.000440
      dyz     :     0.006338
      dx2y2   :    -0.000136
      dxy     :     0.000129

 13 H s       :    -0.000316  s :    -0.000316
      pz      :     0.000303  p :    -0.000166
      px      :    -0.000364
      py      :    -0.000105
      dz2     :    -0.000024  d :     0.001521
      dxz     :    -0.001108
      dyz     :     0.003075
      dx2y2   :    -0.000313
      dxy     :    -0.000109

 14 H s       :    -0.006631  s :    -0.006631
      pz      :     0.027348  p :     0.030321
      px      :     0.002637
      py      :     0.000336
      dz2     :    -0.000029  d :     0.024495
      dxz     :     0.023094
      dyz     :    -0.000067
      dx2y2   :     0.000982
      dxy     :     0.000515



                      *****************************
                      * MAYER POPULATION ANALYSIS *
                      *****************************

  NA   - Mulliken gross atomic population
  ZA   - Total nuclear charge
  QA   - Mulliken gross atomic charge
  VA   - Mayer's total valence
  BVA  - Mayer's bonded valence
  FA   - Mayer's free valence

  ATOM       NA         ZA         QA         VA         BVA        FA
  0 C      6.1020     6.0000    -0.1020     3.4881     3.3368     0.1513
  1 C      6.3771     6.0000    -0.3771     3.5639     3.5612     0.0028
  2 C      6.5420     6.0000    -0.5420     3.4448     3.4354     0.0095
  3 C      5.2143     6.0000     0.7857     2.9415     2.8201     0.1214
  4 C      6.1265     6.0000    -0.1265     3.8243     3.8154     0.0089
  5 H      0.8424     1.0000     0.1576     0.9990     0.9990     0.0001
  6 H      0.8432     1.0000     0.1568     0.9997     0.9997     0.0001
  7 H      0.8051     1.0000     0.1949     0.9694     0.9659     0.0036
  8 C      6.5432     6.0000    -0.5432     3.4473     3.4377     0.0096
  9 C      6.3773     6.0000    -0.3773     3.5669     3.5642     0.0028
 10 H      0.5201     1.0000     0.4799     0.6590     0.6590     0.0000
 11 H      0.8050     1.0000     0.1950     1.0637     1.0637     0.0000
 12 H      0.8059     1.0000     0.1941     1.0667     1.0667     0.0000
 13 H      0.5181     1.0000     0.4819     0.6565     0.6565     0.0000
 14 H      0.5777     1.0000     0.4223     0.7887     0.7886     0.0001

  Mayer bond orders larger than 0.100000
B(  0-C ,  1-C ) :   1.2176 B(  0-C ,  9-C ) :   1.2165 B(  0-C , 14-H ) :   0.6174 
B(  1-C ,  2-C ) :   1.6640 B(  1-C , 13-H ) :   0.4927 B(  2-C ,  3-C ) :   0.7547 
B(  2-C , 12-H ) :   0.8787 B(  3-C ,  4-C ) :   0.9579 B(  3-C ,  8-C ) :   0.7559 
B(  4-C ,  5-H ) :   0.9145 B(  4-C ,  6-H ) :   0.9153 B(  4-C ,  7-H ) :   0.8545 
B(  8-C ,  9-C ) :   1.6643 B(  8-C , 11-H ) :   0.8760 B(  9-C , 10-H ) :   0.4955 


-------
TIMINGS
-------

Total SCF time: 0 days 0 hours 4 min 39 sec 

Total time                  ....     279.657 sec
Sum of individual times     ....     279.152 sec  ( 99.8%)

SCF preparation             ....       0.906 sec  (  0.3%)
Fock matrix formation       ....     266.023 sec  ( 95.1%)
  Startup                   ....       1.150 sec  (  0.4% of F)
  Split-RI-J                ....       9.574 sec  (  3.6% of F)
  Chain of spheres X        ....     130.137 sec  ( 48.9% of F)
  XC integration            ....     117.472 sec  ( 44.2% of F)
    XC Preparation          ....       0.000 sec  (  0.0% of XC)
    Basis function eval.    ....       5.286 sec  (  4.5% of XC)
    Density eval.           ....      45.113 sec  ( 38.4% of XC)
    XC-Functional eval.     ....       1.035 sec  (  0.9% of XC)
    XC-Potential eval.      ....      63.574 sec  ( 54.1% of XC)
  CPCM terms                ....       4.737 sec  (  1.8% of F)
Diagonalization             ....       0.000 sec  (  0.0%)
Density matrix formation    ....       2.148 sec  (  0.8%)
Total Energy calculation    ....       1.018 sec  (  0.4%)
Population analysis         ....       0.374 sec  (  0.1%)
Orbital Transformation      ....       1.066 sec  (  0.4%)
Orbital Orthonormalization  ....       0.000 sec  (  0.0%)
DIIS solution               ....       4.807 sec  (  1.7%)
SOSCF solution              ....       2.810 sec  (  1.0%)
Finished LeanSCF after 279.9 sec

Maximum memory used throughout the entire LEANSCF-calculation: 71.0 MB


-------------------------------------------------------------------------------
                          DFT DISPERSION CORRECTION                            
                                                                               
                              DFTD3 V3.1  Rev 1                                
                          USING Becke-Johnson damping                          
-------------------------------------------------------------------------------
The TPSSH functional is recognized
Active option DFTDOPT                   ...         4   

molecular C6(AA) [au] = 2353.701663 


            DFT-D V3
 parameters
 s6 scaling factor         :     1.0000 
 a1 scaling factor         :     0.4529 
 s8 scaling factor         :     2.2382 
 a2 scaling factor         :     4.6550 
 ad hoc parameters k1-k3   :    16.0000     1.3333    -4.0000 

 Edisp/kcal,au: -10.196036476429  -0.016248416654 
 E6   /kcal   :  -4.853679107 
 E8   /kcal   :  -5.342357370 
 % E8         :  52.396412883 

-------------------------   ----------------
Dispersion correction           -0.016248417
-------------------------   ----------------


-------------------------   --------------------
FINAL SINGLE POINT ENERGY      -271.474112108205
-------------------------   --------------------



           ************************************************************
           *        Program running with 4 parallel MPI-processes     *
           *              working on a common directory               *
           ************************************************************

------------------------------------------------------------------------------
                              ORCA PROPERTY CALCULATIONS
------------------------------------------------------------------------------

GBWName                                 ... cs_rporg_008_ox_solv_01.gbw
Number of atoms                         ...     15
Number of basis functions               ...    548
Max core memory                         ...   3000 MB

Electric properties:
Dipole moment                           ... YES
Quadrupole moment                       ...  NO
Static polarizability (Dipole/Dipole)   ...  NO
Static polarizability (Dipole/Quad.)    ...  NO
Static polarizability (Quad./Quad.)     ...  NO
Static polarizability (Velocity)        ...  NO

Atomic electric properties:
Dipole moment                           ...  NO
Quadrupole moment                       ...  NO
Static polarizability                   ...  NO

Choice of electric origin               ... Center of mass
Position of electric origin             ...    -0.003068    -0.000275    -0.011735

General magnetic properties:
Magnetizability                         ...  NO

EPR properties:
g-Tensor (aka g-matrix)                 ...  NO
Zero-Field splitting spin-orbit         ...  NO
Zero-field splitting spin-spin          ...  NO
Hyperfine couplings                     ...  NO (   0 nuclei)
Quadrupole couplings                    ...  NO (   0 nuclei)
Contact density                         ...  NO (   0 nuclei)

NMR properties:
Chemical shifts                         ...  NO (   0 nuclei)
Spin-rotation constants                 ...  NO (   0 nuclei)
Spin-spin couplings                     ...  NO (   0 nuclei,    0 pairs)

Choice of magnetic origin               ... GIAO
Position of magnetic origin             ...     0.000000     0.000000     0.000000

Properties with geometric perturbations:
SCF Hessian                             ...  NO
IR spectrum                             ...  NO
VCD spectrum                            ...  NO
X-ray spectroscopy properties:
SCF XES/XAS/RIXS spectra                ...  NO


-------------
DIPOLE MOMENT
-------------

Method             : SCF
Type of density    : Electron Density
Multiplicity       :   2
Irrep              :   0
Energy             :  -271.4578636915510970 Eh
Relativity type    : 
Basis              : AO
                                X                 Y                 Z
Electronic contribution:      3.471236024      -0.000884435      -0.055362629
Nuclear contribution   :     -3.446153110       0.001949667       0.148888103
                        -----------------------------------------
Total Dipole Moment    :      0.025082914       0.001065232       0.093525474
                        -----------------------------------------
Magnitude (a.u.)       :      0.096836468
Magnitude (Debye)      :      0.246138742



--------------------
Rotational spectrum 
--------------------
 
Rotational constants in cm-1:             0.175281             0.085805             0.058230 
Rotational constants in MHz :          5254.798892          2572.379074          1745.693725 

Dipole components along the rotational axes: 
x,y,z [a.u.] :     0.025643    -0.001157     0.093372 
x,y,z [Debye]:     0.065180    -0.002941     0.237334 

 

Dipole moment calculation done in   0.1 sec 

Maximum memory used throughout the entire PROP-calculation: 39.7 MB

--------------------------------
SUGGESTED CITATIONS FOR THIS RUN
--------------------------------

Below you find a list of papers that are relevant to this ORCA run
We neither can nor want to force you to cite these papers, but we appreciate if you do
You receive ORCA, which is the product of decades of hard work by many enthusiastic individuals, for free
The only thing we kindly ask in return is that you cite our papers,
We deeply appreciate it, if you show your appreciation for ORCA by not just citing the generic ORCA reference.

Please note that relegating all ORCA citations to the supporting information does *not* help us.
SI sections are not indexed - citations you put there will not count into any citation statistics
But we need these citations in order to attract the funding resources that allow us to do what we are doing

Therefore, if you are a happy ORCA user, please consider citing a few of the papers listed below in the main body of your paper

In addition to the list printed below, the program has created the file cs_rporg_008_ox_solv_01.bibtex that contains the list in bibtex format
You can import this file easily into all common literature databanks and citation aid programs


List of essential papers. We consider these as the minimum necessary citations

  1. Neese,F.
     Software update: the ORCA program system, version 5.0
     WIRES Comput. Molec. Sci., 2022 12(1)e1606
     doi.org/10.1002/wcms.1606

List of papers to cite with high priority. The work reported in these papers was absolutely
necessary for this run to complete.
Our perspective: the developers of density functionals and basis sets usually get cited in chemistry papers
Good! But without the algorithms to do something with them, the functionals or basis sets would not do anything.
Hence, in our opinion, the algorithm design and method developments papers are equally worthy of getting cited

  1. Neese,F.
     An improvement of the resolution of the identity approximation for the formation of the Coulomb matrix
     J. Comp. Chem., 2003 24(14)1740-1747
     doi.org/10.1002/jcc.10318
  2. Neese,F.; Wennmohs,F.; Hansen,A.; Becker,U.
     Efficient, approximate and parallel Hartree-Fock and hybrid DFT calculations. A 'chain-of-spheres' algorithm for the Hartree-Fock exchange
     Chem. Phys., 2009 356(1-3)98-109
     doi.org/10.1016/j.chemphys.2008.10.036
  3. Garcia-Rates,M.; Neese,F.
     Effect of the Solute Cavity on the Solvation Energy and its Derivatives within the Framework of the Gaussian Charge Scheme
     J. Comput. Chem., 2020 41 922-939
     doi.org/10.1002/jcc.26139
  4. Helmich-Paris,B.; de Souza,B.; Neese,F.; Izsák,R.
     An improved chain of spheres for exchange algorithm
     J. Chem. Phys., 2021 155 104109
     doi.org/doi: 10.1063/5.0058766.
  5. Neese,F.
     The SHARK Integral Generation and Digestion System
     J. Comp. Chem., 2022  1-16
     doi.org/10.1002/jcc.26942
  6. Grimme,S.; Antony,J.; Ehrlich,S.; Krieg,H.
     A consistent and accurate ab initio parametrization of density functional dispersion correction (DFT-D) for the 94 elements H-Pu
     J. Chem. Phys., 2010 132 154104-XXXX
     doi.org/10.1063/1.3382344
  7. Grimme,S.; Ehrlich,S.; Goerigk,L.
     Effect of the damping function in dispersion corrected density functional theory
     J. Comput. Chem., 2011 32(7)1456-1465
     doi.org/10.1002/jcc.21759

List of suggested additional citations. These are papers that are important in the 'surrounding' of 
of this run, or papers that preceded the highly important papers. If you like your results we are grateful for a citation.

  1. Izsak,R.; Neese,F.
     An overlap fitted chain of spheres exchange method
     J. Chem. Phys., 2011 135 144105
     doi.org/10.1063/1.3646921
  2. Izsak,R.; Hansen,A.; Neese,F.
     The resolution of identity and chain of spheres approximations for the LPNO-CCSD singles Fock term
     Molec. Phys., 2012 110 2413-2417
     doi.org/10.1080/00268976.2012.687466
  3. Neese,F.
     The ORCA program system
     WIRES Comput. Molec. Sci., 2012 2(1)73-78
     doi.org/10.1002/wcms.81
  4. Izsak,R.; Neese,F.; Klopper,W.
     Robust fitting techniques in the chain of spheres approximation to the Fock exchange: The role of the complementary space
     J. Chem. Phys., 2013 139 
     doi.org/10.1063/1.4819264
  5. Neese,F.
     Software update: the ORCA program system, version 4.0
     WIRES Comput. Molec. Sci., 2018 8(1)1-6
     doi.org/10.1002/wcms.1327
  6. Neese,F.; Wennmohs,F.; Becker,U.; Riplinger,C.
     The ORCA quantum chemistry program package
     J. Chem. Phys., 2020 152 Art. No. L224108
     doi.org/10.1063/5.0004608

List of optional additional citations

  1. Neese,F.
     Approximate second-order SCF convergence for spin unrestricted wavefunctions
     Chem. Phys. Lett., 2000 325(1-3)93-98
     doi.org/10.1016/s0009-2614(00)00662-x

Timings for individual modules:

Sum of individual times          ...      295.946 sec (=   4.932 min)
Startup calculation              ...        9.009 sec (=   0.150 min)   3.0 %
SCF iterations                   ...      285.163 sec (=   4.753 min)  96.4 %
Property calculations            ...        1.774 sec (=   0.030 min)   0.6 %
                             ****ORCA TERMINATED NORMALLY****
TOTAL RUN TIME: 0 days 0 hours 4 minutes 58 seconds 825 msec
