 vasp.6.3.2 27Jun22 (build Oct 25 2024 11:36:28) complex                        
  
 executed on             LinuxIFC date 2025.09.09  18:35:37
 running on   90 total cores
 distrk:  each k-point on   90 cores,    1 groups
 distr:  one band on NCORE=  10 cores,    9 groups


--------------------------------------------------------------------------------------------------------


 INCAR:
   SYSTEM = 184_red
   ISTART = 1
   ICHARG = 2
   INIWAV = 1
   LHFCALC = .TRUE.
   HFSCREEN = 0.2
   NELM = 500
   ALGO = Damped
   ISPIN = 2
   EDIFF = 1E-05
   ISMEAR = 0
   SIGMA = 0.05
   PREC = accurate
   ENCUT = 500
   LREAL = auto  	
   LDIAG = .FALSE.
   LWAVE = .TRUE.
   LCHARG = .FALSE.
   LAECHG = .FALSE.
   LVHAR = .FALSE.
   LVTOT = .FALSE.
   EDIFFG = -0.02
   IBRION = 2
   NSW = 0
   ISIF = 2
   POTIM = 0.5
   IVDW = 12
   VDW_A1 = 0.383
   VDW_S8 = 2.310
   VDW_A2 = 5.685
   LPLANE = .TRUE.
   NCORE = 10
   LSCALU = .FALSE.
   NSIM = 4
   LSOL = .TRUE.
   ISOL = 2
   R_SOLV = 2.1900
   EPSILON_INF = 1.8069
   N_MOL = 0.0115
   P_MOL = 0.82
   EB_K = 35.6880

 POTCAR:    PAW_PBE C 08Apr2002                   
 POTCAR:    PAW_PBE N 08Apr2002                   
 POTCAR:    PAW_PBE S 06Sep2000                   
 POTCAR:    PAW_PBE H 15Jun2001                   
 -----------------------------------------------------------------------------
|                                                                             |
|           W    W    AA    RRRRR   N    N  II  N    N   GGGG   !!!           |
|           W    W   A  A   R    R  NN   N  II  NN   N  G    G  !!!           |
|           W    W  A    A  R    R  N N  N  II  N N  N  G       !!!           |
|           W WW W  AAAAAA  RRRRR   N  N N  II  N  N N  G  GGG   !            |
|           WW  WW  A    A  R   R   N   NN  II  N   NN  G    G                |
|           W    W  A    A  R    R  N    N  II  N    N   GGGG   !!!           |
|                                                                             |
|     You use a magnetic or noncollinear calculation, but did not specify     |
|     the initial magnetic moment with the MAGMOM tag. Note that a            |
|     default of 1 will be used for all atoms. This ferromagnetic setup       |
|     may break the symmetry of the crystal, in particular it may rule        |
|     out finding an antiferromagnetic solution. Thence, we recommend         |
|     setting the initial magnetic moment manually or verifying carefully     |
|     that this magnetic setup is desired.                                    |
|                                                                             |
 -----------------------------------------------------------------------------

 POTCAR:    PAW_PBE C 08Apr2002                   
   SHA256 =  253f7b50bb8d59471dbedb8285d89021f4a42ed1a2c5d38a03a736e69125dd95 C/POTCAR              
   COPYR  = (c) Copyright 08Apr2002 Georg Kresse                                                    
   COPYR  = This file is part of the software VASP. Any use, copying, and all other rights are regul
   COPYR  = If you do not have a valid VASP license, you may not use, copy or distribute this file. 
   VRHFIN =C: s2p2                                                                                  
   LEXCH  = PE                                                                                      
   EATOM  =   147.1560 eV,   10.8157 Ry                                                             
                                                                                                    
   TITEL  = PAW_PBE C 08Apr2002                                                                     
   LULTRA =        F    use ultrasoft PP ?                                                          
   IUNSCR =        1    unscreen: 0-lin 1-nonlin 2-no                                               
   RPACOR =    1.200    partial core radius                                                         
   POMASS =   12.011; ZVAL   =    4.000    mass and valenz                                          
   RCORE  =    1.500    outmost cutoff radius                                                       
   RWIGS  =    1.630; RWIGS  =    0.863    wigner-seitz radius (au A)                               
   ENMAX  =  400.000; ENMIN  =  300.000 eV                                                          
   ICORE  =        2    local potential                                                             
   LCOR   =        T    correct aug charges                                                         
   LPAW   =        T    paw PP                                                                      
   EAUG   =  644.873                                                                                
   DEXC   =    0.000                                                                                
   RMAX   =    1.529    core radius for proj-oper                                                   
   RAUG   =    1.300    factor for augmentation sphere                                              
   RDEP   =    1.501    radius for radial grids                                                     
   RDEPT  =    1.300    core radius for aug-charge                                                  
                                                                                                    
   Atomic configuration                                                                             
    4 entries                                                                                       
     n  l   j            E        occ.                                                              
     1  0  0.50      -273.3789   2.0000                                                             
     2  0  0.50       -13.7508   2.0000                                                             
     2  1  0.50        -5.2854   2.0000                                                             
     3  2  1.50        -5.4423   0.0000                                                             
   Description                                                                                      
     l       E           TYP  RCUT    TYP  RCUT                                                     
     0    -13.7508458     23  1.200                                                                 
     0     -8.2022199     23  1.200                                                                 
     1     -5.2854383     23  1.500                                                                 
     1     34.0145650     23  1.500                                                                 
     2     -5.4423304      7  1.500                                                                 
  local pseudopotential read in
  partial core-charges read in
  partial kinetic energy density read in
  atomic valenz-charges read in
  non local Contribution for L=           0  read in
    real space projection operators read in
  non local Contribution for L=           0  read in
    real space projection operators read in
  non local Contribution for L=           1  read in
    real space projection operators read in
  non local Contribution for L=           1  read in
    real space projection operators read in
    PAW grid and wavefunctions read in
 
   number of l-projection  operators is LMAX  =           4
   number of lm-projection operators is LMMAX =           8
 
 POTCAR:    PAW_PBE N 08Apr2002                   
   SHA256 =  e053789ff3a61a86a1b75d8a110fcc91f86041011e7b0817c7c99e4e8a6349d7 N/POTCAR              
   COPYR  = (c) Copyright 08Apr2002 Georg Kresse                                                    
   COPYR  = This file is part of the software VASP. Any use, copying, and all other rights are regul
   COPYR  = If you do not have a valid VASP license, you may not use, copy or distribute this file. 
   VRHFIN =N: s2p3                                                                                  
   LEXCH  = PE                                                                                      
   EATOM  =   264.5486 eV,   19.4438 Ry                                                             
                                                                                                    
   TITEL  = PAW_PBE N 08Apr2002                                                                     
   LULTRA =        F    use ultrasoft PP ?                                                          
   IUNSCR =        1    unscreen: 0-lin 1-nonlin 2-no                                               
   RPACOR =    1.200    partial core radius                                                         
   POMASS =   14.001; ZVAL   =    5.000    mass and valenz                                          
   RCORE  =    1.500    outmost cutoff radius                                                       
   RWIGS  =    1.400; RWIGS  =    0.741    wigner-seitz radius (au A)                               
   ENMAX  =  400.000; ENMIN  =  300.000 eV                                                          
   ICORE  =        2    local potential                                                             
   LCOR   =        T    correct aug charges                                                         
   LPAW   =        T    paw PP                                                                      
   EAUG   =  627.112                                                                                
   DEXC   =    0.000                                                                                
   RMAX   =    1.529    core radius for proj-oper                                                   
   RAUG   =    1.300    factor for augmentation sphere                                              
   RDEP   =    1.514    radius for radial grids                                                     
   RDEPT  =    1.338    core radius for aug-charge                                                  
                                                                                                    
   Atomic configuration                                                                             
    4 entries                                                                                       
     n  l   j            E        occ.                                                              
     1  0  0.50      -384.7179   2.0000                                                             
     2  0  0.50       -18.5828   2.0000                                                             
     2  1  0.50        -7.0898   3.0000                                                             
     3  2  1.50        -6.8029   0.0000                                                             
   Description                                                                                      
     l       E           TYP  RCUT    TYP  RCUT                                                     
     0    -18.5828119     23  1.200                                                                 
     0    -13.5018863     23  1.200                                                                 
     1     -7.0897853     23  1.500                                                                 
     1      9.5240782     23  1.500                                                                 
     2     -6.8029130      7  1.500                                                                 
  local pseudopotential read in
  partial core-charges read in
  partial kinetic energy density read in
  atomic valenz-charges read in
  non local Contribution for L=           0  read in
    real space projection operators read in
  non local Contribution for L=           0  read in
    real space projection operators read in
  non local Contribution for L=           1  read in
    real space projection operators read in
  non local Contribution for L=           1  read in
    real space projection operators read in
    PAW grid and wavefunctions read in
 
   number of l-projection  operators is LMAX  =           4
   number of lm-projection operators is LMMAX =           8
 
 POTCAR:    PAW_PBE S 06Sep2000                   
   SHA256 =  0fc7481fb0695f01bdc6462160264c5c84044ae9ec85a907d398b887a2bc3132 S/POTCAR              
   COPYR  = (c) Copyright 06Sep2000 Georg Kresse                                                    
   COPYR  = This file is part of the software VASP. Any use, copying, and all other rights are regul
   COPYR  = If you do not have a valid VASP license, you may not use, copy or distribute this file. 
   VRHFIN =S : s2p4                                                                                 
   LEXCH  = PE                                                                                      
   EATOM  =   276.8230 eV,   20.3459 Ry                                                             
                                                                                                    
   TITEL  = PAW_PBE S 06Sep2000                                                                     
   LULTRA =        F    use ultrasoft PP ?                                                          
   IUNSCR =        1    unscreen: 0-lin 1-nonlin 2-no                                               
   RPACOR =    1.500    partial core radius                                                         
   POMASS =   32.066; ZVAL   =    6.000    mass and valenz                                          
   RCORE  =    1.900    outmost cutoff radius                                                       
   RWIGS  =    2.200; RWIGS  =    1.164    wigner-seitz radius (au A)                               
   ENMAX  =  258.689; ENMIN  =  194.016 eV                                                          
   ICORE  =        2    local potential                                                             
   LCOR   =        T    correct aug charges                                                         
   LPAW   =        T    paw PP                                                                      
   EAUG   =  335.092                                                                                
   DEXC   =    0.000                                                                                
   RMAX   =    1.942    core radius for proj-oper                                                   
   RAUG   =    1.300    factor for augmentation sphere                                              
   RDEP   =    1.954    radius for radial grids                                                     
   RDEPT  =    1.744    core radius for aug-charge                                                  
                                                                                                    
   Atomic configuration                                                                             
    6 entries                                                                                       
     n  l   j            E        occ.                                                              
     1  0  0.50     -2405.8406   2.0000                                                             
     2  0  0.50      -211.7007   2.0000                                                             
     2  1  1.50      -156.4958   6.0000                                                             
     3  0  0.50       -17.2562   2.0000                                                             
     3  1  0.50        -7.0085   4.0000                                                             
     3  2  1.50        -6.8029   0.0000                                                             
   Description                                                                                      
     l       E           TYP  RCUT    TYP  RCUT                                                     
     0    -17.2561641     23  1.900                                                                 
     0    -15.8743224     23  1.900                                                                 
     1     -7.0085400     23  1.900                                                                 
     1     -2.7779785     23  1.900                                                                 
     2     -6.8029130     23  1.900                                                                 
  local pseudopotential read in
  partial core-charges read in
  partial kinetic energy density read in
  atomic valenz-charges read in
  non local Contribution for L=           0  read in
    real space projection operators read in
  non local Contribution for L=           0  read in
    real space projection operators read in
  non local Contribution for L=           1  read in
    real space projection operators read in
  non local Contribution for L=           1  read in
    real space projection operators read in
    PAW grid and wavefunctions read in
 
   number of l-projection  operators is LMAX  =           4
   number of lm-projection operators is LMMAX =           8
 
 POTCAR:    PAW_PBE H 15Jun2001                   
   SHA256 =  030f79b5d3ab3cf0e668861823c8fb652ff669f3e15e46930bd03bfd63a607b6 H/POTCAR              
   COPYR  = (c) Copyright 15Jun2001 Georg Kresse                                                    
   COPYR  = This file is part of the software VASP. Any use, copying, and all other rights are regul
   COPYR  = If you do not have a valid VASP license, you may not use, copy or distribute this file. 
   VRHFIN =H: ultrasoft test                                                                        
   LEXCH  = PE                                                                                      
   EATOM  =    12.4884 eV,    0.9179 Ry                                                             
                                                                                                    
   TITEL  = PAW_PBE H 15Jun2001                                                                     
   LULTRA =        F    use ultrasoft PP ?                                                          
   IUNSCR =        0    unscreen: 0-lin 1-nonlin 2-no                                               
   RPACOR =    0.000    partial core radius                                                         
   POMASS =    1.000; ZVAL   =    1.000    mass and valenz                                          
   RCORE  =    1.100    outmost cutoff radius                                                       
   RWIGS  =    0.700; RWIGS  =    0.370    wigner-seitz radius (au A)                               
   ENMAX  =  250.000; ENMIN  =  200.000 eV                                                          
   RCLOC  =    0.701    cutoff for local pot                                                        
   LCOR   =        T    correct aug charges                                                         
   LPAW   =        T    paw PP                                                                      
   EAUG   =  400.000                                                                                
   RMAX   =    1.123    core radius for proj-oper                                                   
   RAUG   =    1.200    factor for augmentation sphere                                              
   RDEP   =    1.112    radius for radial grids                                                     
   RDEPT  =    0.926    core radius for aug-charge                                                  
                                                                                                    
   Atomic configuration                                                                             
    2 entries                                                                                       
     n  l   j            E        occ.                                                              
     1  0  0.50        -6.4927   1.0000                                                             
     2  1  0.50        -3.4015   0.0000                                                             
   Description                                                                                      
     l       E           TYP  RCUT    TYP  RCUT                                                     
     0     -6.4927494     23  1.100                                                                 
     0      6.8029130     23  1.100                                                                 
     1     -4.0817478     23  1.100                                                                 
  local pseudopotential read in
  atomic valenz-charges read in
  non local Contribution for L=           0  read in
    real space projection operators read in
  non local Contribution for L=           0  read in
    real space projection operators read in
  non local Contribution for L=           1  read in
    real space projection operators read in
    PAW grid and wavefunctions read in
 
   number of l-projection  operators is LMAX  =           3
   number of lm-projection operators is LMMAX =           5
 
 Optimization of the real space projectors (new method)

 maximal supplied QI-value         = 25.13
 optimisation between [QCUT,QGAM] = [ 11.31, 22.87] = [ 35.82,146.48] Ry 
 Optimized for a Real-space Cutoff    1.03 Angstroem

   l    n(q)    QCUT    max X(q) W(low)/X(q) W(high)/X(q)  e(spline) 
   0      7    11.310   115.676    0.20E-03    0.90E-03    0.20E-06
   0      7    11.310    87.132    0.20E-03    0.89E-03    0.19E-06
   1      6    11.310     4.429    0.16E-03    0.28E-03    0.12E-06
   1      6    11.310     2.733    0.12E-03    0.21E-03    0.99E-07
 Optimization of the real space projectors (new method)

 maximal supplied QI-value         = 25.13
 optimisation between [QCUT,QGAM] = [ 11.31, 22.87] = [ 35.82,146.48] Ry 
 Optimized for a Real-space Cutoff    1.43 Angstroem

   l    n(q)    QCUT    max X(q) W(low)/X(q) W(high)/X(q)  e(spline) 
   0     10    11.310    79.467    0.42E-04    0.81E-04    0.60E-06
   0     10    11.310    66.151    0.40E-04    0.81E-04    0.60E-06
   1      9    11.310    17.416    0.14E-03    0.88E-04    0.14E-05
   1      9    11.310    12.382    0.15E-03    0.93E-04    0.14E-05
 Optimization of the real space projectors (new method)

 maximal supplied QI-value         = 19.84
 optimisation between [QCUT,QGAM] = [ 11.31, 22.82] = [ 35.82,145.81] Ry 
 Optimized for a Real-space Cutoff    1.20 Angstroem

   l    n(q)    QCUT    max X(q) W(low)/X(q) W(high)/X(q)  e(spline) 
   0      8    11.310   187.594    0.16E-03    0.19E-03    0.53E-07
   0      8    11.310   164.243    0.16E-03    0.19E-03    0.53E-07
   1      8    11.310    67.533    0.18E-03    0.19E-03    0.92E-07
   1      8    11.310    50.729    0.18E-03    0.19E-03    0.90E-07
 Optimization of the real space projectors (new method)

 maximal supplied QI-value         = 34.20
 optimisation between [QCUT,QGAM] = [ 11.29, 22.57] = [ 35.68,142.71] Ry 
 Optimized for a Real-space Cutoff    1.20 Angstroem

   l    n(q)    QCUT    max X(q) W(low)/X(q) W(high)/X(q)  e(spline) 
   0      8    11.287    19.460    0.22E-03    0.50E-03    0.19E-06
   0      8    11.287    12.209    0.21E-03    0.48E-03    0.18E-06
   1      8    11.287     4.655    0.21E-03    0.11E-04    0.26E-06
  PAW_PBE C 08Apr2002                   :
 energy of atom  1       EATOM= -147.1560
 kinetic energy error for atom=    0.0076 (will be added to EATOM!!)
  PAW_PBE N 08Apr2002                   :
 energy of atom  2       EATOM= -264.5486
 kinetic energy error for atom=    0.0138 (will be added to EATOM!!)
  PAW_PBE S 06Sep2000                   :
 energy of atom  3       EATOM= -276.8230
 kinetic energy error for atom=    0.0020 (will be added to EATOM!!)
  PAW_PBE H 15Jun2001                   :
 energy of atom  4       EATOM=  -12.4884
 kinetic energy error for atom=    0.0020 (will be added to EATOM!!)
 
 
 POSCAR: C N S H
  positions in direct lattice
  velocities in cartesian coordinates
 exchange correlation table for  LEXCH =        8
   RHO(1)=    0.500       N(1)  =     2000
   RHO(2)=  100.500       N(2)  =     4000
 
 POSCAR: C N S H
  positions in direct lattice
  velocities in cartesian coordinates
 
 POSCAR: C N S H
  positions in direct lattice
  velocities in cartesian coordinates
 


--------------------------------------------------------------------------------------------------------


 ion  position               nearest neighbor table
   1  0.466  0.504  0.500-   2 1.39   6 1.43  20 1.75
   2  0.434  0.519  0.500-  38 1.09   1 1.39   3 1.42
   3  0.405  0.499  0.500-  19 1.38   2 1.42   4 1.42
   4  0.409  0.463  0.500-  31 1.09   5 1.38   3 1.42
   5  0.440  0.449  0.500-  21 1.09   4 1.38   6 1.42
   6  0.470  0.469  0.500-  17 1.36   5 1.42   1 1.43
   7  0.530  0.469  0.500-  17 1.36   8 1.42  12 1.43
   8  0.560  0.449  0.500-  30 1.09   9 1.38   7 1.42
   9  0.591  0.463  0.500-  29 1.09   8 1.38  10 1.42
  10  0.595  0.499  0.500-  18 1.38  11 1.42   9 1.42
  11  0.566  0.519  0.500-  22 1.09  12 1.39  10 1.42
  12  0.534  0.504  0.500-  11 1.39   7 1.43  20 1.75
  13  0.630  0.549  0.500-  25 1.09  23 1.10  24 1.10  18 1.45
  14  0.656  0.492  0.501-  26 1.09  27 1.10  28 1.10  18 1.45
  15  0.344  0.492  0.499-  34 1.09  33 1.10  32 1.10  19 1.45
  16  0.370  0.549  0.500-  37 1.09  35 1.10  36 1.10  19 1.45
  17  0.500  0.452  0.500-   7 1.36   6 1.36
  18  0.626  0.513  0.500-  10 1.38  13 1.45  14 1.45
  19  0.374  0.513  0.500-   3 1.38  16 1.45  15 1.45
  20  0.500  0.531  0.500-   1 1.75  12 1.75
  21  0.443  0.422  0.500-   5 1.09
  22  0.568  0.546  0.500-  11 1.09
  23  0.619  0.561  0.478-  13 1.10
  24  0.618  0.561  0.523-  13 1.10
  25  0.657  0.556  0.501-  13 1.09
  26  0.678  0.508  0.501-  14 1.09
  27  0.657  0.476  0.523-  14 1.10
  28  0.657  0.476  0.478-  14 1.10
  29  0.613  0.447  0.500-   9 1.09
  30  0.557  0.422  0.500-   8 1.09
  31  0.387  0.447  0.500-   4 1.09
  32  0.343  0.476  0.522-  15 1.10
  33  0.343  0.476  0.477-  15 1.10
  34  0.322  0.508  0.499-  15 1.09
  35  0.381  0.561  0.522-  16 1.10
  36  0.382  0.561  0.477-  16 1.10
  37  0.343  0.556  0.499-  16 1.09
  38  0.432  0.546  0.500-   2 1.09
 
  LATTYP: Found a simple cubic cell.
 ALAT       =    40.0000000000
  
  Lattice vectors:
  
 A1 = (  40.0000000000,   0.0000000000,   0.0000000000)
 A2 = (   0.0000000000,  40.0000000000,   0.0000000000)
 A3 = (   0.0000000000,   0.0000000000,  40.0000000000)


Analysis of symmetry for initial positions (statically):
=====================================================================
 Subroutine PRICEL returns:
 Original cell was already a primitive cell.
 

 Routine SETGRP: Setting up the symmetry group for a 
 simple cubic supercell.


 Subroutine GETGRP returns: Found  1 space group operations
 (whereof  1 operations were pure point group operations)
 out of a pool of 48 trial point group operations.


The static configuration has the point symmetry C_1 .


Analysis of symmetry for dynamics (positions and initial velocities):
=====================================================================
 Subroutine PRICEL returns:
 Original cell was already a primitive cell.
 

 Routine SETGRP: Setting up the symmetry group for a 
 simple cubic supercell.


 Subroutine GETGRP returns: Found  1 space group operations
 (whereof  1 operations were pure point group operations)
 out of a pool of 48 trial point group operations.


The dynamic configuration has the point symmetry C_1 .


Analysis of constrained symmetry for selective dynamics:
=====================================================================
 Subroutine PRICEL returns:
 Original cell was already a primitive cell.
 

 Routine SETGRP: Setting up the symmetry group for a 
 simple cubic supercell.


 Subroutine GETGRP returns: Found  1 space group operations
 (whereof  1 operations were pure point group operations)
 out of a pool of 48 trial point group operations.


The constrained configuration has the point symmetry C_1 .


Analysis of structural, dynamic, and magnetic symmetry:
=====================================================================
 Subroutine PRICEL returns:
 Original cell was already a primitive cell.
 

 Routine SETGRP: Setting up the symmetry group for a 
 simple cubic supercell.


 Subroutine GETGRP returns: Found  1 space group operations
 (whereof  1 operations were pure point group operations)
 out of a pool of 48 trial point group operations.


The overall configuration has the point symmetry C_1 .


 Subroutine INISYM returns: Found  1 space group operations
 (whereof  1 operations are pure point group operations),
 and found     1 'primitive' translations


----------------------------------------------------------------------------------------

                                     Primitive cell                                     

  volume of cell :   64000.0000

  direct lattice vectors                    reciprocal lattice vectors
    40.000000000  0.000000000  0.000000000     0.025000000  0.000000000  0.000000000
     0.000000000 40.000000000  0.000000000     0.000000000  0.025000000  0.000000000
     0.000000000  0.000000000 40.000000000     0.000000000  0.000000000  0.025000000

  length of vectors
    40.000000000 40.000000000 40.000000000     0.025000000  0.025000000  0.025000000

  position of ions in fractional coordinates (direct lattice)
     0.465790429  0.504004556  0.499886261
     0.434100885  0.518528816  0.499803285
     0.404778170  0.498711833  0.499664626
     0.408965278  0.463379970  0.499660227
     0.440489863  0.449296712  0.499771869
     0.470400963  0.468521872  0.499880009
     0.529600722  0.468525103  0.500110922
     0.559514189  0.449303815  0.500207836
     0.591039753  0.463390059  0.500334512
     0.595219541  0.498724948  0.500354005
     0.565894383  0.518537114  0.500224098
     0.534209059  0.504011294  0.500129965
     0.629997618  0.549152263  0.500470007
     0.656168574  0.492125998  0.500534863
     0.343832112  0.492117506  0.499468946
     0.370000962  0.549144832  0.499523710
     0.500002886  0.451782271  0.499991268
     0.626489719  0.513044060  0.500477900
     0.373508242  0.513035392  0.499557785
     0.499996283  0.531364730  0.500020388
     0.443395806  0.422172115  0.499792828
     0.567769449  0.545726480  0.500228789
     0.618568410  0.560537437  0.478088416
     0.618324886  0.560552293  0.522719753
     0.656576958  0.555653405  0.500617396
     0.678393381  0.508081850  0.500670531
     0.657224431  0.475897692  0.522806102
     0.657405245  0.476028926  0.478175680
     0.612775717  0.447030998  0.500381610
     0.556611369  0.422179132  0.500166401
     0.387227509  0.447018238  0.499593660
     0.342616261  0.475966819  0.521791450
     0.342756440  0.475942727  0.477161128
     0.321605580  0.508074297  0.499393668
     0.381438062  0.560553420  0.521888335
     0.381663267  0.560522119  0.477256547
     0.343420985  0.555642231  0.499382530
     0.432226613  0.545716678  0.499815696

  ion indices of the primitive-cell ions
   primitive index   ion index
                 1           1
                 2           2
                 3           3
                 4           4
                 5           5
                 6           6
                 7           7
                 8           8
                 9           9
                10          10
                11          11
                12          12
                13          13
                14          14
                15          15
                16          16
                17          17
                18          18
                19          19
                20          20
                21          21
                22          22
                23          23
                24          24
                25          25
                26          26
                27          27
                28          28
                29          29
                30          30
                31          31
                32          32
                33          33
                34          34
                35          35
                36          36
                37          37
                38          38

----------------------------------------------------------------------------------------

 
 
 KPOINTS: K-Point Grid                            

Automatic generation of k-mesh.
 Grid dimensions read from file:
 generate k-points for:    1    1    1

 Generating k-lattice:

  Cartesian coordinates                     Fractional coordinates (reciprocal lattice)
     0.025000000  0.000000000  0.000000000     1.000000000  0.000000000  0.000000000
     0.000000000  0.025000000  0.000000000     0.000000000  1.000000000  0.000000000
     0.000000000  0.000000000  0.025000000     0.000000000  0.000000000  1.000000000

  Length of vectors
     0.025000000  0.025000000  0.025000000

  Shift w.r.t. Gamma in fractional coordinates (k-lattice)
     0.000000000  0.000000000  0.000000000

 
 Subroutine IBZKPT returns following result:
 ===========================================
 
 Found      1 irreducible k-points:
 
 Following reciprocal coordinates:
            Coordinates               Weight
  0.000000  0.000000  0.000000      1.000000
 
 Following cartesian coordinates:
            Coordinates               Weight
  0.000000  0.000000  0.000000      1.000000
 
 
 Subroutine IBZKPT_HF returns following result:
 ==============================================
 
 Found      1 k-points in 1st BZ
 the following      1 k-points will be used (e.g. in the exchange kernel)
 Following reciprocal coordinates:   # in IRBZ
  0.000000  0.000000  0.000000    1.00000000   1 t-inv F


--------------------------------------------------------------------------------------------------------




 Dimension of arrays:
   k-points           NKPTS =      1   k-points in BZ     NKDIM =      1   number of bands    NBANDS=     90
   number of dos      NEDOS =    301   number of ions     NIONS =     38
   non local maximal  LDIM  =      4   non local SUM 2l+1 LMDIM =      8
   total plane-waves  NPLWV = ******
   max r-space proj   IRMAX =   4928   max aug-charges    IRDMAX=  12708
   dimension x,y,z NGX =   294 NGY =  294 NGZ =  294
   dimension x,y,z NGXF=   588 NGYF=  588 NGZF=  588
   support grid    NGXF=   588 NGYF=  588 NGZF=  588
   ions per type =              16   3   1  18
   NGX,Y,Z   is equivalent  to a cutoff of  12.22, 12.22, 12.22 a.u.
   NGXF,Y,Z  is equivalent  to a cutoff of  24.44, 24.44, 24.44 a.u.

 SYSTEM =  184_red                                 
 POSCAR =  C N S H                                 

 Startparameter for this run:
   NWRITE =      2    write-flag & timer
   PREC   = accura    normal or accurate (medium, high low for compatibility)
   ISTART =      1    job   : 0-new  1-cont  2-samecut
   ICHARG =      2    charge: 1-file 2-atom 10-const
   ISPIN  =      2    spin polarized calculation?
   LNONCOLLINEAR =      F non collinear calculations
   LSORBIT =      F    spin-orbit coupling
   INIWAV =      1    electr: 0-lowe 1-rand  2-diag
   LASPH  =      F    aspherical Exc in radial PAW
 Electronic Relaxation 1
   ENCUT  =  500.0 eV  36.75 Ry    6.06 a.u.  72.93 72.93 72.93*2*pi/ulx,y,z
   ENINI  =  500.0     initial cutoff
   ENAUG  =  644.9 eV  augmentation charge cutoff
   NELM   =    500;   NELMIN=  2; NELMDL=  0     # of ELM steps 
   EDIFF  = 0.1E-04   stopping-criterion for ELM
   LREAL  =      T    real-space projection
   NLSPLINE    = F    spline interpolate recip. space projectors
   LCOMPAT=      F    compatible to vasp.4.4
   GGA_COMPAT  = T    GGA compatible to vasp.4.4-vasp.4.6
   LMAXPAW     = -100 max onsite density
   LMAXMIX     =    2 max onsite mixed and CHGCAR
   VOSKOWN=      0    Vosko Wilk Nusair interpolation
   ROPT   =   -0.00025  -0.00025  -0.00025  -0.00025
 Ionic relaxation
   EDIFFG = -.2E-01   stopping-criterion for IOM
   NSW    =      0    number of steps for IOM
   NBLOCK =      1;   KBLOCK =      1    inner block; outer block 
   IBRION =     -1    ionic relax: 0-MD 1-quasi-New 2-CG
   NFREE  =      1    steps in history (QN), initial steepest desc. (CG)
   ISIF   =      2    stress and relaxation
   IWAVPR =     10    prediction:  0-non 1-charg 2-wave 3-comb
   ISYM   =      3    0-nonsym 1-usesym 2-fastsym
   LCORR  =      T    Harris-Foulkes like correction to forces

   POTIM  = 0.5000    time-step for ionic-motion
   TEIN   =    0.0    initial temperature
   TEBEG  =    0.0;   TEEND  =   0.0 temperature during run
   SMASS  =  -3.00    Nose mass-parameter (am)
   estimated Nose-frequenzy (Omega)   =  0.10E-29 period in steps = 0.13E+47 mass=  -0.366E-25a.u.
   SCALEE = 1.0000    scale energy and forces
   NPACO  =    256;   APACO  = 10.0  distance and # of slots for P.C.
   PSTRESS=    0.0 pullay stress

  Mass of Ions in am
   POMASS =  12.01 14.00 32.07  1.00
  Ionic Valenz
   ZVAL   =   4.00  5.00  6.00  1.00
  Atomic Wigner-Seitz radii
   RWIGS  =  -1.00 -1.00 -1.00 -1.00
  virtual crystal weights 
   VCA    =   1.00  1.00  1.00  1.00
   NELECT =     103.0000    total number of electrons
   NUPDOWN=      -1.0000    fix difference up-down

 DOS related values:
   EMIN   =  10.00;   EMAX   =-10.00  energy-range for DOS
   EFERMI =   0.00
   ISMEAR =     0;   SIGMA  =   0.05  broadening in eV -4-tet -1-fermi 0-gaus

 Electronic relaxation 2 (details)
   IALGO  =     53    algorithm
   LDIAG  =      F    sub-space diagonalisation (order eigenvalues)
   LSUBROT=      F    optimize rotation matrix (better conditioning)
   TURBO    =      0    0=normal 1=particle mesh
   IRESTART =      0    0=no restart 2=restart with 2 vectors
   NREBOOT  =      0    no. of reboots
   NMIN     =      0    reboot dimension
   EREF     =   0.00    reference energy to select bands
   IMIX   =      4    mixing-type and parameters
     AMIX     =   0.40;   BMIX     =  1.00
     AMIX_MAG =   1.60;   BMIX_MAG =  1.00
     AMIN     =   0.10
     WC   =   100.;   INIMIX=   1;  MIXPRE=   1;  MAXMIX= -45

 Intra band minimization:
   WEIMIN = 0.0000     energy-eigenvalue tresh-hold
   EBREAK =  0.28E-07  absolut break condition
   DEPER  =   0.30     relativ break condition  

   TIME   =   0.40     timestep for ELM

  volume/ion in A,a.u.               =    1684.21     11365.61
  Fermi-wavevector in a.u.,A,eV,Ry     =   0.191849  0.362543  0.500779  0.036806
  Thomas-Fermi vector in A             =   0.933973
 
 Write flags
   LWAVE        =      T    write WAVECAR
   LDOWNSAMPLE  =      F    k-point downsampling of WAVECAR
   LCHARG       =      F    write CHGCAR
   LVTOT        =      F    write LOCPOT, total local potential
   LVHAR        =      F    write LOCPOT, Hartree potential only
   LELF         =      F    write electronic localiz. function (ELF)
   LORBIT       =      0    0 simple, 1 ext, 2 COOP (PROOUT), +10 PAW based schemes


 Dipole corrections
   LMONO  =      F    monopole corrections only (constant potential shift)
   LDIPOL =      F    correct potential (dipole corrections)
   IDIPOL =      0    1-x, 2-y, 3-z, 4-all directions 
   EPSILON=  1.0000000 bulk dielectric constant

 Exchange correlation treatment:
   GGA     =    --    GGA type
   LEXCH   =     8    internal setting for exchange type
   LIBXC   =     F    Libxc                    
   VOSKOWN =     0    Vosko Wilk Nusair interpolation
   EXXOEP  =     0    0=HF, 1=EXX-LHF (local Hartree Fock) 2=EXX OEP
   LHFCALC =     T    Hartree Fock is set to
   LSYMGRAD=     F    symmetrize gradient (conserves proper symmetry)
   PRECFOCK=normal    Normal, Fast or Accurate (Low or Medium for compatibility)
   LRHFCALC=     F    long range Hartree Fock
   LRSCOR  =     F    long range correlation only (use DFT for short range part)
   LTHOMAS =     F    Thomas Fermi screening in HF
   LMODELHF=     F    short range full HF, long range fraction AEXX
   FOCKCORR=     1    mode to apply convergence corrections
   LFOCKACE=     T    use Adeptively-Compressed-Exchange operator
   ENCUT4O =  -1.0   cutoff for four orbital integrals eV
   LMAXFOCK=     4    L truncation for augmentation on plane wave grid
   LMAXFOCKAE=  -1    L truncation for all-electron charge restoration on plane wave grid
   NMAXFOCKAE=   1    number of basis functions for all-electron charge restoration
   LFOCKAEDFT=     F  apply the AE augmentation even for DFT
   NKREDX  =     1    reduce k-point grid by
   NKREDY  =     1    reduce k-point grid by
   NKREDZ  =     1    reduce k-point grid by
   SHIFTRED=     F    shift reduced grid of Gamma
   HFKIDENT=     F    idential grid for each k-point
   ODDONLY =     F    use only odd q-grid points
   EVENONLY=     F    use only even q-grid points
   HFALPHA =   -1.0000 decay constant for conv. correction
   MCALPHA =    0.0000 extent of test-charge in conv. correction in multipole expansion
   AEXX    =    0.2500 exact exchange contribution
   HFSCREEN=    0.2000 screening length (either q_TF or 0.3 A-1)
   HFSCREENC=   0.2000 screening length for correlation (either q_TF or 0.3 A-1)
   HFRCUT  =    0.0000 spherical cutoff for potential kernel
   ALDAX   =    0.7500 LDA exchange part
   AGGAX   =    0.7500 GGA exchange part
   ALDAC   =    1.0000 LDA correlation
   AGGAC   =    1.0000 GGA correlation
   ENCUTFOCK=  -1.0 apply spherical cutoff to Coloumb kernel
   NBANDSGWLOW=     1    first orbital included in HF term
   NBLOCK_FOCK=    64    blocking factor in FOCK_ACC

 Linear response parameters
   LEPSILON=     F    determine dielectric tensor
   LRPA    =     F    only Hartree local field effects (RPA)
   LNABLA  =     F    use nabla operator in PAW spheres
   LVEL    =     F    velocity operator in full k-point grid
   CSHIFT  =0.1000    complex shift for real part using Kramers Kronig
   OMEGAMAX=  -1.0    maximum frequency
   DEG_THRESHOLD= 0.2000000E-02 threshold for treating states as degnerate
   RTIME   =   -0.100 relaxation time in fs
  (WPLASMAI=    0.000 imaginary part of plasma frequency in eV, 0.658/RTIME)
   DFIELD  = 0.0000000 0.0000000 0.0000000 field for delta impulse in time
 
  Optional k-point grid parameters
   LKPOINTS_OPT  =     F    use optional k-point grid
   KPOINTS_OPT_MODE=     1    mode for optional k-point grid
 
 Orbital magnetization related:
   ORBITALMAG=     F  switch on orbital magnetization
   LCHIMAG   =     F  perturbation theory with respect to B field
   DQ        =  0.001000  dq finite difference perturbation B field
   LLRAUG    =     F  two centre corrections for induced B field

 Solvation model:
   LSOL             =     T         switch on solvation model
   LSOL_SCF         =     T         include solvation in SCF
   ISOL             =     2         solvation model type
   EFERMI_ref       =  0.000000         reference Fermi level
   capacitance_init =  1.000000         initial capacitance
 Nonlinear solvation model:
   LNLDIEL     =     T         switch on non-linear dielectric mode
   LNLION      =     T         switch on non-linear ionic mode
   LNLTEST     =     F         test non-linear model in linear regime
   I_NLOC_SOL  =     1         type of nonlocal dielectric response
   NC_K        =  0.015000     cutoff charge density for cavities (1/Angstrom**3)
   TAU         =  0.000879     cavity formation energy (eV/Angstrom**2)
   SIGMA_K     =  0.600000     cavity width
   A_K         =  0.125000     smoothing length (Angstrom)
   R_SOLV      =  2.190000     solvent radius (Angstrom)
   R_CAV       =  0.000000     cavity radius (Angstrom)
   R_DIEL      =  1.000000     dielectric radius (Angstrom)
   R_ION       =  0.000000     ionic radius (Angstrom)
   R_B         =  0.000000     bound charge radius (Angstrom)
   SOLTEMP     =298.000000     solvent temperature (K)
   EB_K        = 35.688000     relative permittivity of the bulk solvent
   EPSILON_INF =  1.806900     optical relative permittivity of bulk solvent
   N_MOL       =  0.011500     molar density of solvent (1/Angstrom**3)
   P_MOL       =  0.820000     solvent dipole moment (e*Angstrom)
   C_MOLAR     =  0.000000     electrolyte concentration (mol/L)
   LAMBDA_D_K  =  0.000000     Debye length (Angstrom)
   ZION        =  1.000000     charge of ions in electrolyte (e)
   D_ION       = -1.000000     minimum ion packing diameter (Angstrom)



--------------------------------------------------------------------------------------------------------


 Static calculation
 charge density and potential will be updated during run
 spin polarized calculation
 Conjugate gradient for all bands (Kresse, et al. variant)
 perform Loewdin sub-space diagonalisation
    ordering is kept fixed
    before iterative eigenvector-optimisation
 modified Broyden-mixing scheme, WC =      100.0
 initial mixing is a Kerker type mixing with AMIX =  0.4000 and BMIX =      1.0000
 Hartree-type preconditioning will be used
 using additional bands           38
 real space projection scheme for non local part
 use partial core corrections
 no Harris-corrections to forces 
 use gradient corrections 
 use of overlap-Matrix (Vanderbilt PP)
 Gauss-broadening in eV      SIGMA  =   0.05


--------------------------------------------------------------------------------------------------------


  energy-cutoff  :      500.00
  volume of cell :    64000.00
      direct lattice vectors                 reciprocal lattice vectors
    40.000000000  0.000000000  0.000000000     0.025000000  0.000000000  0.000000000
     0.000000000 40.000000000  0.000000000     0.000000000  0.025000000  0.000000000
     0.000000000  0.000000000 40.000000000     0.000000000  0.000000000  0.025000000

  length of vectors
    40.000000000 40.000000000 40.000000000     0.025000000  0.025000000  0.025000000


 
 old parameters found on file WAVECAR:
  energy-cutoff  :      500.00
  volume of cell :    64000.00
      direct lattice vectors                 reciprocal lattice vectors
    40.000000000  0.000000000  0.000000000     0.025000000  0.000000000  0.000000000
     0.000000000 40.000000000  0.000000000     0.000000000  0.025000000  0.000000000
     0.000000000  0.000000000 40.000000000     0.000000000  0.000000000  0.025000000

  length of vectors

 
 k-points in units of 2pi/SCALE and weight: K-Point Grid                            
   0.00000000  0.00000000  0.00000000       1.000
 
 k-points in reciprocal lattice and weights: K-Point Grid                            
   0.00000000  0.00000000  0.00000000       1.000
 
 position of ions in fractional coordinates (direct lattice) 
   0.46579043  0.50400456  0.49988626
   0.43410088  0.51852882  0.49980329
   0.40477817  0.49871183  0.49966463
   0.40896528  0.46337997  0.49966023
   0.44048986  0.44929671  0.49977187
   0.47040096  0.46852187  0.49988001
   0.52960072  0.46852510  0.50011092
   0.55951419  0.44930381  0.50020784
   0.59103975  0.46339006  0.50033451
   0.59521954  0.49872495  0.50035401
   0.56589438  0.51853711  0.50022410
   0.53420906  0.50401129  0.50012996
   0.62999762  0.54915226  0.50047001
   0.65616857  0.49212600  0.50053486
   0.34383211  0.49211751  0.49946895
   0.37000096  0.54914483  0.49952371
   0.50000289  0.45178227  0.49999127
   0.62648972  0.51304406  0.50047790
   0.37350824  0.51303539  0.49955778
   0.49999628  0.53136473  0.50002039
   0.44339581  0.42217212  0.49979283
   0.56776945  0.54572648  0.50022879
   0.61856841  0.56053744  0.47808842
   0.61832489  0.56055229  0.52271975
   0.65657696  0.55565340  0.50061740
   0.67839338  0.50808185  0.50067053
   0.65722443  0.47589769  0.52280610
   0.65740524  0.47602893  0.47817568
   0.61277572  0.44703100  0.50038161
   0.55661137  0.42217913  0.50016640
   0.38722751  0.44701824  0.49959366
   0.34261626  0.47596682  0.52179145
   0.34275644  0.47594273  0.47716113
   0.32160558  0.50807430  0.49939367
   0.38143806  0.56055342  0.52188833
   0.38166327  0.56052212  0.47725655
   0.34342098  0.55564223  0.49938253
   0.43222661  0.54571668  0.49981570
 
 position of ions in cartesian coordinates  (Angst):
  18.63161716 20.16018223 19.99545043
  17.36403539 20.74115262 19.99213141
  16.19112681 19.94847330 19.98658505
  16.35861112 18.53519879 19.98640910
  17.61959451 17.97186849 19.99087476
  18.81603851 18.74087487 19.99520035
  21.18402889 18.74100412 20.00443688
  22.38056757 17.97215259 20.00831344
  23.64159010 18.53560237 20.01338047
  23.80878166 19.94899794 20.01416020
  22.63577533 20.74148454 20.00896391
  21.36836235 20.16045178 20.00519858
  25.19990471 21.96609051 20.01880029
  26.24674295 19.68503992 20.02139450
  13.75328447 19.68470024 19.97875784
  14.80003850 21.96579327 19.98094841
  20.00011543 18.07129083 19.99965070
  25.05958877 20.52176239 20.01911599
  14.94032970 20.52141569 19.98231138
  19.99985133 21.25458921 20.00081553
  17.73583224 16.88688460 19.99171313
  22.71077797 21.82905919 20.00915157
  24.74273642 22.42149748 19.12353663
  24.73299544 22.42209172 20.90879012
  26.26307833 22.22613620 20.02469584
  27.13573523 20.32327401 20.02682124
  26.28897726 19.03590769 20.91224408
  26.29620980 19.04115705 19.12702719
  24.51102868 17.88123991 20.01526440
  22.26445474 16.88716529 20.00665605
  15.48910037 17.88072951 19.98374638
  13.70465042 19.03867277 20.87165798
  13.71025760 19.03770909 19.08644513
  12.86422319 20.32297186 19.97574672
  15.25752249 22.42213682 20.87553339
  15.26653067 22.42088476 19.09026190
  13.73683940 22.22568923 19.97530118
  17.28906450 21.82866713 19.99262783
 


--------------------------------------------------------------------------------------------------------


 k-point   1 :   0.0000 0.0000 0.0000  plane waves: 1624525

 maximum and minimum number of plane-waves per node :    162473   162437

 maximum number of plane-waves:   1624525
 maximum index in each direction: 
   IXMAX=   72   IYMAX=   72   IZMAX=   72
   IXMIN=  -72   IYMIN=  -72   IZMIN=  -72


 real space projection operators:
  total allocation   :       4809.12 KBytes
  max/ min on nodes  :        485.88        472.12


 parallel 3D FFT for wavefunctions:
    minimum data exchange during FFTs selected (reduces bandwidth)
 parallel 3D FFT for charge:
    minimum data exchange during FFTs selected (reduces bandwidth)


 FFT grid for exact exchange (Hartree Fock) 
  NGX =224; NGY =224; NGZ =224

 
 Radii for the augmentation spheres in the non-local exchange
 for species   1 augmentation radius   0.874 (default was   0.699)
       energy cutoff for augmentation   2000.0
 for species   2 augmentation radius   0.886 (default was   0.709)
       energy cutoff for augmentation   2000.0
 for species   3 augmentation radius   1.212 (default was   0.970)
       energy cutoff for augmentation   2000.0
 for species   4 augmentation radius   0.650 (default was   0.520)
       energy cutoff for augmentation   2000.0

 real space projection operators:
  total allocation   :       1007.44 KBytes
  max/ min on nodes  :        114.33         84.23

 Maximum index for augmentation-charges in exchange          137
  SETUP_FOCK is finished

 total amount of memory used by VASP MPI-rank0   855877. kBytes
=======================================================================

   base      :      30000. kBytes
   nonlr-proj:       4779. kBytes
   fftplans  :     224335. kBytes
   grid      :     440727. kBytes
   one-center:         24. kBytes
   HF        :          9. kBytes
   wavefun   :     156003. kBytes
 
     INWAV:  cpu time     24.1853: real time     24.2116
 Broyden mixing: mesh for mixing (old mesh)
   NGX =145   NGY =145   NGZ =145
  (NGX  =588   NGY  =588   NGZ  =588)
  gives a total of ****** points

 initial charge density was supplied:
 charge density of overlapping atoms calculated
 number of electron     103.0000000 magnetization      38.0000000
 charge density for first step will be calculated from the start-wavefunctions


--------------------------------------------------------------------------------------------------------


 Maximum index for non-local projection operator          521
 Maximum index for augmentation-charges          283 (set IRDMAX)


--------------------------------------------------------------------------------------------------------


 initial charge from wavefunction
 First call to EWALD:  gamma=   0.044
 Maximum number of real-space cells 3x 3x 3
 Maximum number of reciprocal cells 3x 3x 3

    FEWALD:  cpu time      0.0043: real time      0.0043


--------------------------------------- Iteration      1(   1)  ---------------------------------------


    POTLOK:  cpu time     12.9391: real time     12.9402
    SETDIJ:  cpu time      0.0769: real time      0.0770
    TRIAL :  cpu time    556.7558: real time    556.7982
    CORREC:  cpu time      0.1782: real time      0.1782
    CHARGE:  cpu time      3.7449: real time      3.7453
    --------------------------------------------
      LOOP:  cpu time    573.7647: real time    573.8090

 eigenvalue-minimisations  :     0
 total energy-change (2. order) :-0.2767548E+03  (-0.1809727E+00)
 number of electron     102.9999997 magnetization       1.0000001
 augmentation part        1.7741587 magnetization       0.0834952

 Free energy of the ion-electron system (eV)
  ---------------------------------------------------
  alpha Z        PSCENC =         0.74392250
  Ewald energy   TEWEN  =     14467.35651003
  -Hartree energ DENC   =    -17426.18083900
  -exchange      EXHF   =       230.21662856
  -V(xc)+E(xc)   XCENC  =       264.27374264
  PAW double counting   =     10097.91415172   -10105.94515265
  entropy T*S    EENTRO =        -0.00000000
  eigenvalues    EBANDS =     -1408.34495841
  atomic energy  EATOM  =      3603.21119048
  ---------------------------------------------------
  free energy    TOTEN  =      -276.75480412 eV

  energy without entropy =     -276.75480412  energy(sigma->0) =     -276.75480412
  exchange ACFDT corr.  =        -0.00000000  see jH, gK, PRB 81, 115126


--------------------------------------------------------------------------------------------------------




--------------------------------------- Iteration      1(   2)  ---------------------------------------


    --------------------------------------------
      INIT:  cpu time      0.3890: real time      0.3890
  FINALIZE:  cpu time     97.2558: real time     97.2646
    --------------------------------------------
    POTLOK:  cpu time    112.3043: real time    112.3143
    SETDIJ:  cpu time      0.0767: real time      0.0767
    TRIAL :  cpu time    586.7874: real time    586.8358
    CORREC:  cpu time      0.6348: real time      0.6349
    CHARGE:  cpu time      3.7489: real time      3.7492
    --------------------------------------------
      LOOP:  cpu time    703.6127: real time    703.6772

 eigenvalue-minimisations  :     0
 total energy-change (2. order) : 0.1553064E+00  (-0.3883617E-01)
 number of electron     102.9999997 magnetization       1.0000001
 augmentation part        1.7756309 magnetization       0.0832194

 Free energy of the ion-electron system (eV)
  ---------------------------------------------------
  alpha Z        PSCENC =         0.74392250
  Ewald energy   TEWEN  =     14467.35651003
  -Hartree energ DENC   =    -17415.44732070
  -exchange      EXHF   =       230.12604632
  -V(xc)+E(xc)   XCENC  =       264.17669540
  PAW double counting   =     10074.54432128   -10082.57199992
  entropy T*S    EENTRO =        -0.00000000
  eigenvalues    EBANDS =     -1438.84936071
  atomic energy  EATOM  =      3603.21119048
  ---------------------------------------------------
  free energy    TOTEN  =      -276.59949772 eV

  energy without entropy =     -276.59949772  energy(sigma->0) =     -276.59949772
  exchange ACFDT corr.  =        -0.00000000  see jH, gK, PRB 81, 115126


--------------------------------------------------------------------------------------------------------




--------------------------------------- Iteration      1(   3)  ---------------------------------------


    --------------------------------------------
      INIT:  cpu time      0.4239: real time      0.4240
  FINALIZE:  cpu time     53.7521: real time     53.7565
    --------------------------------------------
    POTLOK:  cpu time     71.9282: real time     71.9340
    SETDIJ:  cpu time      0.0737: real time      0.0737
    TRIAL :  cpu time    595.3845: real time    595.4492
    CORREC:  cpu time      0.0070: real time      0.0070
    CHARGE:  cpu time      3.9377: real time      3.9380
    --------------------------------------------
      LOOP:  cpu time    671.3693: real time    671.4460

 eigenvalue-minimisations  :     0
 total energy-change (2. order) :-0.2350568E-01  (-0.2027157E-01)
 number of electron     102.9999997 magnetization       1.0000001
 augmentation part        1.7766258 magnetization       0.0829577

 Free energy of the ion-electron system (eV)
  ---------------------------------------------------
  alpha Z        PSCENC =         0.74392250
  Ewald energy   TEWEN  =     14467.35651003
  -Hartree energ DENC   =    -17419.14882659
  -exchange      EXHF   =       230.19921347
  -V(xc)+E(xc)   XCENC  =       264.24463352
  PAW double counting   =     10075.42535561   -10083.45843486
  entropy T*S    EENTRO =        -0.00000000
  eigenvalues    EBANDS =     -1435.46996267
  atomic energy  EATOM  =      3603.21119048
  ---------------------------------------------------
  free energy    TOTEN  =      -276.62300340 eV

  energy without entropy =     -276.62300340  energy(sigma->0) =     -276.62300340
  exchange ACFDT corr.  =        -0.00000000  see jH, gK, PRB 81, 115126


--------------------------------------------------------------------------------------------------------




--------------------------------------- Iteration      1(   4)  ---------------------------------------


    --------------------------------------------
      INIT:  cpu time      0.3924: real time      0.3924
  FINALIZE:  cpu time     52.7703: real time     52.7749
    --------------------------------------------
    POTLOK:  cpu time     67.7079: real time     67.7138
    SETDIJ:  cpu time      0.0752: real time      0.0752
    TRIAL :  cpu time    597.6917: real time    597.7412
    CORREC:  cpu time      0.1304: real time      0.1305
    CHARGE:  cpu time      4.1340: real time      4.1348
    --------------------------------------------
      LOOP:  cpu time    669.7726: real time    669.8334

 eigenvalue-minimisations  :     0
 total energy-change (2. order) :-0.1138485E-01  (-0.6541188E-02)
 number of electron     102.9999997 magnetization       1.0000001
 augmentation part        1.7761411 magnetization       0.0827339

 Free energy of the ion-electron system (eV)
  ---------------------------------------------------
  alpha Z        PSCENC =         0.74392250
  Ewald energy   TEWEN  =     14467.35651003
  -Hartree energ DENC   =    -17423.43891250
  -exchange      EXHF   =       230.25282026
  -V(xc)+E(xc)   XCENC  =       264.29509370
  PAW double counting   =     10083.97166039   -10092.00728646
  entropy T*S    EENTRO =        -0.00000000
  eigenvalues    EBANDS =     -1432.25079083
  atomic energy  EATOM  =      3603.21119048
  ---------------------------------------------------
  free energy    TOTEN  =      -276.63438824 eV

  energy without entropy =     -276.63438824  energy(sigma->0) =     -276.63438824
  exchange ACFDT corr.  =        -0.00000000  see jH, gK, PRB 81, 115126


--------------------------------------------------------------------------------------------------------




--------------------------------------- Iteration      1(   5)  ---------------------------------------


    --------------------------------------------
      INIT:  cpu time      0.3886: real time      0.3887
  FINALIZE:  cpu time     48.4471: real time     48.4518
    --------------------------------------------
    POTLOK:  cpu time     63.7838: real time     63.7899
    SETDIJ:  cpu time      0.0765: real time      0.0765
    TRIAL :  cpu time    599.8618: real time    599.9167
    CORREC:  cpu time      0.0025: real time      0.0024
    CHARGE:  cpu time      4.8981: real time      4.8985
    --------------------------------------------
      LOOP:  cpu time    668.6691: real time    668.7374

 eigenvalue-minimisations  :     0
 total energy-change (2. order) :-0.3283981E-02  (-0.2124814E-02)
 number of electron     102.9999997 magnetization       1.0000001
 augmentation part        1.7756404 magnetization       0.0826165

 Free energy of the ion-electron system (eV)
  ---------------------------------------------------
  alpha Z        PSCENC =         0.74392250
  Ewald energy   TEWEN  =     14467.35651003
  -Hartree energ DENC   =    -17423.71856606
  -exchange      EXHF   =       230.23726213
  -V(xc)+E(xc)   XCENC  =       264.27856333
  PAW double counting   =     10088.05265649   -10096.08609177
  entropy T*S    EENTRO =        -0.00000000
  eigenvalues    EBANDS =     -1432.39421720
  atomic energy  EATOM  =      3603.21119048
  ---------------------------------------------------
  free energy    TOTEN  =      -276.63767223 eV

  energy without entropy =     -276.63767223  energy(sigma->0) =     -276.63767223
  exchange ACFDT corr.  =        -0.00000000  see jH, gK, PRB 81, 115126


--------------------------------------------------------------------------------------------------------




--------------------------------------- Iteration      1(   6)  ---------------------------------------


    --------------------------------------------
      INIT:  cpu time      1.2145: real time      1.2146
  FINALIZE:  cpu time     50.3695: real time     50.3739
    --------------------------------------------
    POTLOK:  cpu time     70.5581: real time     70.5641
    SETDIJ:  cpu time      0.0789: real time      0.0789
    TRIAL :  cpu time    599.3384: real time    599.4053
    CORREC:  cpu time      0.0014: real time      0.0014
    CHARGE:  cpu time      3.7534: real time      3.7538
    --------------------------------------------
      LOOP:  cpu time    673.7691: real time    673.8470

 eigenvalue-minimisations  :     0
 total energy-change (2. order) :-0.1035324E-02  (-0.9198404E-03)
 number of electron     102.9999997 magnetization       1.0000001
 augmentation part        1.7757951 magnetization       0.0825680

 Free energy of the ion-electron system (eV)
  ---------------------------------------------------
  alpha Z        PSCENC =         0.74392250
  Ewald energy   TEWEN  =     14467.35651003
  -Hartree energ DENC   =    -17422.80977035
  -exchange      EXHF   =       230.21651097
  -V(xc)+E(xc)   XCENC  =       264.25697569
  PAW double counting   =     10088.15710863   -10096.18871457
  entropy T*S    EENTRO =        -0.00000000
  eigenvalues    EBANDS =     -1433.33396354
  atomic energy  EATOM  =      3603.21119048
  ---------------------------------------------------
  free energy    TOTEN  =      -276.63870755 eV

  energy without entropy =     -276.63870755  energy(sigma->0) =     -276.63870755
  exchange ACFDT corr.  =        -0.00000000  see jH, gK, PRB 81, 115126


--------------------------------------------------------------------------------------------------------




--------------------------------------- Iteration      1(   7)  ---------------------------------------


    --------------------------------------------
      INIT:  cpu time      1.1441: real time      1.1441
  FINALIZE:  cpu time     56.2282: real time     56.2330
    --------------------------------------------
    POTLOK:  cpu time     74.1924: real time     74.1987
    SETDIJ:  cpu time      0.0766: real time      0.0766
    TRIAL :  cpu time    600.3249: real time    600.3820
    CORREC:  cpu time      0.1873: real time      0.1873
    CHARGE:  cpu time      3.7527: real time      3.7530
    --------------------------------------------
      LOOP:  cpu time    678.5718: real time    678.6412

 eigenvalue-minimisations  :     0
 total energy-change (2. order) :-0.5312947E-03  (-0.4195006E-03)
 number of electron     102.9999997 magnetization       1.0000001
 augmentation part        1.7760537 magnetization       0.0825463

 Free energy of the ion-electron system (eV)
  ---------------------------------------------------
  alpha Z        PSCENC =         0.74392250
  Ewald energy   TEWEN  =     14467.35651003
  -Hartree energ DENC   =    -17422.79983620
  -exchange      EXHF   =       230.22090951
  -V(xc)+E(xc)   XCENC  =       264.26044008
  PAW double counting   =     10087.64633892   -10095.67849782
  entropy T*S    EENTRO =        -0.00000000
  eigenvalues    EBANDS =     -1433.31856873
  atomic energy  EATOM  =      3603.21119048
  ---------------------------------------------------
  free energy    TOTEN  =      -276.63923884 eV

  energy without entropy =     -276.63923884  energy(sigma->0) =     -276.63923884
  exchange ACFDT corr.  =        -0.00000000  see jH, gK, PRB 81, 115126


--------------------------------------------------------------------------------------------------------




--------------------------------------- Iteration      1(   8)  ---------------------------------------


    --------------------------------------------
      INIT:  cpu time      0.3854: real time      0.3854
  FINALIZE:  cpu time     58.3651: real time     58.3704
    --------------------------------------------
    POTLOK:  cpu time     76.1808: real time     76.1879
    SETDIJ:  cpu time      0.0780: real time      0.0780
    TRIAL :  cpu time    596.9721: real time    597.0240
    CORREC:  cpu time      0.3899: real time      0.3900
    CHARGE:  cpu time      3.7542: real time      3.7545
    --------------------------------------------
      LOOP:  cpu time    677.4068: real time    677.4749

 eigenvalue-minimisations  :     0
 total energy-change (2. order) :-0.2607937E-03  (-0.1984322E-03)
 number of electron     102.9999997 magnetization       1.0000001
 augmentation part        1.7760972 magnetization       0.0825275

 Free energy of the ion-electron system (eV)
  ---------------------------------------------------
  alpha Z        PSCENC =         0.74392250
  Ewald energy   TEWEN  =     14467.35651003
  -Hartree energ DENC   =    -17423.06688603
  -exchange      EXHF   =       230.22937641
  -V(xc)+E(xc)   XCENC  =       264.26848523
  PAW double counting   =     10087.20405609   -10095.23714068
  entropy T*S    EENTRO =        -0.00000000
  eigenvalues    EBANDS =     -1433.04188863
  atomic energy  EATOM  =      3603.21119048
  ---------------------------------------------------
  free energy    TOTEN  =      -276.63949964 eV

  energy without entropy =     -276.63949964  energy(sigma->0) =     -276.63949964
  exchange ACFDT corr.  =        -0.00000000  see jH, gK, PRB 81, 115126


--------------------------------------------------------------------------------------------------------




--------------------------------------- Iteration      1(   9)  ---------------------------------------


    --------------------------------------------
      INIT:  cpu time      1.1657: real time      1.1658
  FINALIZE:  cpu time     56.6272: real time     56.6321
    --------------------------------------------
    POTLOK:  cpu time     73.0826: real time     73.0888
    SETDIJ:  cpu time      0.0768: real time      0.0768
    TRIAL :  cpu time    597.3069: real time    597.3766
    CORREC:  cpu time      0.0432: real time      0.0432
    CHARGE:  cpu time      3.9244: real time      3.9247
    --------------------------------------------
      LOOP:  cpu time    674.4695: real time    674.5513

 eigenvalue-minimisations  :     0
 total energy-change (2. order) :-0.1301243E-03  (-0.9828955E-04)
 number of electron     102.9999997 magnetization       1.0000001
 augmentation part        1.7760285 magnetization       0.0825075

 Free energy of the ion-electron system (eV)
  ---------------------------------------------------
  alpha Z        PSCENC =         0.74392250
  Ewald energy   TEWEN  =     14467.35651003
  -Hartree energ DENC   =    -17423.09225311
  -exchange      EXHF   =       230.23031933
  -V(xc)+E(xc)   XCENC  =       264.26952035
  PAW double counting   =     10086.81043852   -10094.84371364
  entropy T*S    EENTRO =        -0.00000000
  eigenvalues    EBANDS =     -1433.00299638
  atomic energy  EATOM  =      3603.21119048
  ---------------------------------------------------
  free energy    TOTEN  =      -276.63962976 eV

  energy without entropy =     -276.63962976  energy(sigma->0) =     -276.63962976
  exchange ACFDT corr.  =        -0.00000000  see jH, gK, PRB 81, 115126


--------------------------------------------------------------------------------------------------------




--------------------------------------- Iteration      1(  10)  ---------------------------------------


    --------------------------------------------
      INIT:  cpu time      0.4026: real time      0.4028
  FINALIZE:  cpu time     53.2718: real time     53.2769
    --------------------------------------------
    POTLOK:  cpu time     68.6206: real time     68.6271
    SETDIJ:  cpu time      0.0750: real time      0.0750
    TRIAL :  cpu time    596.5075: real time    596.5586
    CORREC:  cpu time      0.1656: real time      0.1656
    CHARGE:  cpu time      4.3173: real time      4.3177
    --------------------------------------------
      LOOP:  cpu time    669.7265: real time    669.7895

 eigenvalue-minimisations  :     0
 total energy-change (2. order) :-0.6909533E-04  (-0.5243088E-04)
 number of electron     102.9999997 magnetization       1.0000001
 augmentation part        1.7760137 magnetization       0.0824935

 Free energy of the ion-electron system (eV)
  ---------------------------------------------------
  alpha Z        PSCENC =         0.74392250
  Ewald energy   TEWEN  =     14467.35651003
  -Hartree energ DENC   =    -17422.98735358
  -exchange      EXHF   =       230.22788634
  -V(xc)+E(xc)   XCENC  =       264.26717850
  PAW double counting   =     10086.52446565   -10094.55749974
  entropy T*S    EENTRO =        -0.00000000
  eigenvalues    EBANDS =     -1433.09583685
  atomic energy  EATOM  =      3603.21119048
  ---------------------------------------------------
  free energy    TOTEN  =      -276.63969886 eV

  energy without entropy =     -276.63969886  energy(sigma->0) =     -276.63969886
  exchange ACFDT corr.  =        -0.00000000  see jH, gK, PRB 81, 115126


--------------------------------------------------------------------------------------------------------




--------------------------------------- Iteration      1(  11)  ---------------------------------------


    --------------------------------------------
      INIT:  cpu time      0.3867: real time      0.3868
  FINALIZE:  cpu time     51.6619: real time     51.6658
    --------------------------------------------
    POTLOK:  cpu time     68.8657: real time     68.8709
    SETDIJ:  cpu time      0.0775: real time      0.0775
    TRIAL :  cpu time    597.9428: real time    598.0120
    CORREC:  cpu time      0.6422: real time      0.6423
    CHARGE:  cpu time      4.5513: real time      4.5517
    --------------------------------------------
      LOOP:  cpu time    672.1112: real time    672.1920

 eigenvalue-minimisations  :     0
 total energy-change (2. order) :-0.4130037E-04  (-0.3352418E-04)
 number of electron     102.9999997 magnetization       1.0000001
 augmentation part        1.7760388 magnetization       0.0824837

 Free energy of the ion-electron system (eV)
  ---------------------------------------------------
  alpha Z        PSCENC =         0.74392250
  Ewald energy   TEWEN  =     14467.35651003
  -Hartree energ DENC   =    -17422.95922298
  -exchange      EXHF   =       230.22757332
  -V(xc)+E(xc)   XCENC  =       264.26669278
  PAW double counting   =     10086.38260958   -10094.41555237
  entropy T*S    EENTRO =        -0.00000000
  eigenvalues    EBANDS =     -1433.12036591
  atomic energy  EATOM  =      3603.21119048
  ---------------------------------------------------
  free energy    TOTEN  =      -276.63974016 eV

  energy without entropy =     -276.63974016  energy(sigma->0) =     -276.63974016
  exchange ACFDT corr.  =        -0.00000000  see jH, gK, PRB 81, 115126


--------------------------------------------------------------------------------------------------------




--------------------------------------- Iteration      1(  12)  ---------------------------------------


    --------------------------------------------
      INIT:  cpu time      0.3810: real time      0.3811
  FINALIZE:  cpu time     55.5944: real time     55.5994
    --------------------------------------------
    POTLOK:  cpu time     71.0956: real time     71.1020
    SETDIJ:  cpu time      0.0753: real time      0.0753
    TRIAL :  cpu time    594.0010: real time    594.0843
    CORREC:  cpu time      0.8699: real time      0.8699
    CHARGE:  cpu time      3.9419: real time      3.9422
    --------------------------------------------
      LOOP:  cpu time    670.0258: real time    670.1306

 eigenvalue-minimisations  :     0
 total energy-change (2. order) :-0.2886323E-04  (-0.2435979E-04)
 number of electron     102.9999997 magnetization       1.0000001
 augmentation part        1.7760546 magnetization       0.0824746

 Free energy of the ion-electron system (eV)
  ---------------------------------------------------
  alpha Z        PSCENC =         0.74392250
  Ewald energy   TEWEN  =     14467.35651003
  -Hartree energ DENC   =    -17422.97823672
  -exchange      EXHF   =       230.22852121
  -V(xc)+E(xc)   XCENC  =       264.26738602
  PAW double counting   =     10086.32790110   -10094.36089288
  entropy T*S    EENTRO =        -0.00000000
  eigenvalues    EBANDS =     -1433.09990579
  atomic energy  EATOM  =      3603.21119048
  ---------------------------------------------------
  free energy    TOTEN  =      -276.63976902 eV

  energy without entropy =     -276.63976902  energy(sigma->0) =     -276.63976902
  exchange ACFDT corr.  =        -0.00000000  see jH, gK, PRB 81, 115126


--------------------------------------------------------------------------------------------------------




--------------------------------------- Iteration      1(  13)  ---------------------------------------


    --------------------------------------------
      INIT:  cpu time      0.3921: real time      0.3921
  FINALIZE:  cpu time     59.4494: real time     59.4539
    --------------------------------------------
    POTLOK:  cpu time     74.3847: real time     74.3903
    SETDIJ:  cpu time      0.0771: real time      0.0771
    TRIAL :  cpu time    598.1961: real time    598.2407
    CORREC:  cpu time      0.6416: real time      0.6416
    CHARGE:  cpu time      3.7424: real time      3.7427
    --------------------------------------------
      LOOP:  cpu time    677.0799: real time    677.1358

 eigenvalue-minimisations  :     0
 total energy-change (2. order) :-0.2184941E-04  (-0.1868177E-04)
 number of electron     102.9999997 magnetization       1.0000001
 augmentation part        1.7760554 magnetization       0.0824649

 Free energy of the ion-electron system (eV)
  ---------------------------------------------------
  alpha Z        PSCENC =         0.74392250
  Ewald energy   TEWEN  =     14467.35651003
  -Hartree energ DENC   =    -17422.98328220
  -exchange      EXHF   =       230.22904915
  -V(xc)+E(xc)   XCENC  =       264.26773549
  PAW double counting   =     10086.29670684   -10094.32974332
  entropy T*S    EENTRO =        -0.00000000
  eigenvalues    EBANDS =     -1433.09196618
  atomic energy  EATOM  =      3603.21119048
  ---------------------------------------------------
  free energy    TOTEN  =      -276.63979087 eV

  energy without entropy =     -276.63979087  energy(sigma->0) =     -276.63979087
  exchange ACFDT corr.  =        -0.00000000  see jH, gK, PRB 81, 115126


--------------------------------------------------------------------------------------------------------




--------------------------------------- Iteration      1(  14)  ---------------------------------------


    --------------------------------------------
      INIT:  cpu time      0.3886: real time      0.3886
  FINALIZE:  cpu time     58.6968: real time     58.7020
    --------------------------------------------
    POTLOK:  cpu time     74.5596: real time     74.5661
    SETDIJ:  cpu time      0.0750: real time      0.0750
    TRIAL :  cpu time    597.2488: real time    597.3000
    CORREC:  cpu time      0.0433: real time      0.0433
    CHARGE:  cpu time      3.7538: real time      3.7541
    --------------------------------------------
      LOOP:  cpu time    675.7112: real time    675.7751

 eigenvalue-minimisations  :     0
 total energy-change (2. order) :-0.1704322E-04  (-0.1453038E-04)
 number of electron     102.9999997 magnetization       1.0000001
 augmentation part        1.7760545 magnetization       0.0824553

 Free energy of the ion-electron system (eV)
  ---------------------------------------------------
  alpha Z        PSCENC =         0.74392250
  Ewald energy   TEWEN  =     14467.35651003
  -Hartree energ DENC   =    -17422.97217142
  -exchange      EXHF   =       230.22905935
  -V(xc)+E(xc)   XCENC  =       264.26764745
  PAW double counting   =     10086.26912178   -10094.30216667
  entropy T*S    EENTRO =        -0.00000000
  eigenvalues    EBANDS =     -1433.09973343
  atomic energy  EATOM  =      3603.21119048
  ---------------------------------------------------
  free energy    TOTEN  =      -276.63980791 eV

  energy without entropy =     -276.63980791  energy(sigma->0) =     -276.63980791
  exchange ACFDT corr.  =        -0.00000000  see jH, gK, PRB 81, 115126


--------------------------------------------------------------------------------------------------------




--------------------------------------- Iteration      1(  15)  ---------------------------------------


    --------------------------------------------
      INIT:  cpu time      0.4026: real time      0.4027
  FINALIZE:  cpu time     58.5231: real time     58.5286
    --------------------------------------------
    POTLOK:  cpu time     77.3691: real time     77.3761
    SETDIJ:  cpu time      0.0743: real time      0.0744
    TRIAL :  cpu time    599.4762: real time    599.5237
    CORREC:  cpu time      0.0401: real time      0.0401
    CHARGE:  cpu time      3.7475: real time      3.7478
    --------------------------------------------
      LOOP:  cpu time    680.7393: real time    680.7996

 eigenvalue-minimisations  :     0
 total energy-change (2. order) :-0.1336434E-04  (-0.1123893E-04)
 number of electron     102.9999997 magnetization       1.0000001
 augmentation part        1.7760570 magnetization       0.0824465

 Free energy of the ion-electron system (eV)
  ---------------------------------------------------
  alpha Z        PSCENC =         0.74392250
  Ewald energy   TEWEN  =     14467.35651003
  -Hartree energ DENC   =    -17422.96348564
  -exchange      EXHF   =       230.22905906
  -V(xc)+E(xc)   XCENC  =       264.26757574
  PAW double counting   =     10086.25142086   -10094.28446990
  entropy T*S    EENTRO =        -0.00000000
  eigenvalues    EBANDS =     -1433.10595496
  atomic energy  EATOM  =      3603.21119048
  ---------------------------------------------------
  free energy    TOTEN  =      -276.63982128 eV

  energy without entropy =     -276.63982128  energy(sigma->0) =     -276.63982128
  exchange ACFDT corr.  =        -0.00000000  see jH, gK, PRB 81, 115126


[...]
     59      -0.0827      0.00000
     60       0.0300      0.00000
     61       0.0802      0.00000
     62       0.0517      0.00000
     63       0.1555      0.00000
     64       0.1253      0.00000
     65       0.1400      0.00000
     66       0.1326      0.00000
     67       0.1458      0.00000
     68       0.1641      0.00000
     69       0.1665      0.00000
     70       0.1949      0.00000
     71       0.2173      0.00000
     72       0.2150      0.00000
     73       0.2208      0.00000
     74       0.2193      0.00000
     75       0.2211      0.00000
     76       0.2370      0.00000
     77       0.2505      0.00000
     78       0.2675      0.00000
     79       0.2599      0.00000
     80       0.2847      0.00000
     81       0.2774      0.00000
     82       0.2820      0.00000
     83       0.3070      0.00000
     84       0.3261      0.00000
     85       0.3515      0.00000
     86       0.3116      0.00000
     87       0.3394      0.00000
     88       0.3513      0.00000
     89       0.3648      0.00000
     90       0.3932      0.00000
 Fermi energy:        -3.6671140894

 spin component 2

 k-point     1 :       0.0000    0.0000    0.0000
  band No.  band energies     occupation 
      1     -26.3800      1.00000
      2     -26.3722      1.00000
      3     -25.4044      1.00000
      4     -23.3962      1.00000
      5     -23.0338      1.00000
      6     -22.0644      1.00000
      7     -20.8690      1.00000
      8     -20.6885      1.00000
      9     -20.3009      1.00000
     10     -19.9356      1.00000
     11     -19.7892      1.00000
     12     -18.8509      1.00000
     13     -18.4347      1.00000
     14     -17.3642      1.00000
     15     -16.5636      1.00000
     16     -16.4748      1.00000
     17     -16.0218      1.00000
     18     -14.8913      1.00000
     19     -14.7559      1.00000
     20     -13.9974      1.00000
     21     -13.7068      1.00000
     22     -13.6574      1.00000
     23     -13.0280      1.00000
     24     -12.7317      1.00000
     25     -12.7262      1.00000
     26     -12.2339      1.00000
     27     -12.0278      1.00000
     28     -11.8441      1.00000
     29     -11.5964      1.00000
     30     -11.3699      1.00000
     31     -11.1000      1.00000
     32     -11.3490      1.00000
     33     -11.0770      1.00000
     34     -11.0700      1.00000
     35     -10.8700      1.00000
     36     -10.7939      1.00000
     37     -10.4818      1.00000
     38     -10.0883      1.00000
     39     -10.3381      1.00000
     40     -10.0898      1.00000
     41      -9.9619      1.00000
     42      -8.9203      1.00000
     43      -9.0294      1.00000
     44      -9.0248      1.00000
     45      -8.5683      1.00000
     46      -7.8052      1.00000
     47      -7.0957      1.00000
     48      -6.4187      1.00000
     49      -6.6800      1.00000
     50      -5.6033      1.00000
     51      -5.1806      1.00000
     52      -2.6253      0.00000
     53      -0.7970      0.00000
     54      -0.6029      0.00000
     55      -0.2074      0.00000
     56      -0.4289      0.00000
     57      -0.3589      0.00000
     58       0.1662      0.00000
     59      -0.0679      0.00000
     60       0.0554      0.00000
     61       0.0361      0.00000
     62       0.1363      0.00000
     63       0.0939      0.00000
     64       0.1256      0.00000
     65       0.1464      0.00000
     66       0.0762      0.00000
     67       0.1414      0.00000
     68       0.1713      0.00000
     69       0.1671      0.00000
     70       0.1987      0.00000
     71       0.2178      0.00000
     72       0.2162      0.00000
     73       0.2196      0.00000
     74       0.2213      0.00000
     75       0.2210      0.00000
     76       0.2385      0.00000
     77       0.2694      0.00000
     78       0.2512      0.00000
     79       0.2607      0.00000
     80       0.2860      0.00000
     81       0.2822      0.00000
     82       0.2851      0.00000
     83       0.3534      0.00000
     84       0.3318      0.00000
     85       0.3087      0.00000
     86       0.3121      0.00000
     87       0.3401      0.00000
     88       0.3549      0.00000
     89       0.3745      0.00000
     90       0.3840      0.00000


--------------------------------------------------------------------------------------------------------


 soft charge-density along one line, spin component           1
         0         1         2         3         4         5         6         7         8         9
 total charge-density along one line
 
 soft charge-density along one line, spin component           2
         0         1         2         3         4         5         6         7         8         9
 total charge-density along one line
 
 pseudopotential strength for first ion, spin component:           1
 10.043  13.356   0.003   0.000   0.004  -0.009  -0.000  -0.010
 13.356  17.760   0.004   0.000   0.005  -0.012  -0.000  -0.013
  0.003   0.004  -4.254  -0.000  -0.004   8.294   0.000   0.007
  0.000   0.000  -0.000  -4.258   0.000   0.000   8.305  -0.000
  0.004   0.005  -0.004   0.000  -4.255   0.007  -0.000   8.297
 -0.009  -0.012   8.294   0.000   0.007 -18.291  -0.000  -0.015
 -0.000  -0.000   0.000   8.305  -0.000  -0.000 -18.316   0.000
 -0.010  -0.013   0.007  -0.000   8.297  -0.015   0.000 -18.298
 pseudopotential strength for first ion, spin component:           2
 10.025  13.331   0.003   0.000   0.003  -0.009  -0.000  -0.010
 13.331  17.727   0.004   0.000   0.005  -0.012  -0.000  -0.013
  0.003   0.004  -4.253  -0.000  -0.004   8.297   0.000   0.007
  0.000   0.000  -0.000  -4.240  -0.000   0.000   8.276   0.000
  0.003   0.005  -0.004  -0.000  -4.255   0.007   0.000   8.300
 -0.009  -0.012   8.297   0.000   0.007 -18.305  -0.000  -0.016
 -0.000  -0.000   0.000   8.276   0.000  -0.000 -18.272  -0.000
 -0.010  -0.013   0.007   0.000   8.300  -0.016  -0.000 -18.311
 total augmentation occupancy for first ion, spin component:           1
  8.317  -3.731  -0.105  -0.001  -0.276  -0.013  -0.000  -0.037
 -3.731   1.732   0.030   0.000   0.126   0.005   0.000   0.017
 -0.105   0.030   1.742  -0.000  -0.166   0.163   0.000  -0.016
 -0.001   0.000  -0.000   1.206   0.001   0.000   0.074   0.000
 -0.276   0.126  -0.166   0.001   1.684  -0.016   0.000   0.159
 -0.013   0.005   0.163   0.000  -0.016   0.017   0.000  -0.001
 -0.000   0.000   0.000   0.074   0.000   0.000   0.005   0.000
 -0.037   0.017  -0.016   0.000   0.159  -0.001   0.000   0.016
 total augmentation occupancy for first ion, spin component:           2
 -0.016   0.017  -0.004  -0.000   0.001  -0.001  -0.000   0.000
  0.017  -0.011   0.003   0.000  -0.001   0.000   0.000  -0.000
 -0.004   0.003   0.004  -0.000  -0.001   0.000   0.000   0.000
 -0.000   0.000  -0.000   0.140  -0.000  -0.000   0.001  -0.000
  0.001  -0.001  -0.001  -0.000   0.005   0.000  -0.000  -0.000
 -0.001   0.000   0.000  -0.000   0.000  -0.000   0.000   0.000
 -0.000   0.000   0.000   0.001  -0.000   0.000  -0.000   0.000
  0.000  -0.000   0.000  -0.000  -0.000   0.000   0.000  -0.000


------------------------ aborting loop because EDIFF is reached ----------------------------------------


    FORLOC:  cpu time      0.5204: real time      0.5204
    FORHF :  cpu time    248.0743: real time    248.0966
    FORNL :  cpu time      7.7690: real time      7.7697
    STRESS:  cpu time     23.4444: real time     23.4464
    FORCOR:  cpu time     18.6402: real time     18.6418
    OFIELD:  cpu time      0.0203: real time      0.0203
 WARNING: Using user supplied parameters
     VDW_A1 = 0.383
     VDW_A2 = 5.685
     VDW_S8 = 2.31
     because the xc functional is not supported. Required parameters not
     defined in the INCAR file will be replaced with PBE defaults ones.


 ---------------------------------------------------------------------------------------------

         DFTD3 V3.0 Rev 1        
 IVDW         = 12
 DF unknown   
 parameters
 VDW_S6       =    1.0000
 VDW_S8       =    2.3100
 VDW_A1       =    0.3830
 VDW_A2       =    5.6850
 k1-k3        =   16.0000    1.3333   -4.0000
 VDW_RADIUS   =   50.2022 A
 VDW_CNRADIUS =   21.1671 A
 Edisp (eV)   -0.96027

 E6    (eV) :    -0.4867
 E8    (eV) :    -0.4736
 % E8        : 49.32
    FORVDW:  cpu time      0.0155: real time      0.0155

  FORCE on cell =-STRESS in cart. coord.  units (eV):
  Direction    XX          YY          ZZ          XY          YZ          ZX
  --------------------------------------------------------------------------------------
  Alpha Z     0.74392     0.74392     0.74392
  Ewald   11089.10909  4768.97588 -1390.73081     0.24150     1.31398    42.61866
  Hartree 11063.94117  5314.09960  1023.59298     0.20285     0.86366    33.99872
  E(xc)    -287.21233  -287.86556  -291.88388     0.00004     0.00097     0.01662
  Local  -23164.09167-11122.80182  -844.91093    -0.44043    -2.13389   -75.90941
  n-local   -61.25831   -64.72738   -69.17567    -0.00214    -0.00380     0.01091
  augment   -17.85642   -18.13859   -17.56481     0.00007     0.00068    -0.00045
  Kinetic  1467.55577  1500.80424  1681.49303     0.00203    -0.03895    -0.74838
  Fock     -101.00731  -100.17628   -93.49364    -0.00006    -0.00257    -0.02721
  vdW        -0.61591    -0.23993    -0.01104    -0.00000    -0.00003    -0.00213
  -------------------------------------------------------------------------------------
  Total     -10.69199    -9.32592    -1.94086     0.00387     0.00005    -0.04267
  in kB      -0.26766    -0.23347    -0.04859     0.00010     0.00000    -0.00107
  external pressure =       -0.18 kB  Pullay stress =        0.00 kB


 VOLUME and BASIS-vectors are now :
 -----------------------------------------------------------------------------
  energy-cutoff  :      500.00
  volume of cell :    64000.00
      direct lattice vectors                 reciprocal lattice vectors
    40.000000000  0.000000000  0.000000000     0.025000000  0.000000000  0.000000000
     0.000000000 40.000000000  0.000000000     0.000000000  0.025000000  0.000000000
     0.000000000  0.000000000 40.000000000     0.000000000  0.000000000  0.025000000

  length of vectors
    40.000000000 40.000000000 40.000000000     0.025000000  0.025000000  0.025000000


 FORCES acting on ions:
    Electron-Ion                     Ewald-Force                    Non-Local-Force
 -----------------------------------------------------------------------------------------------
   -.653E+01 -.953E+02 -.478E-02   0.407E+01 0.928E+02 -.751E-02   0.235E+01 0.226E+01 0.111E-01
   0.321E+02 -.177E+03 -.251E+00   -.326E+02 0.178E+03 0.260E+00   0.405E+00 -.144E+01 -.112E-01
   0.612E+02 0.496E+01 0.281E+00   -.575E+02 -.693E+01 -.271E+00   -.350E+01 0.193E+01 -.913E-02
   0.149E+03 0.177E+03 0.718E+00   -.150E+03 -.179E+03 -.722E+00   0.550E+00 0.144E+01 0.427E-02
   0.617E+02 0.236E+03 0.345E+00   -.612E+02 -.238E+03 -.341E+00   -.463E+00 0.123E+01 -.395E-02
   0.420E+02 0.853E+02 0.347E+00   -.441E+02 -.853E+02 -.355E+00   0.186E+01 0.133E+00 0.899E-02
   -.420E+02 0.853E+02 -.257E+00   0.441E+02 -.853E+02 0.266E+00   -.186E+01 0.134E+00 -.845E-02
   -.617E+02 0.236E+03 -.178E+00   0.612E+02 -.238E+03 0.172E+00   0.464E+00 0.123E+01 0.470E-02
   -.149E+03 0.177E+03 -.662E+00   0.150E+03 -.179E+03 0.666E+00   -.554E+00 0.144E+01 -.448E-02
   -.611E+02 0.492E+01 -.349E+00   0.574E+02 -.691E+01 0.333E+00   0.350E+01 0.192E+01 0.153E-01
   -.321E+02 -.177E+03 0.111E+00   0.326E+02 0.178E+03 -.120E+00   -.404E+00 -.144E+01 0.853E-02
   0.656E+01 -.953E+02 -.480E-01   -.410E+01 0.928E+02 0.581E-01   -.236E+01 0.226E+01 -.859E-02
   -.116E+03 -.226E+03 -.372E+00   0.116E+03 0.231E+03 0.371E+00   -.444E+00 -.452E+01 0.290E-02
   -.246E+03 0.850E+02 -.688E+00   0.249E+03 -.878E+02 0.693E+00   -.372E+01 0.265E+01 -.478E-02
   0.246E+03 0.850E+02 0.769E+00   -.249E+03 -.878E+02 -.778E+00   0.372E+01 0.265E+01 0.122E-01
   0.116E+03 -.226E+03 0.531E+00   -.116E+03 0.231E+03 -.537E+00   0.444E+00 -.452E+01 0.432E-02
   -.529E-02 0.308E+03 0.894E-01   0.466E-02 -.341E+03 -.981E-01   -.986E-03 0.307E+02 0.753E-02
   -.180E+03 -.595E+02 -.104E+01   0.182E+03 0.604E+02 0.112E+01   -.200E+01 -.854E+00 -.714E-01
   0.180E+03 -.595E+02 0.603E+00   -.182E+03 0.604E+02 -.606E+00   0.200E+01 -.858E+00 0.346E-02
   0.166E-01 -.351E+03 -.156E+00   -.175E-01 0.359E+03 0.159E+00   0.206E-02 -.752E+01 -.395E-02
   0.102E+02 0.100E+03 0.203E-01   -.958E+01 -.106E+03 -.168E-01   -.668E+00 0.559E+01 -.486E-02
   -.432E+01 -.931E+02 0.200E-01   0.470E+01 0.986E+02 -.199E-01   -.384E+00 -.559E+01 -.911E-03
   -.801E+00 -.645E+02 0.595E+02   -.138E+01 0.668E+02 -.639E+02   0.219E+01 -.226E+01 0.438E+01
   -.213E+00 -.646E+02 -.594E+02   -.202E+01 0.668E+02 0.637E+02   0.224E+01 -.226E+01 -.435E+01
   -.808E+02 -.505E+02 -.427E+00   0.862E+02 0.520E+02 0.456E+00   -.538E+01 -.145E+01 -.300E-01
   -.912E+02 -.241E+02 -.449E+00   0.958E+02 0.273E+02 0.477E+00   -.460E+01 -.314E+01 -.277E-01
   -.475E+02 0.485E+02 -.589E+02   0.477E+02 -.516E+02 0.632E+02   -.260E+00 0.317E+01 -.437E+01
   -.479E+02 0.482E+02 0.588E+02   0.482E+02 -.513E+02 -.632E+02   -.295E+00 0.315E+01 0.438E+01
   -.647E+02 0.739E+02 -.155E+00   0.692E+02 -.773E+02 0.166E+00   -.447E+01 0.345E+01 -.898E-02
   -.103E+02 0.100E+03 0.536E-01   0.959E+01 -.106E+03 -.613E-01   0.668E+00 0.559E+01 0.905E-02
   0.647E+02 0.739E+02 0.224E+00   -.692E+02 -.773E+02 -.238E+00   0.447E+01 0.345E+01 0.133E-01
   0.479E+02 0.483E+02 -.587E+02   -.481E+02 -.514E+02 0.631E+02   0.291E+00 0.316E+01 -.437E+01
   0.475E+02 0.484E+02 0.590E+02   -.478E+02 -.515E+02 -.633E+02   0.264E+00 0.316E+01 0.437E+01
   0.912E+02 -.241E+02 0.297E+00   -.958E+02 0.273E+02 -.313E+00   0.460E+01 -.314E+01 0.153E-01
   0.786E+00 -.646E+02 -.594E+02   0.140E+01 0.668E+02 0.638E+02   -.219E+01 -.227E+01 -.438E+01
   0.234E+00 -.645E+02 0.594E+02   0.199E+01 0.668E+02 -.638E+02   -.224E+01 -.226E+01 0.436E+01
   0.808E+02 -.505E+02 0.429E+00   -.862E+02 0.520E+02 -.458E+00   0.538E+01 -.145E+01 0.289E-01
   0.432E+01 -.931E+02 -.898E-01   -.471E+01 0.986E+02 0.932E-01   0.384E+00 -.559E+01 -.254E-02
 -----------------------------------------------------------------------------------------------
   0.468E-02 -.325E+02 0.344E-01   -.159E-12 -.284E-13 0.131E-13   -.675E-02 0.302E+02 -.305E-01
 
 
 POSITION                                       TOTAL-FORCE (eV/Angst)
 -----------------------------------------------------------------------------------
     18.63162     20.16018     19.99545         0.000168     -0.130376     -0.000495
     17.36404     20.74115     19.99213        -0.024307     -0.176027     -0.003031
     16.19113     19.94847     19.98659         0.017871      0.051814      0.001366
     16.35861     18.53520     19.98641         0.176713      0.074834      0.000491
     17.61959     17.97187     19.99087        -0.001480      0.173883     -0.000019
     18.81604     18.74087     19.99520        -0.110001      0.124368      0.000818
     21.18403     18.74100     20.00444         0.112837      0.128577     -0.000181
     22.38057     17.97215     20.00831         0.005556      0.175582     -0.000155
     23.64159     18.53560     20.01338        -0.185478      0.079595     -0.001674
     23.80878     19.94900     20.01416        -0.015571      0.040261      0.000005
     22.63578     20.74148     20.00896         0.027004     -0.171585      0.001141
     21.36836     20.16045     20.00520        -0.005697     -0.134171      0.000939
     25.19990     21.96609     20.01880        -0.050493     -0.102128      0.002543
     26.24674     19.68504     20.02139        -0.112912      0.028870      0.000162
     13.75328     19.68470     19.97876         0.107193      0.031074      0.003824
     14.80004     21.96579     19.98095         0.050569     -0.103604     -0.001509
     20.00012     18.07129     19.99965        -0.001688      0.428044     -0.000452
     25.05959     20.52176     20.01912        -0.103039     -0.048700     -0.000926
     14.94033     20.52142     19.98231         0.106631     -0.050340     -0.000249
     19.99985     21.25459     20.00082         0.001428     -0.448018     -0.000438
     17.73583     16.88688     19.99171        -0.033098      0.264770     -0.001564
     22.71078     21.82906     20.00915        -0.019838     -0.270794     -0.000890
     24.74274     22.42150     19.12354         0.102796     -0.119502      0.202592
     24.73300     22.42209     20.90879         0.106234     -0.119576     -0.204431
     26.26308     22.22614     20.02470        -0.239843     -0.083251     -0.001804
     27.13574     20.32327     20.02682        -0.213693     -0.125250     -0.000708
     26.28898     19.03591     20.91224        -0.022158      0.156682     -0.201408
     26.29621     19.04116     19.12703        -0.023625      0.154216      0.202956
     24.51103     17.88124     20.01526        -0.199458      0.155826      0.001551
     22.26445     16.88717     20.00666         0.033128      0.264410      0.001662
     15.48910     17.88073     19.98375         0.202978      0.157683     -0.000763
     13.70465     19.03867     20.87166         0.023219      0.155696     -0.204002
     13.71026     19.03771     19.08645         0.022249      0.154667      0.199770
     12.86422     20.32297     19.97575         0.215222     -0.126926      0.000263
     15.25752     22.42214     20.87553        -0.102379     -0.119352     -0.202270
     15.26653     22.42088     19.09026        -0.105826     -0.119644      0.204416
     13.73684     22.22569     19.97530         0.239667     -0.082678      0.001765
     17.28906     21.82867     19.99263         0.019118     -0.268929      0.000705
 -----------------------------------------------------------------------------------
    total drift:                               -0.002397      0.017924      0.000079


--------------------------------------------------------------------------------------------------------



  FREE ENERGIE OF THE ION-ELECTRON SYSTEM (eV)
  ---------------------------------------------------
  free  energy   TOTEN  =      -277.60011430 eV

  energy  without entropy=     -277.60011430  energy(sigma->0) =     -277.60011430
 


--------------------------------------------------------------------------------------------------------


    --------------------------------------------
      INIT:  cpu time      0.3910: real time      0.3910
  FINALIZE:  cpu time     57.7127: real time     57.7177
    --------------------------------------------
    POTLOK:  cpu time     73.2339: real time     73.2402


--------------------------------------------------------------------------------------------------------


 writing wavefunctions
     LOOP+:  cpu time  11887.9188: real time  11893.1793
    4ORBIT:  cpu time      0.0000: real time      0.0000

 total amount of memory used by VASP MPI-rank0  3560222. kBytes
=======================================================================

   base      :      30000. kBytes
   nonlr-proj:      12825. kBytes
   fftplans  :     224335. kBytes
   grid      :     440727. kBytes
   one-center:         24. kBytes
   HF        :          9. kBytes
   wavefun   :     156003. kBytes
   fock_wrk  :    2696299. kBytes
 
  
  
 General timing and accounting informations for this job:
 ========================================================
  
                  Total CPU time used (sec):    11959.101
                            User time (sec):     8856.273
                          System time (sec):     3102.828
                         Elapsed time (sec):    11965.305
  
                   Maximum memory used (kb):     6214120.
                   Average memory used (kb):          N/A
  
                          Minor page faults:    151445210
                          Major page faults:            0
                 Voluntary context switches:         6217
