
                                 *****************
                                 * O   R   C   A *
                                 *****************

                                            #,                                       
                                            ###                                      
                                            ####                                     
                                            #####                                    
                                            ######                                   
                                           ########,                                 
                                     ,,################,,,,,                         
                               ,,#################################,,                 
                          ,,##########################################,,             
                       ,#########################################, ''#####,          
                    ,#############################################,,   '####,        
                  ,##################################################,,,,####,       
                ,###########''''           ''''###############################       
              ,#####''   ,,,,##########,,,,          '''####'''          '####       
            ,##' ,,,,###########################,,,                        '##       
           ' ,,###''''                  '''############,,,                           
         ,,##''                                '''############,,,,        ,,,,,,###''
      ,#''                                            '''#######################'''  
     '                                                          ''''####''''         
             ,#######,   #######,   ,#######,      ##                                
            ,#'     '#,  ##    ##  ,#'     '#,    #''#        ,####,   ,####,        
            ##       ##  ##   ,#'  ##            #'  '#       #'       #'  '#        
            ##       ##  #######   ##           ,######,      #####,   #    #        
            '#,     ,#'  ##    ##  '#,     ,#' ,#      #,     #,   #   #,  ,#        
             '#######'   ##     ##  '#######'  #'      '#     '####' # '####'        



                #########################################################
                #                        -***-                          #
                #          Department of theory and spectroscopy        #
                #                                                       #
                #                      Frank Neese                      #
                #                                                       #
                #     Directorship, Architecture, Infrastructure        #
                #                    SHARK, DRIVERS                     #
                #        Core code/Algorithms in most modules           #
                #                                                       #
                #        Max Planck Institute fuer Kohlenforschung      #
                #                Kaiser Wilhelm Platz 1                 #
                #                 D-45470 Muelheim/Ruhr                 #
                #                      Germany                          #
                #                                                       #
                #                  All rights reserved                  #
                #                        -***-                          #
                #########################################################


                         Program Version 6.0.0  -   RELEASE  -


 With contributions from (in alphabetic order):
   Daniel Aravena         : Magnetic Suceptibility
   Michael Atanasov       : Ab Initio Ligand Field Theory (pilot matlab implementation)
   Alexander A. Auer      : GIAO ZORA, VPT2 properties, NMR spectrum
   Ute Becker             : All parallelization in ORCA, NUMFREQ, NUMCALC
   Giovanni Bistoni       : ED, misc. LED, open-shell LED, HFLD
   Martin Brehm           : Molecular dynamics
   Dmytro Bykov           : pre 5.0 version of the SCF Hessian
   Marcos Casanova-Páez   : Triplet and SCS-CIS(D). UHF-(DLPNO)-IP/EA/STEOM-CCSD. UHF-CVS-IP/STEOM-CCSD
   Vijay G. Chilkuri      : MRCI spin determinant printing, contributions to CSF-ICE
   Pauline Colinet        : FMM embedding
   Dipayan Datta          : RHF DLPNO-CCSD density
   Achintya Kumar Dutta   : EOM-CC, STEOM-CC
   Nicolas Foglia         : Exact transition moments, OPA infrastructure, MCD improvements
   Dmitry Ganyushin       : Spin-Orbit,Spin-Spin,Magnetic field MRCI
   Miquel Garcia          : C-PCM and meta-GGA Hessian, CCSD/C-PCM, Gaussian charge scheme
   Tiago L. C. Gouveia    : GS-ROHF, GS-ROCIS
   Yang Guo               : DLPNO-NEVPT2, F12-NEVPT2, CIM, IAO-localization
   Andreas Hansen         : Spin unrestricted coupled pair/coupled cluster methods
   Ingolf Harden          : AUTO-CI MPn and infrastructure 
   Benjamin Helmich-Paris : MC-RPA, TRAH-(SCF,CASSCF), AVAS, COSX integrals, SCF dyn. polar.
   Lee Huntington         : MR-EOM, pCC
   Robert Izsak           : Overlap fitted RIJCOSX, COSX-SCS-MP3, EOM
   Riya Kayal             : Wick's Theorem for AUTO-CI, AUTO-CI UHF-CCSDT
   Emily Kempfer          : AUTO-CI, RHF CISDT and CCSDT
   Christian Kollmar      : KDIIS, OOCD, Brueckner-CCSD(T), CCSD density, CASPT2, CASPT2-K, improved NEVPT2
   Axel Koslowski         : Symmetry handling
   Simone Kossmann        : Meta GGA functionals, TD-DFT gradient, OOMP2, (MP2 Hessian; deprecated post 5.0)
   Lucas Lang             : DCDCAS
   Marvin Lechner         : AUTO-CI (C++ implementation), FIC-MRCC
   Spencer Leger          : CASSCF response
   Dagmar Lenk            : GEPOL surface, SMD, ORCA-2-JSON
   Dimitrios Liakos       : Extrapolation schemes; Compound Job, initial MDCI parallelization
   Dimitrios Manganas     : Further ROCIS development; embedding schemes. LFT, Crystal Embedding
   Dimitrios Pantazis     : SARC Basis sets
   Anastasios Papadopoulos: AUTO-CI, single reference methods and gradients
   Taras Petrenko         : pre 6.0 DFT Hessian and TD-DFT gradient, (ASA, deprecated), ECA, 1-Electron XAS/XES, NRVS
   Peter Pinski           : DLPNO-MP2, DLPNO-MP2 Gradient
   Christoph Reimann      : Effective Core Potentials
   Marius Retegan         : Local ZFS, SOC
   Christoph Riplinger    : Optimizer, TS searches, QM/MM, DLPNO-CCSD(T), (RO)-DLPNO pert. Triples
   Michael Roemelt        : Original ROCIS implementation
   Masaaki Saitow         : Open-shell DLPNO-CCSD energy and density
   Barbara Sandhoefer     : DKH picture change effects
   Kantharuban Sivalingam : CASSCF convergence/infrastructure, NEVPT2 and variants, FIC-MRCI
   Bernardo de Souza      : ESD, SOC TD-DFT
   Georgi Stoychev        : AutoAux, RI-MP2 NMR, DLPNO-MP2 response, X2C
   Van Anh Tran           : RI-MP2 g-tensors
   Willem Van den Heuvel  : Paramagnetic NMR
   Zikuan Wang            : NOTCH, Electric field optimization 
   Frank Wennmohs         : Technical directorship and infrastructure
   Hang Xu                : AUTO-CI-Response properties 


 We gratefully acknowledge several colleagues who have allowed us to
 interface, adapt or use parts of their codes:
   Stefan Grimme, W. Hujo, H. Kruse, P. Pracht,  : VdW corrections, initial TS optimization,
                  C. Bannwarth, S. Ehlert,         DFT functionals, gCP, sTDA/sTD-DF
                  L. Wittmann, M. Mueller
   Ed Valeev, F. Pavosevic, A. Kumar             : LibInt (2-el integral package), F12 methods
   Garnet Chan, S. Sharma, J. Yang, R. Olivares  : DMRG
   Ulf Ekstrom                                   : XCFun DFT Library
   Mihaly Kallay                                 : mrcc  (arbitrary order and MRCC methods)
   Frank Weinhold                                : gennbo (NPA and NBO analysis)
   Simon Mueller                                 : openCOSMO-RS
   Christopher J. Cramer and Donald G. Truhlar   : smd solvation model
   Lars Goerigk                                  : TD-DFT with DH, B97 family of functionals
   V. Asgeirsson, H. Jonsson                     : NEB implementation
   FAccTs GmbH                                   : IRC, NEB, NEB-TS, DLPNO-Multilevel, CI-OPT
                                                   MM, QMMM, 2- and 3-layer-ONIOM, Crystal-QMMM,
                                                   LR-CPCM, SF, NACMEs, symmetry and pop. for TD-DFT,
                                                   nearIR, NL-DFT gradient (VV10), updates on ESD,
                                                   ML-optimized integration grids, MBIS, APM,
                                                   GOAT, DOCKER, SOLVATOR, interface openCOSMO-RS
   S Lehtola, MJT Oliveira, MAL Marques          : LibXC Library
   Liviu Ungur et al                             : ANISO software


 Your calculation uses the libint2 library for the computation of 2-el integrals
 For citations please refer to: http://libint.valeyev.net

 Your ORCA version has been built with support for libXC version: 6.2.2
 For citations please refer to: https://libxc.gitlab.io

 This ORCA versions uses:
   CBLAS   interface :  Fast vector & matrix operations
   LAPACKE interface :  Fast linear algebra routines
   SCALAPACK package :  Parallel linear algebra routines
   Shared memory     :  Shared parallel matrices
   BLAS/LAPACK       :  OpenBLAS 0.3.27  USE64BITINT DYNAMIC_ARCH NO_AFFINITY Sandybridge SINGLE_THREADED
        Core in use  :  Sandybridge
   Copyright (c) 2011-2014, The OpenBLAS Project


NOTE: MaxCore=3500 MB was set to SCF,MP2,MDCI,CIPSI,MRCI and CIS
      => If you want to overwrite this, your respective input block should be placed after the MaxCore statement
Your calculation utilizes the atom-pairwise dispersion correction
with the Becke-Johnson damping scheme (D3BJ)


Your calculation utilizes the SMD solvation module
Please cite in your paper:
A.V. Marenich, C.J. Cramer, D.G. Truhlar J. Phys. Chem. B, 113, (2009), 6378 

Warning: RI is on but no J-basis has been assigned. Assigning Def2/J (nothing to worry about!)
================================================================================

----- Orbital basis set information -----
Your calculation utilizes the basis: aug-cc-pVTZ 
    H, B-Ne : Obtained from the ccRepo (grant-hill.group.shef.ac.uk/ccrepo) Feb. 2017
              R. A. Kendall, T. H. Dunning, Jr., R. J. Harrison, J. Chem. Phys. 96, 6796 (1992)
         He : Obtained from the ccRepo (grant-hill.group.shef.ac.uk/ccrepo) Feb. 2017
              D. E. Woon, T. H. Dunning, Jr., J. Chem. Phys. 100, 2975 (1994)
  Li-Be, Na : Obtained from the ccRepo (grant-hill.group.shef.ac.uk/ccrepo) Feb. 2017
              B. P. Prascher, D. E. Woon, K. A. Peterson, T. H. Dunning, Jr., A. K. Wilson, Theor. Chem. Acc. 128, 69 (2011)
         Mg : Obtained from the Peterson Research Group Website (tyr0.chem.wsu.edu/~kipeters) Feb. 2017
              B. P. Prascher, D. E. Woon, K. A. Peterson, T. H. Dunning, Jr., A. K. Wilson, Theor. Chem. Acc. 128, 69 (2011)
      Al-Ar : Obtained from the ccRepo (grant-hill.group.shef.ac.uk/ccrepo) Feb. 2017
              D. E. Woon, T. H. Dunning, Jr., J. Chem. Phys. 98, 1358 (1993)
      Sc-Zn : Obtained from the ccRepo (grant-hill.group.shef.ac.uk/ccrepo) Feb. 2017
              N. B. Balabanov, K. A. Peterson, J. Chem. Phys. 123, 064107 (2005)
              N. B. Balabanov, K. A. Peterson, J. Chem. Phys. 125, 074110 (2006)
      Ga-Kr : Obtained from the ccRepo (grant-hill.group.shef.ac.uk/ccrepo) Feb. 2017
              A. K. Wilson, D. E. Woon, K. A. Peterson, T. H. Dunning, Jr., J. Chem. Phys. 110, 7667 (1999)
     Ag, Au : Obtained from the Peterson Research Group Website (tyr0.chem.wsu.edu/~kipeters) Feb. 2017
              K. A. Peterson, C. Puzzarini, Theor. Chem. Acc. 114, 283 (2005)

----- AuxJ basis set information -----
Your calculation utilizes the auxiliary basis: def2/J
   F. Weigend, Phys. Chem. Chem. Phys. 8, 1057 (2006).

================================================================================
                                        WARNINGS
                       Please study these warnings very carefully!
================================================================================

Using LibXC functional ID 497 : Re-regularized SCAN exchange by Furness et al
[ 1]  J. W. Furness, A. D. Kaplan, J. Ning, J. P. Perdew, and J. Sun.,  J. Phys. Chem. Lett. 11, 8208-8215 (2020)
[ 2]  J. W. Furness, A. D. Kaplan, J. Ning, J. P. Perdew, and J. Sun.,  J. Phys. Chem. Lett. 11, 9248-9248 (2020)
Using LibXC functional ID 498 : Re-regularized SCAN correlation by Furness et al
[ 1]  J. W. Furness, A. D. Kaplan, J. Ning, J. P. Perdew, and J. Sun.,  J. Phys. Chem. Lett. 11, 8208-8215 (2020)
[ 2]  J. W. Furness, A. D. Kaplan, J. Ning, J. P. Perdew, and J. Sun.,  J. Phys. Chem. Lett. 11, 9248-9248 (2020)
Using LibXC functional ID 497 : Re-regularized SCAN exchange by Furness et al
[ 1]  J. W. Furness, A. D. Kaplan, J. Ning, J. P. Perdew, and J. Sun.,  J. Phys. Chem. Lett. 11, 8208-8215 (2020)
[ 2]  J. W. Furness, A. D. Kaplan, J. Ning, J. P. Perdew, and J. Sun.,  J. Phys. Chem. Lett. 11, 9248-9248 (2020)
Using LibXC functional ID 498 : Re-regularized SCAN correlation by Furness et al
[ 1]  J. W. Furness, A. D. Kaplan, J. Ning, J. P. Perdew, and J. Sun.,  J. Phys. Chem. Lett. 11, 8208-8215 (2020)
[ 2]  J. W. Furness, A. D. Kaplan, J. Ning, J. P. Perdew, and J. Sun.,  J. Phys. Chem. Lett. 11, 9248-9248 (2020)


WARNING: Found flag for RIJCOSX approximation but no HF exchange needed!
  ===> : RIJCOSX  will be disabled and Split-RI-J is turned on

WARNING: your system is open-shell and RHF/RKS was chosen
  ===> : WILL SWITCH to UHF/UKS


WARNING: Geometry Optimization
  ===> : Switching off AutoStart
         For restart on a previous wavefunction, please use MOREAD

================================================================================
                                       INPUT FILE
================================================================================
NAME = cs_rporg_002_ox_opt_06.inp
|  1> !r2SCAN opt aug-cc-pVTZ d3 TightSCF SlowConv RIJCOSX defgrid2
|  2> 
|  3> %pal
|  4> nprocs 8
|  5> end
|  6> 
|  7> %scf
|  8> MaxIter 1500
|  9> end
| 10> 
| 11> %maxcore 3500
| 12> 
| 13> !CPCM
| 14> %cpcm smd true
| 15> SMDsolvent "MeCN"
| 16> surfacetype gepol_ses
| 17> rsolv 2.19
| 18> end 
| 19> 
| 20> * xyz 1 2
| 21> C          -0.69806914174773     -1.08130758385803      0.00000478073461
| 22> C          -1.29995911913199      0.21220975823502      0.00000712364871
| 23> C          -0.48713495449795      1.39007645246692     -0.00001560397811
| 24> C           0.87407248196079      1.28097563070640     -0.00003015609287
| 25> C           1.48961473063931     -0.00988444370075     -0.00003464832734
| 26> C           0.66713129411178     -1.18242862965134     -0.00001675195059
| 27> H           1.14787115207094     -2.16374838611022     -0.00001833432844
| 28> C           2.87923367476782     -0.13303827989769     -0.00003947759998
| 29> C           4.09817372516796     -0.24492334399421     -0.00000244744274
| 30> H           5.17420938419188     -0.34031758843355     -0.00000256865577
| 31> H           1.50568477881681      2.17231925078041     -0.00004562485067
| 32> H          -0.99220253079888      2.35905562684180     -0.00001378344560
| 33> O          -2.58101948918323      0.42008257874155      0.00003691245038
| 34> C          -3.53711041258472     -0.64087278516494      0.00007811011347
| 35> H          -4.51842922650600     -0.15013878054896      0.00011237958636
| 36> H          -3.42139067434806     -1.25399713854605     -0.90847216906212
| 37> H          -3.42131652654994     -1.25398175148381      0.90862972609483
| 38> H          -1.31361454637877     -1.98259848638256      0.00002453310588
| 39> *
| 40> 
| 41>                          ****END OF INPUT****
================================================================================

                       *****************************
                       * Geometry Optimization Run *
                       *****************************

Geometry optimization settings:
Update method            Update   .... BFGS
Choice of coordinates    CoordSys .... (2022) Redundant Internals
Initial Hessian          InHess   .... Almloef's Model
Max. no of cycles        MaxIter  .... 54

Convergence Tolerances:
Energy Change            TolE     ....  5.0000e-06 Eh
Max. Gradient            TolMAXG  ....  3.0000e-04 Eh/bohr
RMS Gradient             TolRMSG  ....  1.0000e-04 Eh/bohr
Max. Displacement        TolMAXD  ....  4.0000e-03 bohr
RMS Displacement         TolRMSD  ....  2.0000e-03 bohr
Strict Convergence                .... False

------------------------------------------------------------------------------
                        ORCA OPTIMIZATION COORDINATE SETUP
------------------------------------------------------------------------------

The optimization will be done in redundant internal coordinates (2022)
Making redundant internal coordinates   ...  (2022 redundants) done
Evaluating the initial hessian          ...  (Almloef) done
Evaluating the coordinates              ...  done
Calculating the B-matrix                .... done
Calculating the G-matrix                .... done
Diagonalizing the G-matrix              .... done
Small eigenvalue found = 1.516e-02
The first mode is                       ....   28
The number of degrees of freedom        ....   48

    -----------------------------------------------------------------
                    Redundant Internal Coordinates


    -----------------------------------------------------------------
         Definition                    Initial Value    Approx d2E/dq
    -----------------------------------------------------------------
      1. B(C   1,C   0)                  1.4267         0.546002   
      2. B(C   2,C   1)                  1.4311         0.537233   
      3. B(C   3,C   2)                  1.3656         0.683456   
      4. B(C   4,C   3)                  1.4301         0.539197   
      5. B(C   5,C   4)                  1.4322         0.534973   
      6. B(C   5,C   0)                  1.3689         0.675053   
      7. B(H   6,C   5)                  1.0927         0.356482   
      8. B(C   7,C   4)                  1.3951         0.613277   
      9. B(C   8,C   7)                  1.2241         1.149420   
     10. B(H   9,C   8)                  1.0803         0.373224   
     11. B(H  10,C   3)                  1.0924         0.356885   
     12. B(H  11,C   2)                  1.0927         0.356534   
     13. B(O  12,C   1)                  1.2978         0.785143   
     14. B(C  13,O  12)                  1.4282         0.486341   
     15. B(H  14,C  13)                  1.0972         0.350724   
     16. B(H  15,C  13)                  1.1022         0.344357   
     17. B(H  16,C  13)                  1.1022         0.344356   
     18. B(H  17,C   0)                  1.0914         0.358212   
     19. A(C   1,C   0,C   5)          119.1893         0.430799   
     20. A(C   5,C   0,H  17)          120.0953         0.357720   
     21. A(C   1,C   0,H  17)          120.7153         0.345120   
     22. A(C   0,C   1,O  12)          124.1700         0.439779   
     23. A(C   0,C   1,C   2)          120.4380         0.413582   
     24. A(C   2,C   1,O  12)          115.3920         0.438496   
     25. A(C   1,C   2,C   3)          120.0264         0.430504   
     26. A(C   3,C   2,H  11)          122.1126         0.358187   
     27. A(C   1,C   2,H  11)          117.8610         0.343912   
     28. A(C   2,C   3,H  10)          120.7392         0.358247   
     29. A(C   2,C   3,C   4)          120.0764         0.430786   
     30. A(C   4,C   3,H  10)          119.1844         0.344180   
     31. A(C   3,C   4,C   5)          119.4582         0.412353   
     32. A(C   5,C   4,C   7)          119.9833         0.421914   
     33. A(C   3,C   4,C   7)          120.5585         0.422507   
     34. A(C   0,C   5,H   6)          120.3360         0.357426   
     35. A(C   0,C   5,C   4)          120.8116         0.429224   
     36. A(C   4,C   5,H   6)          118.8524         0.343661   
     37. L(C   4,C   7,C   8,C   5, 2) 180.0038         0.484830   
     38. L(C   4,C   7,C   8,C   5, 1) 179.8201         0.484830   
     39. L(C   7,C   8,H   9, 2)       179.9983         0.394950   
     40. L(C   7,C   8,H   9, 1)       179.8218         0.394950   
     41. A(C   1,O  12,C  13)          122.8071         0.427899   
     42. A(H  15,C  13,H  16)          111.0412         0.286796   
     43. A(H  14,C  13,H  16)          110.0441         0.287618   
     44. A(O  12,C  13,H  16)          110.0555         0.334247   
     45. A(H  14,C  13,H  15)          110.0440         0.287618   
     46. A(O  12,C  13,H  15)          110.0559         0.334247   
     47. A(O  12,C  13,H  14)          105.4554         0.335266   
     48. D(O  12,C   1,C   0,C   5)   -179.9995         0.020384   
     49. D(O  12,C   1,C   0,H  17)      0.0003         0.020384   
     50. D(C   2,C   1,C   0,C   5)      0.0001         0.020384   
     51. D(C   2,C   1,C   0,H  17)    179.9998         0.020384   
     52. D(C   3,C   2,C   1,O  12)    179.9992         0.019715   
     53. D(H  11,C   2,C   1,C   0)    179.9999         0.019715   
     54. D(C   3,C   2,C   1,C   0)     -0.0005         0.019715   
     55. D(H  11,C   2,C   1,O  12)     -0.0004         0.019715   
     56. D(H  10,C   3,C   2,H  11)     -0.0003         0.032770   
     57. D(H  10,C   3,C   2,C   1)   -179.9999         0.032770   
     58. D(C   4,C   3,C   2,H  11)   -179.9999         0.032770   
     59. D(C   4,C   3,C   2,C   1)      0.0006         0.032770   
     60. D(C   7,C   4,C   3,C   2)   -179.9995         0.019864   
     61. D(C   5,C   4,C   3,H  10)   -179.9999         0.019864   
     62. D(C   5,C   4,C   3,C   2)     -0.0003         0.019864   
     63. D(C   7,C   4,C   3,H  10)      0.0009         0.019864   
     64. D(H   6,C   5,C   4,C   7)     -0.0007         0.019545   
     65. D(C   0,C   5,C   4,C   7)    179.9992         0.019545   
     66. D(C   0,C   5,C   4,C   3)     -0.0000         0.019545   
     67. D(H   6,C   5,C   0,H  17)      0.0002         0.031907   
     68. D(H   6,C   5,C   0,C   1)    180.0000         0.031907   
     69. D(H   6,C   5,C   4,C   3)   -179.9999         0.019545   
     70. D(C   4,C   5,C   0,H  17)   -179.9996         0.031907   
     71. D(C   4,C   5,C   0,C   1)      0.0001         0.031907   
     72. D(C  13,O  12,C   1,C   2)   -179.9993         0.047302   
     73. D(C  13,O  12,C   1,C   0)      0.0003         0.047302   
     74. D(H  16,C  13,O  12,C   1)     61.3467         0.018670   
     75. D(H  15,C  13,O  12,C   1)    -61.3484         0.018670   
     76. D(H  14,C  13,O  12,C   1)    179.9991         0.018670   
    -----------------------------------------------------------------

Number of atoms                         .... 18
Number of degrees of freedom            .... 76


         *************************************************************
         *                GEOMETRY OPTIMIZATION CYCLE   1            *
         *************************************************************
---------------------------------
CARTESIAN COORDINATES (ANGSTROEM)
---------------------------------
  C     -0.698069   -1.081308    0.000005
  C     -1.299959    0.212210    0.000007
  C     -0.487135    1.390076   -0.000016
  C      0.874072    1.280976   -0.000030
  C      1.489615   -0.009884   -0.000035
  C      0.667131   -1.182429   -0.000017
  H      1.147871   -2.163748   -0.000018
  C      2.879234   -0.133038   -0.000039
  C      4.098174   -0.244923   -0.000002
  H      5.174209   -0.340318   -0.000003
  H      1.505685    2.172319   -0.000046
  H     -0.992203    2.359056   -0.000014
  O     -2.581019    0.420083    0.000037
  C     -3.537110   -0.640873    0.000078
  H     -4.518429   -0.150139    0.000112
  H     -3.421391   -1.253997   -0.908472
  H     -3.421317   -1.253982    0.908630
  H     -1.313615   -1.982598    0.000025

----------------------------
CARTESIAN COORDINATES (A.U.)
----------------------------
  NO LB      ZA    FRAG     MASS         X           Y           Z
   0 C     6.0000    0    12.011   -1.319160   -2.043375    0.000009
   1 C     6.0000    0    12.011   -2.456567    0.401018    0.000013
   2 C     6.0000    0    12.011   -0.920552    2.626864   -0.000029
   3 C     6.0000    0    12.011    1.651758    2.420693   -0.000057
   4 C     6.0000    0    12.011    2.814964   -0.018679   -0.000065
   5 C     6.0000    0    12.011    1.260695   -2.234466   -0.000032
   6 H     1.0000    0     1.008    2.169162   -4.088892   -0.000035
   7 C     6.0000    0    12.011    5.440963   -0.251406   -0.000075
   8 C     6.0000    0    12.011    7.744426   -0.462838   -0.000005
   9 H     1.0000    0     1.008    9.777839   -0.643107   -0.000005
  10 H     1.0000    0     1.008    2.845332    4.105088   -0.000086
  11 H     1.0000    0     1.008   -1.874991    4.457969   -0.000026
  12 O     8.0000    0    15.999   -4.877420    0.793841    0.000070
  13 C     6.0000    0    12.011   -6.684170   -1.211074    0.000148
  14 H     1.0000    0     1.008   -8.538594   -0.283721    0.000212
  15 H     1.0000    0     1.008   -6.465491   -2.369711   -1.716764
  16 H     1.0000    0     1.008   -6.465351   -2.369682    1.717061
  17 H     1.0000    0     1.008   -2.482372   -3.746568    0.000046

--------------------------------
INTERNAL COORDINATES (ANGSTROEM)
--------------------------------
 C      0   0   0     0.000000000000     0.00000000     0.00000000
 C      1   0   0     1.426695012670     0.00000000     0.00000000
 C      2   1   0     1.431102048252   120.43800165     0.00000000
 C      3   2   1     1.365572654453   120.02638105     0.00000000
 C      4   3   2     1.430109083821   120.07644475     0.00000000
 C      1   2   3     1.368940355325   119.18934426     0.00000000
 H      6   1   2     1.092748495972   120.33601411   179.99996441
 C      5   4   3     1.395065474189   120.55854153   180.00047727
 C      8   5   4     1.224064179448   179.82013288   179.38458097
 H      9   8   5     1.080255896241   179.82179733   180.05595905
 H      4   3   2     1.092441093527   120.73918917   180.00011726
 H      3   2   1     1.092709429357   117.86097367   179.99994516
 O      2   1   3     1.297816158825   124.16999011   180.00041496
 C     13   2   1     1.428193313144   122.80708723     0.00000000
 H     14  13   2     1.097181151413   105.45538739   179.99909950
 H     14  13   2     1.102168834760   110.05594954   298.65156667
 H     14  13   2     1.102169164659   110.05546447    61.34671396
 H      1   2   3     1.091430912393   120.71534222   179.99984864

---------------------------
INTERNAL COORDINATES (A.U.)
---------------------------
 C      0   0   0     0.000000000000     0.00000000     0.00000000
 C      1   0   0     2.696062850577     0.00000000     0.00000000
 C      2   1   0     2.704390940890   120.43800165     0.00000000
 C      3   2   1     2.580558332889   120.02638105     0.00000000
 C      4   3   2     2.702514510054   120.07644475     0.00000000
 C      1   2   3     2.586922365237   119.18934426     0.00000000
 H      6   1   2     2.064995390642   120.33601411   179.99996441
 C      5   4   3     2.636291685106   120.55854153   180.00047727
 C      8   5   4     2.313146069500   179.82013288   179.38458097
 H      9   8   5     2.041387798449   179.82179733   180.05595905
 H      4   3   2     2.064414484207   120.73918917   180.00011726
 H      3   2   1     2.064921565438   117.86097367   179.99994516
 O      2   1   3     2.452517112358   124.16999011   180.00041496
 C     13   2   1     2.698894228140   122.80708723     0.00000000
 H     14  13   2     2.073371895472   105.45538739   179.99909950
 H     14  13   2     2.082797251040   110.05594954   298.65156667
 H     14  13   2     2.082797874459   110.05546447    61.34671396
 H      1   2   3     2.062505518518   120.71534222   179.99984864

---------------------
BASIS SET INFORMATION
---------------------
There are 3 groups of distinct atoms

 Group   1 Type C   : 19s6p3d2f contracted to 5s4p3d2f pattern {88111/3111/111/11}
 Group   2 Type H   : 6s3p2d contracted to 4s3p2d pattern {3111/111/11}
 Group   3 Type O   : 19s6p3d2f contracted to 5s4p3d2f pattern {88111/3111/111/11}

Atom   0C    basis set group =>   1
Atom   1C    basis set group =>   1
Atom   2C    basis set group =>   1
Atom   3C    basis set group =>   1
Atom   4C    basis set group =>   1
Atom   5C    basis set group =>   1
Atom   6H    basis set group =>   2
Atom   7C    basis set group =>   1
Atom   8C    basis set group =>   1
Atom   9H    basis set group =>   2
Atom  10H    basis set group =>   2
Atom  11H    basis set group =>   2
Atom  12O    basis set group =>   3
Atom  13C    basis set group =>   1
Atom  14H    basis set group =>   2
Atom  15H    basis set group =>   2
Atom  16H    basis set group =>   2
Atom  17H    basis set group =>   2
---------------------------------
AUXILIARY/J BASIS SET INFORMATION
---------------------------------
There are 3 groups of distinct atoms

 Group   1 Type C   : 12s5p4d2f1g contracted to 6s4p3d1f1g pattern {711111/2111/211/2/1}
 Group   2 Type H   : 5s2p1d contracted to 3s1p1d pattern {311/2/1}
 Group   3 Type O   : 12s5p4d2f1g contracted to 6s4p3d1f1g pattern {711111/2111/211/2/1}

Atom   0C    basis set group =>   1
Atom   1C    basis set group =>   1
Atom   2C    basis set group =>   1
Atom   3C    basis set group =>   1
Atom   4C    basis set group =>   1
Atom   5C    basis set group =>   1
Atom   6H    basis set group =>   2
Atom   7C    basis set group =>   1
Atom   8C    basis set group =>   1
Atom   9H    basis set group =>   2
Atom  10H    basis set group =>   2
Atom  11H    basis set group =>   2
Atom  12O    basis set group =>   3
Atom  13C    basis set group =>   1
Atom  14H    basis set group =>   2
Atom  15H    basis set group =>   2
Atom  16H    basis set group =>   2
Atom  17H    basis set group =>   2


           ************************************************************
           *        Program running with 8 parallel MPI-processes     *
           *              working on a common directory               *
           ************************************************************
------------------------------------------------------------------------------
                             ORCA STARTUP CALCULATIONS
                           -- RI-GTO INTEGRALS CHOSEN --
------------------------------------------------------------------------------
------------------------------------------------------------------------------
                   ___                                                        
                  /   \      - P O W E R E D   B Y -                         
                 /     \                                                     
                 |  |  |   _    _      __       _____    __    __             
                 |  |  |  | |  | |    /  \     |  _  \  |  |  /  |          
                  \  \/   | |  | |   /    \    | | | |  |  | /  /          
                 / \  \   | |__| |  /  /\  \   | |_| |  |  |/  /          
                |  |  |   |  __  | /  /__\  \  |    /   |      \           
                |  |  |   | |  | | |   __   |  |    \   |  |\   \          
                \     /   | |  | | |  |  |  |  | |\  \  |  | \   \       
                 \___/    |_|  |_| |__|  |__|  |_| \__\ |__|  \__/        
                                                                              
                      - O R C A' S   B I G   F R I E N D -                    
                                      &                                       
                       - I N T E G R A L  F E E D E R -                       
                                                                              
 v1 FN, 2020, v2 2021, v3 2022-2024                                           
------------------------------------------------------------------------------


----------------------
SHARK INTEGRAL PACKAGE
----------------------

Number of atoms                             ...     18
Number of basis functions                   ...    704
Number of shells                            ...    272
Maximum angular momentum                    ...      3
Integral batch strategy                     ... SHARK/LIBINT Hybrid
RI-J (if used) integral strategy            ... SPLIT-RIJ (Revised 2003 algorithm where possible)
Printlevel                                  ...      1
Contraction scheme used                     ... PARTIAL GENERAL contraction
Prescreening option                         ... SCHWARTZ
   Thresh                                   ... 2.500e-11
   Tcut                                     ... 2.500e-12
   Tpresel                                  ... 2.500e-12 
Coulomb Range Separation                    ... NOT USED
Exchange Range Separation                   ... NOT USED
Multipole approximations                    ... NOT USED
Finite Nucleus Model                        ... NOT USED
CABS basis                                  ... NOT available
Auxiliary Coulomb fitting basis             ... AVAILABLE
   # of basis functions in Aux-J            ...    578
   # of shells in Aux-J                     ...    190
   Maximum angular momentum in Aux-J        ...      4
Auxiliary J/K fitting basis                 ... NOT available
Auxiliary Correlation fitting basis         ... NOT available
Auxiliary 'external' fitting basis          ... NOT available

Checking pre-screening integrals            ... done (  0.1 sec) Dimension = 272
Save PGC pre-screening integrals            ... done (  0.1 sec) Dimension = 272
Calculate PGC overlap integrals             ... done (  0.2 sec) Dimension = 212
Calculating pre-screening integrals (ORCA)  ... done (  0.3 sec) Dimension = 212
Check shell pair data                       ... done (  0.2 sec)
Shell pair information
Shell pair cut-off parameter TPreSel        ...   2.5e-12
Total number of shell pairs                 ...     37128
Shell pairs after pre-screening             ...     30152
Total number of primitive shell pairs       ...     47640
Primitive shell pairs kept                  ...     35900
          la=0 lb=0:   6823 shell pairs
          la=1 lb=0:   7664 shell pairs
          la=1 lb=1:   1925 shell pairs
          la=2 lb=0:   5380 shell pairs
          la=2 lb=1:   2686 shell pairs
          la=2 lb=2:    979 shell pairs
          la=3 lb=0:   2445 shell pairs
          la=3 lb=1:   1196 shell pairs
          la=3 lb=2:    853 shell pairs
          la=3 lb=3:    201 shell pairs

Calculating one electron integrals          ... done (  0.1 sec)
Calculating RI/J V-Matrix + Cholesky decomp.... done (  0.2 sec)
Calculating Nuclear repulsion               ... done (  0.0 sec) ENN=    455.955384108490 Eh

Diagonalization of the overlap matrix:
Smallest eigenvalue                        ... 6.402e-07
Time for diagonalization                   ...    0.117 sec
Threshold for overlap eigenvalues          ... 1.000e-07
Number of eigenvalues below threshold      ... 0

IMPORTANT:
Smallest eigenvalue of S below the DiffSThresh (1.000e-06) while
Thresh>1e-12 and/or TCut>1e-13! In order to avoid SCF convergence issues,
Thresh will be set to at least 1e-12 and TCut to at least 1e-13.
This can be turned off by adding %SCF DiffSThresh -1 END to the input.

Time for construction of square roots      ...    0.088 sec
Total time needed                          ...    0.709 sec

-------------------
DFT GRID GENERATION
-------------------

General Integration Accuracy     IntAcc      ... 4.388
Radial Grid Type                 RadialGrid  ... OptM3 with GC (2021)
Angular Grid (max. ang.)         AngularGrid ... 4 (Lebedev-302)
Angular grid pruning method      GridPruning ... 4 (adaptive)
Weight generation scheme         WeightScheme... mBecke (2022)
Basis function cutoff            BFCut       ... 1.0000e-11
Integration weight cutoff        WCut        ... 1.0000e-14
Partially contracted basis set               ... off
Rotationally invariant grid construction     ... off
Angular grids for H and He will be reduced by one unit
Diffuse basis detected: some atoms will have their outermost
                        angular grid increased by 1.

Total number of grid points                  ...    90215
Total number of batches                      ...     1420
Average number of points per batch           ...       63
Average number of grid points per atom       ...     5012

---------------------
SHARK GRID GENERATION
---------------------

General Integration Accuracy     IntAcc      ... 4.388
Radial Grid Type                 RadialGrid  ... OptM3 with GC (2021)
Angular Grid (max. ang.)         AngularGrid ... 4 (Lebedev-302)
Angular grid pruning method      GridPruning ... 4 (adaptive)
Weight generation scheme         WeightScheme... mBecke (2022)
Basis function cutoff            BFCut       ... 1.0000e-11
Integration weight cutoff        WCut        ... 1.0000e-14
Partially contracted basis set               ... off
Rotationally invariant grid construction     ... off
Angular grids for H and He will be reduced by one unit
Diffuse basis detected: some atoms will have their outermost
                        angular grid increased by 1.
Steep s-basis detected: some atoms will have their radial
                        grid points doubled.

Total number of grid points                  ...   153505
Total number of batches                      ...     2408
Average number of points per batch           ...       63
Average number of grid points per atom       ...     8528
Initializing property integral containers    ... done (  0.2 sec)

SHARK setup successfully completed in   6.6 seconds

Maximum memory used throughout the entire STARTUP-calculation: 69.3 MB


           ************************************************************
           *        Program running with 8 parallel MPI-processes     *
           *              working on a common directory               *
           ************************************************************
-------------------------------------------------------------------------------
                                 ORCA GUESS
                   Start orbitals & Density for SCF / CASSCF
-------------------------------------------------------------------------------

------------
SCF SETTINGS
------------
Hamiltonian:
 Density Functional     Method          .... DFT(GTOs)
  Functional kind                       .... Exchange
  Functional name                       .... Re-regularized SCAN exchange by Furness et al
  Functional family                     .... MGGA
  Functional refs                              
    [ 0] J. W. Furness, A. D. Kaplan, J. Ning, J. P. Perdew, and J. Sun.,  J. Phys. Chem. Lett. 11, 8208-8215 (2020), doi: 10.1021/acs.jpclett.0c02405
    [ 1] J. W. Furness, A. D. Kaplan, J. Ning, J. P. Perdew, and J. Sun.,  J. Phys. Chem. Lett. 11, 9248-9248 (2020), doi: 10.1021/acs.jpclett.0c03077
  Functional external parameters        .... 6
    Parameter  0 _c1        =  6.670000e-01 : c1 parameter        
    Parameter  1 _c2        =  8.000000e-01 : c2 parameter        
    Parameter  2 _d         =  1.240000e+00 : d parameter         
    Parameter  3 _k1        =  6.500000e-02 : k1 parameter        
    Parameter  4 _eta       =  1.000000e-03 : eta parameter       
    Parameter  5 _dp2       =  3.610000e-01 : dp2 parameter       
  Functional kind                       .... Correlation
  Functional name                       .... Re-regularized SCAN correlation by Furness et al
  Functional family                     .... MGGA
  Functional refs                              
    [ 0] J. W. Furness, A. D. Kaplan, J. Ning, J. P. Perdew, and J. Sun.,  J. Phys. Chem. Lett. 11, 8208-8215 (2020), doi: 10.1021/acs.jpclett.0c02405
    [ 1] J. W. Furness, A. D. Kaplan, J. Ning, J. P. Perdew, and J. Sun.,  J. Phys. Chem. Lett. 11, 9248-9248 (2020), doi: 10.1021/acs.jpclett.0c03077
  Functional external parameters        .... 1
    Parameter  0 _eta       =  1.000000e-03 : Regularization parameter
 Gradients option       PostSCFGGA      .... off
   NL short-range parameter             .... 12.300000
 RI-approximation to the Coulomb term is turned on
   Number of AuxJ basis functions       .... 578


General Settings:
 Integral files         IntName         .... cs_rporg_002_ox_opt_06
 Hartree-Fock type      HFTyp           .... UHF
 Total Charge           Charge          ....    1
 Multiplicity           Mult            ....    2
 Number of Electrons    NEL             ....   69
 Basis Dimension        Dim             ....  644
 Nuclear Repulsion      ENuc            ....    455.9553841085 Eh

Convergence Acceleration:
 AO-DIIS                CNVDIIS         .... on
   Start iteration      DIISMaxIt       ....     0
   Startup error        DIISStart       ....  0.200000
   # of expansion vecs  DIISMaxEq       ....     5
   Bias factor          DIISBfac        ....   1.050
   Max. coefficient     DIISMaxC        ....  10.000
 MO-DIIS                CNVKDIIS        .... off
 Trust-Rad. Augm. Hess. CNVTRAH         .... auto
   Auto Start mean grad. ratio tolernc. ....  1.125000
   Auto Start start iteration           ....    50
   Auto Start num. interpolation iter.  ....    10
   Max. Number of Micro iterations      ....    24
   Max. Number of Macro iterations      .... Maxiter - #DIIS iter
   Number of Davidson start vectors     ....     2
   Converg. threshold    (grad. norm)   ....   1.000e-05
   Grad. Scal. Fac. for Micro threshold ....   0.100
   Minimum threshold for Micro iter.    ....   1.000e-02
   NR start threshold (gradient norm)   ....   1.000e-04
   Initial trust radius                 ....   0.400
   Minimum AH scaling param. (alpha)    ....   1.000
   Maximum AH scaling param. (alpha)    .... 1000.000
   Quad. conv. algorithm                .... NR
   White noise on init. David. guess    .... on
   Maximum white noise                  ....   0.010
   Pseudo random numbers                .... off
   Inactive MOs                         .... canonical
   Orbital update algorithm             .... Taylor
   Preconditioner                       .... Diag
   Full preconditioner red. dimension   ....   250
 SOSCF                  CNVSOSCF        .... on
   Start iteration      SOSCFMaxIt      ....   150
   Startup grad/error   SOSCFStart      ....  0.001000
   Hessian update       SOSCFHessUp     .... L-BFGS
 Level Shifting         CNVShift        .... on
   Level shift para.    LevelShift      ....    0.2500
   Turn off err/grad.   ShiftErr        ....    0.0000
 Zerner damping         CNVZerner       .... off
 Static damping         CNVDamp         .... on
   Fraction old density DampFac         ....    0.8500
   Max. Damping (<1)    DampMax         ....    0.9800
   Min. Damping (>=0)   DampMin         ....    0.0000
   Turn off err/grad.   DampErr         ....    0.0300

SCF Procedure:
 Maximum # iterations   MaxIter         ....  1500
 SCF integral mode      SCFMode         .... Direct
   Integral package                     .... SHARK and LIBINT hybrid scheme
 Reset frequency        DirectResetFreq ....    20
 Integral Threshold     Thresh          ....  1.000e-12 Eh
 Primitive CutOff       TCut            ....  1.000e-13 Eh

Convergence Tolerance:
 Convergence Check Mode ConvCheckMode   .... Total+1el-Energy
 Convergence forced     ConvForced      .... 0
 Energy Change          TolE            ....  1.000e-08 Eh
 1-El. energy change                    ....  1.000e-05 Eh
 Orbital Gradient       TolG            ....  1.000e-05
 Orbital Rotation angle TolX            ....  1.000e-05
 DIIS Error             TolErr          ....  5.000e-07

------------------------------
INITIAL GUESS: MODEL POTENTIAL
------------------------------
Loading Hartree-Fock densities                     ... done
Calculating cut-offs                               ... done
Initializing the effective Hamiltonian             ... done
Setting up the integral package (SHARK)            ... done
Starting the Coulomb interaction                   ... done (   0.5 sec)
Making the grid                                    ... done (   0.3 sec)
Mapping shells                                     ... done
Starting the XC term evaluation                    ... done (   0.5 sec)
  promolecular density results
     # of electrons  =     69.995701054
     EX              =    -56.477898027
     EC              =     -2.302063479
     EX+EC           =    -58.779961506
Transforming the Hamiltonian                       ... done (   0.1 sec)
Diagonalizing the Hamiltonian                      ... done (   0.1 sec)
Back transforming the eigenvectors                 ... done (   0.2 sec)
Now organizing SCF variables                       ... done
                      ------------------
                      INITIAL GUESS DONE (   2.2 sec)
                      ------------------
             **** ENERGY FILE WAS UPDATED (cs_rporg_002_ox_opt_06.en.tmp) ****
Finished Guess after   4.6 sec
Maximum memory used throughout the entire GUESS-calculation: 49.0 MB


           ************************************************************
           *        Program running with 8 parallel MPI-processes     *
           *              working on a common directory               *
           ************************************************************

-------------------------------------------------------------------------------------------
                                      ORCA LEAN-SCF
                              memory conserving SCF solver
-------------------------------------------------------------------------------------------

--------------------
CPCM SOLVATION MODEL
--------------------
CPCM parameters:
  Epsilon                                         ...      35.6880
  Refrac                                          ...       1.3442
  Rsolv                                           ...       2.1900
  Surface type                                    ...    GEPOL SES
  Discretization scheme                           ... Constant num. charges
  Epsilon function type                           ...         CPCM
Solvent:                                          ... ACETONITRILE
SMD-CDS solvent descriptors:
  Soln                                            ...       1.3442
  Soln25                                          ...       1.3416
  Sola                                            ...       0.0700
  Solb                                            ...       0.3200
  Solg                                            ...      41.2500
  Solc                                            ...       0.0000
  Solh                                            ...       0.0000
Radii:
  Scheme                                          ... Element-dependent radii
  Radius for C  used is    3.4960 Bohr (=   1.8500 Ang.)
  Radius for H  used is    2.2677 Bohr (=   1.2000 Ang.)
  Radius for O  used is    4.0969 Bohr (=   2.1680 Ang.)
Calculating surface                               ...        done! (  0.0s)
Cavity surface points                             ...          586
Cavity Volume                                     ...    1078.0580
Cavity Surface-area                               ...     627.9778
Calculating surface distance matrix               ...        done! (  0.0s)
Performing Cholesky decomposition & store         ...        done! (  0.0s)
Overall time for CPCM initialization              ...                 0.1s

----------------------------------------D-I-I-S--------------------------------------------
Iteration    Energy (Eh)           Delta-E    RMSDP     MaxDP     DIISErr   Damp  Time(sec)
-------------------------------------------------------------------------------------------
               ***  Starting incremental Fock matrix formation  ***
    1    -422.4979683726685380     0.00e+00  9.21e-04  8.62e-02  5.67e-02  0.850  12.0
Warning: op=1 Small HOMO/LUMO gap (   0.042) - skipping pre-diagonalization
         Will do a full diagonalization
    2    -422.5294550576074926    -3.15e-02  7.83e-04  7.06e-02  4.50e-02  0.850  11.7
                               ***Turning on AO-DIIS***
    3    -422.5515689208260710    -2.21e-02  4.23e-04  3.72e-02  3.31e-02  0.850  11.1
    4    -422.5664024461268582    -1.48e-02  3.10e-04  2.60e-02  2.75e-02  0.850  10.7
    5    -422.5773187494673948    -1.09e-02  1.66e-03  1.31e-01  2.30e-02  0.000  11.4
    6    -422.6289201964898439    -5.16e-02  1.99e-04  2.62e-02  3.42e-03  0.000  12.1
    7    -422.6291729009883511    -2.53e-04  4.83e-05  7.97e-03  2.19e-03  0.000  10.8
    8    -422.6293259053662723    -1.53e-04  5.51e-05  7.46e-03  1.63e-03  0.000   9.9
    9    -422.6293827801289353    -5.69e-05  3.18e-05  4.02e-03  1.18e-03  0.000  11.2
                              *** Initializing SOSCF ***
---------------------------------------S-O-S-C-F--------------------------------------
Iteration    Energy (Eh)           Delta-E    RMSDP     MaxDP     MaxGrad    Time(sec)
--------------------------------------------------------------------------------------
   10    -422.6294179520194803    -3.52e-05  2.17e-05  1.68e-03  9.03e-04    10.4
               *** Restarting incremental Fock matrix formation ***
   11    -422.6294379996921862    -2.00e-05  1.12e-05  1.13e-03  6.31e-04    11.9
   12    -422.6294473071574203    -9.31e-06  2.18e-05  1.88e-03  3.19e-04    12.6
   13    -422.6294528590104846    -5.55e-06  1.72e-05  1.82e-03  2.77e-04    10.2
   14    -422.6294552923134233    -2.43e-06  9.81e-06  9.26e-04  1.18e-04     9.3
   15    -422.6294557690464444    -4.77e-07  5.81e-06  6.40e-04  1.39e-04     8.9
   16    -422.6294560866658685    -3.18e-07  3.50e-06  3.33e-04  5.41e-05     9.8
   17    -422.6294560642153328     2.25e-08  1.22e-06  1.63e-04  6.42e-05    10.5
   18    -422.6294561182501184    -5.40e-08  1.31e-06  1.02e-04  1.88e-05     8.5
   19    -422.6294561208377445    -2.59e-09  9.35e-07  9.65e-05  1.44e-05     8.8
                 **** Energy Check signals convergence ****

               *****************************************************
               *                     SUCCESS                       *
               *           SCF CONVERGED AFTER  19 CYCLES          *
               *****************************************************


SMD CDS free energy correction energy :                -0.35733     Kcal/mol
Total Energy after SMD CDS correction =              -422.630025567 Eh
             **** ENERGY FILE WAS UPDATED (cs_rporg_002_ox_opt_06.en.tmp) ****

----------------
TOTAL SCF ENERGY
----------------

Total Energy       :       -422.63002556704049 Eh          -11500.34766 eV

Components:
Nuclear Repulsion  :        455.95538410848962 Eh           12407.17677 eV
Electronic Energy  :       -878.50149716125725 Eh          -23905.24106 eV
One Electron Energy:      -1461.87065697501430 Eh          -39779.52293 eV
Two Electron Energy:        583.36915981375705 Eh           15874.28187 eV
CPCM Dielectric    :         -0.08334306807012 Eh              -2.26788 eV
SMD CDS (Gcds)     :         -0.00056944620273 Eh              -0.01550 eV

Virial components:
Potential Energy   :       -842.77590871264920 Eh          -22933.09837 eV
Kinetic Energy     :        420.14588314560876 Eh           11432.75071 eV
Virial Ratio       :          2.00591257113561

DFT components:
N(Alpha)           :       35.000029053877 electrons
N(Beta)            :       34.000024712590 electrons
N(Total)           :       69.000053766467 electrons
E(X)               :      -57.602040238436 Eh       
E(C)               :       -2.211495084054 Eh       
E(XC)              :      -59.813535322490 Eh       

CPCM Solvation Model Properties:
Surface-charge          :         -1.03356456602547
Corrected charge        :         -1.00000000000000
Outlying charge corr.   :          0.00007837329006 Eh               0.00213 eV
Free-energy (cav+disp)  :         -0.00056944620273 Eh              -0.01550 eV

---------------
SCF CONVERGENCE
---------------

  Last Energy change         ...    2.5876e-09  Tolerance :   1.0000e-08
  Last MAX-Density change    ...    9.6530e-05  Tolerance :   1.0000e-07
  Last RMS-Density change    ...    9.3546e-07  Tolerance :   5.0000e-09
  Last DIIS Error            ...    9.0259e-04  Tolerance :   5.0000e-07
  Last Orbital Gradient      ...    1.4425e-05  Tolerance :   1.0000e-05
  Last Orbital Rotation      ...    3.9523e-05  Tolerance :   1.0000e-05


----------------------
UHF SPIN CONTAMINATION
----------------------

Warning: in a DFT calculation there is little theoretical justification to 
         calculate <S**2> as in Hartree-Fock theory. We will do it anyways
         but you should keep in mind that the values have only limited relevance

Expectation value of <S**2>     :     0.772071
Ideal value S*(S+1) for S=0.5   :     0.750000
Deviation                       :     0.022071

----------------
ORBITAL ENERGIES
----------------
                 SPIN UP ORBITALS
  NO   OCC          E(Eh)            E(eV) 
   0   1.0000     -19.066981      -518.8389 
   1   1.0000     -10.173392      -276.8321 
   2   1.0000     -10.129408      -275.6352 
   3   1.0000     -10.106522      -275.0124 
   4   1.0000     -10.095394      -274.7096 
   5   1.0000     -10.093228      -274.6507 
   6   1.0000     -10.090584      -274.5787 
   7   1.0000     -10.088866      -274.5320 
   8   1.0000     -10.088813      -274.5306 
   9   1.0000     -10.087750      -274.5016 
  10   1.0000      -1.114877       -30.3373 
  11   1.0000      -0.877525       -23.8787 
  12   1.0000      -0.802966       -21.8498 
  13   1.0000      -0.769563       -20.9409 
  14   1.0000      -0.751040       -20.4368 
  15   1.0000      -0.708275       -19.2732 
  16   1.0000      -0.630517       -17.1572 
  17   1.0000      -0.613769       -16.7015 
  18   1.0000      -0.555127       -15.1058 
  19   1.0000      -0.538832       -14.6624 
  20   1.0000      -0.504375       -13.7247 
  21   1.0000      -0.501774       -13.6540 
  22   1.0000      -0.489271       -13.3137 
  23   1.0000      -0.445639       -12.1264 
  24   1.0000      -0.433139       -11.7863 
  25   1.0000      -0.421759       -11.4766 
  26   1.0000      -0.407253       -11.0819 
  27   1.0000      -0.403877       -10.9900 
  28   1.0000      -0.368902       -10.0383 
  29   1.0000      -0.368625       -10.0308 
  30   1.0000      -0.333045        -9.0626 
  31   1.0000      -0.316123        -8.6022 
  32   1.0000      -0.294641        -8.0176 
  33   1.0000      -0.288561        -7.8521 
  34   1.0000      -0.252404        -6.8683 
  35   0.0000      -0.106528        -2.8988 
  36   0.0000      -0.077040        -2.0964 
  37   0.0000      -0.023971        -0.6523 
  38   0.0000       0.002947         0.0802 
  39   0.0000       0.006940         0.1888 
  40   0.0000       0.015671         0.4264 
  41   0.0000       0.021131         0.5750 
  42   0.0000       0.029065         0.7909 
  43   0.0000       0.031939         0.8691 
  44   0.0000       0.034809         0.9472 
  45   0.0000       0.040506         1.1022 

                 SPIN DOWN ORBITALS
  NO   OCC          E(Eh)            E(eV) 
   0   1.0000     -19.060977      -518.6755 
   1   1.0000     -10.171091      -276.7695 
   2   1.0000     -10.123956      -275.4869 
   3   1.0000     -10.106690      -275.0170 
   4   1.0000     -10.095744      -274.7192 
   5   1.0000     -10.091624      -274.6070 
   6   1.0000     -10.090050      -274.5642 
   7   1.0000     -10.087321      -274.4900 
   8   1.0000     -10.086716      -274.4735 
   9   1.0000     -10.086379      -274.4643 
  10   1.0000      -1.106091       -30.0983 
  11   1.0000      -0.870471       -23.6867 
  12   1.0000      -0.794838       -21.6286 
  13   1.0000      -0.767277       -20.8787 
  14   1.0000      -0.744003       -20.2453 
  15   1.0000      -0.699645       -19.0383 
  16   1.0000      -0.626196       -17.0397 
  17   1.0000      -0.609994       -16.5988 
  18   1.0000      -0.552245       -15.0273 
  19   1.0000      -0.535689       -14.5768 
  20   1.0000      -0.502614       -13.6768 
  21   1.0000      -0.498066       -13.5531 
  22   1.0000      -0.473520       -12.8851 
  23   1.0000      -0.443166       -12.0592 
  24   1.0000      -0.432473       -11.7682 
  25   1.0000      -0.420047       -11.4301 
  26   1.0000      -0.402943       -10.9646 
  27   1.0000      -0.392290       -10.6748 
  28   1.0000      -0.367568       -10.0020 
  29   1.0000      -0.353170        -9.6102 
  30   1.0000      -0.330022        -8.9804 
  31   1.0000      -0.297426        -8.0934 
  32   1.0000      -0.292078        -7.9479 
  33   1.0000      -0.283004        -7.7009 
  34   0.0000      -0.215279        -5.8580 
  35   0.0000      -0.081926        -2.2293 
  36   0.0000      -0.067087        -1.8255 
  37   0.0000      -0.023405        -0.6369 
  38   0.0000       0.003868         0.1052 
  39   0.0000       0.016901         0.4599 
  40   0.0000       0.021691         0.5902 
  41   0.0000       0.023884         0.6499 
  42   0.0000       0.030128         0.8198 
  43   0.0000       0.033495         0.9115 
  44   0.0000       0.036127         0.9831 
*Only the first 10 virtual orbitals were printed.

                    ********************************
                    * MULLIKEN POPULATION ANALYSIS *
                    ********************************

--------------------------------------------
MULLIKEN ATOMIC CHARGES AND SPIN POPULATIONS
--------------------------------------------
   0 C :   -0.126325    0.091787
   1 C :    1.438508    0.115571
   2 C :   -0.727964    0.125860
   3 C :   -1.111635   -0.115595
   4 C :    1.587727    0.412835
   5 C :   -1.125567   -0.058528
   6 H :   -0.269099   -0.002761
   7 C :    1.266845   -0.129286
   8 C :   -0.714030    0.343437
   9 H :    0.328592    0.013465
  10 H :   -0.249992   -0.007927
  11 H :    0.597516    0.009491
  12 O :   -0.640541    0.181143
  13 C :   -0.600612   -0.016399
  14 H :    0.237979   -0.001390
  15 H :    0.290472    0.010411
  16 H :    0.290204    0.010421
  17 H :    0.527922    0.017466
Sum of atomic charges         :    1.0000000
Sum of atomic spin populations:    1.0000000

-----------------------------------------------------
MULLIKEN REDUCED ORBITAL CHARGES AND SPIN POPULATIONS
-----------------------------------------------------
CHARGE
  0 C s       :     3.746919  s :     3.746919
      pz      :     0.921260  p :     2.193191
      px      :     0.471065
      py      :     0.800867
      dz2     :     0.019014  d :     0.205568
      dxz     :     0.003361
      dyz     :    -0.004914
      dx2y2   :     0.021212
      dxy     :     0.166895
      f0      :     0.000136  f :    -0.019353
      f+1     :    -0.000383
      f-1     :    -0.000290
      f+2     :     0.000947
      f-2     :    -0.001059
      f+3     :     0.002658
      f-3     :    -0.021361

  1 C s       :     3.043248  s :     3.043248
      pz      :     0.802492  p :     1.838561
      px      :     0.332108
      py      :     0.703961
      dz2     :    -0.033889  d :    -0.319324
      dxz     :     0.026037
      dyz     :    -0.006830
      dx2y2   :    -0.214027
      dxy     :    -0.090615
      f0      :     0.003451  f :    -0.000992
      f+1     :     0.000470
      f-1     :     0.001403
      f+2     :     0.007529
      f-2     :     0.004611
      f+3     :     0.004234
      f-3     :    -0.022690

  2 C s       :     3.807645  s :     3.807645
      pz      :     0.917467  p :     2.718563
      px      :     0.831245
      py      :     0.969851
      dz2     :     0.020843  d :     0.220432
      dxz     :     0.035836
      dyz     :     0.015262
      dx2y2   :    -0.009851
      dxy     :     0.158342
      f0      :    -0.000118  f :    -0.018676
      f+1     :    -0.000658
      f-1     :     0.000563
      f+2     :     0.001096
      f-2     :    -0.000618
      f+3     :     0.001891
      f-3     :    -0.020832

  3 C s       :     4.081916  s :     4.081916
      pz      :     0.896661  p :     2.802089
      px      :     0.936145
      py      :     0.969284
      dz2     :    -0.024016  d :     0.246006
      dxz     :     0.023185
      dyz     :    -0.001498
      dx2y2   :    -0.081890
      dxy     :     0.330225
      f0      :     0.000597  f :    -0.018377
      f+1     :     0.000160
      f-1     :     0.000449
      f+2     :     0.000556
      f-2     :     0.000362
      f+3     :    -0.002870
      f-3     :    -0.017630

  4 C s       :     2.780126  s :     2.780126
      pz      :     0.889986  p :     1.603206
      px      :     0.213531
      py      :     0.499689
      dz2     :     0.027886  d :     0.097929
      dxz     :    -0.064145
      dyz     :    -0.003081
      dx2y2   :     0.247264
      dxy     :    -0.109995
      f0      :     0.002031  f :    -0.068988
      f+1     :    -0.006119
      f-1     :    -0.000790
      f+2     :     0.000242
      f-2     :    -0.000301
      f+3     :    -0.026912
      f-3     :    -0.037138

  5 C s       :     4.179155  s :     4.179155
      pz      :     0.891391  p :     2.754868
      px      :     0.891579
      py      :     0.971898
      dz2     :    -0.027855  d :     0.210267
      dxz     :     0.009425
      dyz     :     0.002881
      dx2y2   :    -0.019091
      dxy     :     0.244907
      f0      :     0.000846  f :    -0.018724
      f+1     :    -0.000161
      f-1     :     0.000351
      f+2     :     0.001022
      f-2     :     0.000218
      f+3     :     0.003038
      f-3     :    -0.024038

  6 H s       :     1.145060  s :     1.145060
      pz      :     0.012474  p :     0.115452
      px      :     0.006929
      py      :     0.096048
      dz2     :    -0.000502  d :     0.008588
      dxz     :     0.001053
      dyz     :     0.004116
      dx2y2   :     0.002844
      dxy     :     0.001076

  7 C s       :     2.530437  s :     2.530437
      pz      :     1.089010  p :     2.331018
      px      :     0.065833
      py      :     1.176176
      dz2     :     0.013211  d :    -0.115906
      dxz     :    -0.048480
      dyz     :     0.002447
      dx2y2   :    -0.008000
      dxy     :    -0.075084
      f0      :     0.001904  f :    -0.012394
      f+1     :    -0.002673
      f-1     :    -0.000804
      f+2     :     0.001598
      f-2     :     0.000228
      f+3     :    -0.000534
      f-3     :    -0.012114

  8 C s       :     4.032847  s :     4.032847
      pz      :     0.823968  p :     2.636560
      px      :     0.744903
      py      :     1.067689
      dz2     :     0.005477  d :     0.044998
      dxz     :    -0.003008
      dyz     :    -0.000141
      dx2y2   :     0.014816
      dxy     :     0.027854
      f0      :    -0.001225  f :    -0.000375
      f+1     :     0.001151
      f-1     :    -0.000074
      f+2     :    -0.001999
      f-2     :    -0.000047
      f+3     :     0.002913
      f-3     :    -0.001094

  9 H s       :     0.609176  s :     0.609176
      pz      :     0.013967  p :     0.059179
      px      :     0.021697
      py      :     0.023514
      dz2     :    -0.001402  d :     0.003054
      dxz     :     0.003231
      dyz     :     0.000023
      dx2y2   :    -0.002689
      dxy     :     0.003891

 10 H s       :     1.140945  s :     1.140945
      pz      :     0.013940  p :     0.100606
      px      :     0.000267
      py      :     0.086399
      dz2     :    -0.000465  d :     0.008441
      dxz     :     0.001703
      dyz     :     0.003580
      dx2y2   :     0.003548
      dxy     :     0.000074

 11 H s       :     0.437740  s :     0.437740
      pz      :     0.020849  p :    -0.042950
      px      :    -0.023810
      py      :    -0.039990
      dz2     :    -0.000126  d :     0.007694
      dxz     :     0.001256
      dyz     :     0.004444
      dx2y2   :     0.002095
      dxy     :     0.000026

 12 O s       :     4.222850  s :     4.222850
      pz      :     1.610725  p :     4.326641
      px      :     1.174461
      py      :     1.541455
      dz2     :     0.000923  d :     0.083995
      dxz     :     0.025672
      dyz     :     0.007117
      dx2y2   :     0.020656
      dxy     :     0.029627
      f0      :     0.000828  f :     0.007056
      f+1     :     0.000001
      f-1     :    -0.000046
      f+2     :     0.001165
      f-2     :     0.001096
      f+3     :     0.001694
      f-3     :     0.002317

 13 C s       :     3.530483  s :     3.530483
      pz      :     1.124529  p :     2.906723
      px      :     0.902004
      py      :     0.880190
      dz2     :     0.015967  d :     0.139598
      dxz     :     0.004046
      dyz     :     0.056787
      dx2y2   :     0.041132
      dxy     :     0.021666
      f0      :     0.002663  f :     0.023806
      f+1     :     0.001467
      f-1     :     0.002906
      f+2     :     0.001374
      f-2     :     0.004447
      f+3     :     0.001312
      f-3     :     0.009638

 14 H s       :     0.718984  s :     0.718984
      pz      :     0.019169  p :     0.040184
      px      :     0.014205
      py      :     0.006810
      dz2     :    -0.000856  d :     0.002854
      dxz     :     0.001753
      dyz     :     0.002136
      dx2y2   :     0.000940
      dxy     :    -0.001119

 15 H s       :     0.675916  s :     0.675916
      pz      :     0.011772  p :     0.027711
      px      :     0.007151
      py      :     0.008788
      dz2     :     0.002840  d :     0.005901
      dxz     :     0.001254
      dyz     :     0.000898
      dx2y2   :     0.000260
      dxy     :     0.000648

 16 H s       :     0.676115  s :     0.676115
      pz      :     0.011825  p :     0.027806
      px      :     0.007174
      py      :     0.008807
      dz2     :     0.002830  d :     0.005875
      dxz     :     0.001247
      dyz     :     0.000898
      dx2y2   :     0.000257
      dxy     :     0.000643

 17 H s       :     0.512094  s :     0.512094
      pz      :     0.017031  p :    -0.049243
      px      :    -0.025430
      py      :    -0.040843
      dz2     :     0.000109  d :     0.009227
      dxz     :     0.001838
      dyz     :     0.003550
      dx2y2   :     0.003098
      dxy     :     0.000633


SPIN
  0 C s       :     0.013810  s :     0.013810
      pz      :     0.093132  p :     0.073575
      px      :    -0.017819
      py      :    -0.001738
      dz2     :    -0.000984  d :     0.006550
      dxz     :    -0.000236
      dyz     :     0.001783
      dx2y2   :    -0.000288
      dxy     :     0.006274
      f0      :    -0.000392  f :    -0.002148
      f+1     :    -0.000228
      f-1     :    -0.000057
      f+2     :     0.000057
      f-2     :    -0.000591
      f+3     :    -0.000597
      f-3     :    -0.000340

  1 C s       :     0.012515  s :     0.012515
      pz      :     0.127236  p :     0.101612
      px      :    -0.017475
      py      :    -0.008149
      dz2     :    -0.000465  d :     0.000377
      dxz     :     0.006300
      dyz     :    -0.001047
      dx2y2   :    -0.003899
      dxy     :    -0.000514
      f0      :    -0.000517  f :     0.001066
      f+1     :    -0.000152
      f-1     :    -0.000204
      f+2     :     0.001837
      f-2     :     0.000796
      f+3     :    -0.000207
      f-3     :    -0.000486

  2 C s       :     0.009318  s :     0.009318
      pz      :     0.120949  p :     0.115084
      px      :    -0.007219
      py      :     0.001353
      dz2     :    -0.001428  d :     0.003308
      dxz     :    -0.001722
      dyz     :     0.000190
      dx2y2   :     0.001386
      dxy     :     0.004882
      f0      :    -0.000441  f :    -0.001850
      f+1     :    -0.000291
      f-1     :    -0.000106
      f+2     :    -0.000414
      f-2     :    -0.000518
      f+3     :    -0.000456
      f-3     :     0.000376

  3 C s       :    -0.023962  s :    -0.023962
      pz      :    -0.059135  p :    -0.091282
      px      :    -0.025136
      py      :    -0.007011
      dz2     :     0.000748  d :     0.001016
      dxz     :    -0.000387
      dyz     :     0.003469
      dx2y2   :    -0.000313
      dxy     :    -0.002501
      f0      :    -0.000085  f :    -0.001367
      f+1     :     0.000065
      f-1     :     0.000166
      f+2     :    -0.000071
      f-2     :    -0.000139
      f+3     :    -0.000967
      f-3     :    -0.000336

  4 C s       :     0.040991  s :     0.040991
      pz      :     0.283684  p :     0.348196
      px      :     0.018558
      py      :     0.045954
      dz2     :    -0.000212  d :     0.026978
      dxz     :    -0.001358
      dyz     :     0.006789
      dx2y2   :     0.015828
      dxy     :     0.005932
      f0      :    -0.000449  f :    -0.003331
      f+1     :    -0.000275
      f-1     :    -0.000285
      f+2     :    -0.000516
      f-2     :    -0.000429
      f+3     :     0.000347
      f-3     :    -0.001724

  5 C s       :    -0.011640  s :    -0.011640
      pz      :    -0.018150  p :    -0.047946
      px      :    -0.025349
      py      :    -0.004447
      dz2     :     0.000657  d :     0.002357
      dxz     :     0.003086
      dyz     :     0.001808
      dx2y2   :    -0.002981
      dxy     :    -0.000213
      f0      :    -0.000168  f :    -0.001300
      f+1     :    -0.000069
      f-1     :     0.000120
      f+2     :     0.000187
      f-2     :    -0.000087
      f+3     :    -0.000848
      f-3     :    -0.000435

  6 H s       :    -0.003823  s :    -0.003823
      pz      :    -0.001133  p :     0.000899
      px      :     0.000026
      py      :     0.002006
      dz2     :     0.000027  d :     0.000163
      dxz     :    -0.000140
      dyz     :     0.000096
      dx2y2   :    -0.000016
      dxy     :     0.000196

  7 C s       :    -0.051651  s :    -0.051651
      pz      :    -0.076590  p :    -0.065464
      px      :     0.038884
      py      :    -0.027758
      dz2     :     0.000899  d :    -0.013199
      dxz     :    -0.008951
      dyz     :    -0.000832
      dx2y2   :     0.001680
      dxy     :    -0.005995
      f0      :     0.000411  f :     0.001027
      f+1     :     0.000433
      f-1     :     0.000060
      f+2     :     0.000352
      f-2     :    -0.000056
      f+3     :    -0.000194
      f-3     :     0.000021

  8 C s       :    -0.039034  s :    -0.039034
      pz      :     0.333586  p :     0.384931
      px      :     0.017449
      py      :     0.033897
      dz2     :    -0.002697  d :    -0.001172
      dxz     :     0.000965
      dyz     :     0.000056
      dx2y2   :    -0.000597
      dxy     :     0.001102
      f0      :    -0.000896  f :    -0.001289
      f+1     :    -0.000192
      f-1     :    -0.000305
      f+2     :     0.000116
      f-2     :     0.000002
      f+3     :    -0.000140
      f-3     :     0.000125

  9 H s       :    -0.000181  s :    -0.000181
      pz      :     0.008209  p :     0.013068
      px      :     0.003269
      py      :     0.001590
      dz2     :     0.000003  d :     0.000578
      dxz     :     0.000813
      dyz     :     0.000004
      dx2y2   :    -0.000428
      dxy     :     0.000187

 10 H s       :    -0.007948  s :    -0.007948
      pz      :    -0.002144  p :     0.000049
      px      :     0.000680
      py      :     0.001513
      dz2     :     0.000012  d :    -0.000028
      dxz     :    -0.000199
      dyz     :    -0.000041
      dx2y2   :    -0.000021
      dxy     :     0.000221

 11 H s       :     0.007029  s :     0.007029
      pz      :     0.001653  p :     0.002050
      px      :    -0.000480
      py      :     0.000876
      dz2     :     0.000070  d :     0.000412
      dxz     :    -0.000004
      dyz     :     0.000351
      dx2y2   :    -0.000038
      dxy     :     0.000032

 12 O s       :     0.004902  s :     0.004902
      pz      :     0.153019  p :     0.171223
      px      :     0.009525
      py      :     0.008680
      dz2     :     0.000164  d :     0.005075
      dxz     :     0.004563
      dyz     :     0.000171
      dx2y2   :     0.000264
      dxy     :    -0.000088
      f0      :    -0.000057  f :    -0.000057
      f+1     :    -0.000058
      f-1     :    -0.000028
      f+2     :     0.000040
      f-2     :     0.000045
      f+3     :     0.000003
      f-3     :    -0.000001

 13 C s       :    -0.009296  s :    -0.009296
      pz      :     0.000393  p :    -0.010738
      px      :    -0.005110
      py      :    -0.006021
      dz2     :    -0.000090  d :     0.003080
      dxz     :    -0.000261
      dyz     :     0.004758
      dx2y2   :    -0.001482
      dxy     :     0.000154
      f0      :    -0.000134  f :     0.000556
      f+1     :     0.000062
      f-1     :     0.000070
      f+2     :    -0.000053
      f-2     :     0.000549
      f+3     :    -0.000066
      f-3     :     0.000128

 14 H s       :    -0.001617  s :    -0.001617
      pz      :    -0.000166  p :     0.000363
      px      :     0.000254
      py      :     0.000275
      dz2     :    -0.000005  d :    -0.000136
      dxz     :    -0.000088
      dyz     :     0.000050
      dx2y2   :    -0.000080
      dxy     :    -0.000013

 15 H s       :     0.009334  s :     0.009334
      pz      :     0.000562  p :     0.001187
      px      :     0.000289
      py      :     0.000335
      dz2     :     0.000060  d :    -0.000109
      dxz     :    -0.000026
      dyz     :    -0.000060
      dx2y2   :    -0.000058
      dxy     :    -0.000025

 16 H s       :     0.009345  s :     0.009345
      pz      :     0.000561  p :     0.001186
      px      :     0.000290
      py      :     0.000334
      dz2     :     0.000060  d :    -0.000110
      dxz     :    -0.000026
      dyz     :    -0.000060
      dx2y2   :    -0.000058
      dxy     :    -0.000025

 17 H s       :     0.016068  s :     0.016068
      pz      :     0.001781  p :     0.001086
      px      :    -0.002355
      py      :     0.001660
      dz2     :     0.000099  d :     0.000312
      dxz     :    -0.000158
      dyz     :     0.000312
      dx2y2   :    -0.000055
      dxy     :     0.000114



                     *******************************
                     * LOEWDIN POPULATION ANALYSIS *
                     *******************************

-------------------------------------------
LOEWDIN ATOMIC CHARGES AND SPIN POPULATIONS
-------------------------------------------
   0 C :    0.284390    0.072026
   1 C :   -0.332182    0.123416
   2 C :    0.278214    0.077864
   3 C :    0.255295    0.026537
   4 C :   -0.157918    0.138425
   5 C :    0.263472    0.043489
   6 H :   -0.135916   -0.000945
   7 C :    0.055101    0.072401
   8 C :    0.506043    0.203827
   9 H :   -0.233449    0.046434
  10 H :   -0.138650   -0.005127
  11 H :   -0.142191    0.011983
  12 O :    0.656494    0.150540
  13 C :    0.439245    0.018118
  14 H :   -0.154606   -0.000296
  15 H :   -0.143732    0.005431
  16 H :   -0.143679    0.005432
  17 H :   -0.155933    0.010444

----------------------------------------------------
LOEWDIN REDUCED ORBITAL CHARGES AND SPIN POPULATIONS
----------------------------------------------------
CHARGE
  0 C s       :     2.484949  s :     2.484949
      pz      :     0.594540  p :     2.266061
      px      :     0.851606
      py      :     0.819914
      dz2     :     0.069037  d :     0.641786
      dxz     :     0.078468
      dyz     :     0.053743
      dx2y2   :     0.193011
      dxy     :     0.247527
      f0      :     0.022109  f :     0.322815
      f+1     :     0.028561
      f-1     :     0.023856
      f+2     :     0.040524
      f-2     :     0.020887
      f+3     :     0.063520
      f-3     :     0.123358

  1 C s       :     2.465447  s :     2.465447
      pz      :     0.548426  p :     2.163944
      px      :     0.749687
      py      :     0.865831
      dz2     :     0.101455  d :     1.075565
      dxz     :     0.181236
      dyz     :     0.124006
      dx2y2   :     0.338943
      dxy     :     0.329925
      f0      :     0.039004  f :     0.627226
      f+1     :     0.049006
      f-1     :     0.035149
      f+2     :     0.070052
      f-2     :     0.068241
      f+3     :     0.111998
      f-3     :     0.253777

  2 C s       :     2.493822  s :     2.493822
      pz      :     0.583422  p :     2.257838
      px      :     0.855288
      py      :     0.819129
      dz2     :     0.067957  d :     0.639983
      dxz     :     0.090781
      dyz     :     0.046916
      dx2y2   :     0.197129
      dxy     :     0.237200
      f0      :     0.022406  f :     0.330143
      f+1     :     0.031348
      f-1     :     0.022202
      f+2     :     0.033699
      f-2     :     0.029146
      f+3     :     0.067257
      f-3     :     0.124086

  3 C s       :     2.489669  s :     2.489669
      pz      :     0.569410  p :     2.249465
      px      :     0.859813
      py      :     0.820241
      dz2     :     0.068637  d :     0.674952
      dxz     :     0.091050
      dyz     :     0.058639
      dx2y2   :     0.188948
      dxy     :     0.267677
      f0      :     0.022249  f :     0.330620
      f+1     :     0.028923
      f-1     :     0.022983
      f+2     :     0.041877
      f-2     :     0.020766
      f+3     :     0.061194
      f-3     :     0.132628

  4 C s       :     2.479853  s :     2.479853
      pz      :     0.580366  p :     2.271764
      px      :     0.844817
      py      :     0.846580
      dz2     :     0.084734  d :     0.927258
      dxz     :     0.137244
      dyz     :     0.110344
      dx2y2   :     0.330291
      dxy     :     0.264645
      f0      :     0.034051  f :     0.479043
      f+1     :     0.033846
      f-1     :     0.032602
      f+2     :     0.039000
      f-2     :     0.060260
      f+3     :     0.087310
      f-3     :     0.191975

  5 C s       :     2.488875  s :     2.488875
      pz      :     0.557386  p :     2.236512
      px      :     0.856301
      py      :     0.822826
      dz2     :     0.068414  d :     0.678013
      dxz     :     0.104663
      dyz     :     0.048691
      dx2y2   :     0.212299
      dxy     :     0.243946
      f0      :     0.022318  f :     0.333127
      f+1     :     0.030651
      f-1     :     0.021394
      f+2     :     0.034124
      f-2     :     0.030029
      f+3     :     0.064229
      f-3     :     0.130382

  6 H s       :     0.638664  s :     0.638664
      pz      :     0.067326  p :     0.287321
      px      :     0.089789
      py      :     0.130205
      dz2     :     0.023418  d :     0.209932
      dxz     :     0.015615
      dyz     :     0.043178
      dx2y2   :     0.066389
      dxy     :     0.061332

  7 C s       :     2.593301  s :     2.593301
      pz      :     0.692636  p :     2.459615
      px      :     1.055487
      py      :     0.711492
      dz2     :     0.067581  d :     0.617583
      dxz     :     0.150064
      dyz     :     0.005965
      dx2y2   :     0.169000
      dxy     :     0.224973
      f0      :     0.026734  f :     0.274400
      f+1     :     0.040820
      f-1     :     0.007093
      f+2     :     0.044938
      f-2     :     0.004518
      f+3     :     0.066227
      f-3     :     0.084071

  8 C s       :     2.672995  s :     2.672995
      pz      :     0.611455  p :     2.400744
[...]
      dxz     :    -0.008270
      dyz     :    -0.004571
      dx2y2   :    -0.000851
      dxy     :    -0.002837
      f0      :    -0.003260  f :    -0.001753
      f+1     :    -0.000219
      f-1     :    -0.000309
      f+2     :     0.005786
      f-2     :    -0.001329
      f+3     :    -0.000552
      f-3     :    -0.001870

  5 C s       :    -0.000683  s :    -0.000683
      pz      :    -0.000616  p :    -0.005111
      px      :    -0.002051
      py      :    -0.002445
      dz2     :    -0.000020  d :     0.029253
      dxz     :     0.021324
      dyz     :     0.006453
      dx2y2   :     0.000486
      dxy     :     0.001010
      f0      :     0.001623  f :     0.021798
      f+1     :    -0.000156
      f-1     :    -0.000087
      f+2     :     0.008453
      f-2     :     0.011191
      f+3     :     0.000621
      f-3     :     0.000152

  6 H s       :     0.000061  s :     0.000061
      pz      :    -0.000626  p :    -0.001110
      px      :    -0.000385
      py      :    -0.000100
      dz2     :    -0.000009  d :     0.000566
      dxz     :    -0.000786
      dyz     :     0.001798
      dx2y2   :    -0.000272
      dxy     :    -0.000166

  7 C s       :    -0.003871  s :    -0.003871
      pz      :    -0.021836  p :    -0.037118
      px      :    -0.003277
      py      :    -0.012005
      dz2     :     0.000196  d :     0.101920
      dxz     :     0.095181
      dyz     :     0.000437
      dx2y2   :     0.002968
      dxy     :     0.003137
      f0      :     0.004100  f :     0.013641
      f+1     :    -0.000345
      f-1     :     0.000086
      f+2     :     0.006735
      f-2     :     0.000058
      f+3     :     0.001235
      f-3     :     0.001772

  8 C s       :     0.007254  s :     0.007254
      pz      :     0.197191  p :     0.213325
      px      :     0.002253
      py      :     0.013881
      dz2     :    -0.002199  d :    -0.013401
      dxz     :    -0.007664
      dyz     :    -0.000072
      dx2y2   :    -0.001564
      dxy     :    -0.001902
      f0      :    -0.002703  f :    -0.008048
      f+1     :    -0.000413
      f-1     :    -0.000361
      f+2     :    -0.002909
      f-2     :    -0.000109
      f+3     :    -0.000446
      f-3     :    -0.001107

  9 H s       :    -0.007964  s :    -0.007964
      pz      :     0.026261  p :     0.031373
      px      :     0.003408
      py      :     0.001704
      dz2     :    -0.000039  d :     0.023159
      dxz     :     0.020586
      dyz     :     0.000183
      dx2y2   :     0.000908
      dxy     :     0.001521

 10 H s       :     0.000697  s :     0.000697
      pz      :    -0.003138  p :    -0.003924
      px      :    -0.000441
      py      :    -0.000345
      dz2     :     0.000002  d :    -0.001692
      dxz     :    -0.001520
      dyz     :     0.000411
      dx2y2   :    -0.000369
      dxy     :    -0.000216

 11 H s       :    -0.002021  s :    -0.002021
      pz      :     0.006817  p :     0.007368
      px      :    -0.000086
      py      :     0.000638
      dz2     :    -0.000037  d :     0.006410
      dxz     :     0.000037
      dyz     :     0.006226
      dx2y2   :     0.000043
      dxy     :     0.000141

 12 O s       :     0.003688  s :     0.003688
      pz      :     0.128972  p :     0.135992
      px      :     0.003602
      py      :     0.003417
      dz2     :     0.000062  d :     0.012128
      dxz     :     0.010418
      dyz     :     0.002067
      dx2y2   :     0.000090
      dxy     :    -0.000507
      f0      :     0.002141  f :     0.003966
      f+1     :    -0.000067
      f-1     :    -0.000049
      f+2     :     0.002030
      f-2     :     0.000027
      f+3     :    -0.000032
      f-3     :    -0.000085

 13 C s       :    -0.000530  s :    -0.000530
      pz      :     0.000991  p :    -0.003079
      px      :    -0.001754
      py      :    -0.002315
      dz2     :     0.000225  d :     0.012372
      dxz     :     0.000378
      dyz     :     0.011897
      dx2y2   :    -0.000373
      dxy     :     0.000246
      f0      :     0.002209  f :     0.007876
      f+1     :     0.000023
      f-1     :     0.000129
      f+2     :     0.000364
      f-2     :     0.004907
      f+3     :     0.000249
      f-3     :    -0.000005

 14 H s       :    -0.000082  s :    -0.000082
      pz      :    -0.000132  p :    -0.000600
      px      :    -0.000205
      py      :    -0.000264
      dz2     :    -0.000036  d :     0.000273
      dxz     :    -0.000143
      dyz     :     0.000816
      dx2y2   :    -0.000238
      dxy     :    -0.000126

 15 H s       :     0.004529  s :     0.004529
      pz      :     0.000216  p :    -0.000003
      px      :    -0.000016
      py      :    -0.000202
      dz2     :     0.000007  d :     0.000122
      dxz     :    -0.000110
      dyz     :    -0.000116
      dx2y2   :     0.000376
      dxy     :    -0.000035

 16 H s       :     0.004563  s :     0.004563
      pz      :     0.000211  p :    -0.000004
      px      :    -0.000018
      py      :    -0.000197
      dz2     :     0.000002  d :     0.000110
      dxz     :    -0.000111
      dyz     :    -0.000116
      dx2y2   :     0.000370
      dxy     :    -0.000035

 17 H s       :    -0.001489  s :    -0.001489
      pz      :     0.006119  p :     0.006543
      px      :    -0.000006
      py      :     0.000429
      dz2     :    -0.000027  d :     0.005171
      dxz     :    -0.000184
      dyz     :     0.005275
      dx2y2   :    -0.000053
      dxy     :     0.000160



                      *****************************
                      * MAYER POPULATION ANALYSIS *
                      *****************************

  NA   - Mulliken gross atomic population
  ZA   - Total nuclear charge
  QA   - Mulliken gross atomic charge
  VA   - Mayer's total valence
  BVA  - Mayer's bonded valence
  FA   - Mayer's free valence

  ATOM       NA         ZA         QA         VA         BVA        FA
  0 C      6.0851     6.0000    -0.0851     2.1441     2.1332     0.0109
  1 C      4.5695     6.0000     1.4305     1.1982     1.1729     0.0252
  2 C      6.7304     6.0000    -0.7304     2.9124     2.8971     0.0153
  3 C      7.0993     6.0000    -1.0993     3.0584     3.0538     0.0046
  4 C      4.3435     6.0000     1.6565     2.2607     2.1787     0.0820
  5 C      7.1743     6.0000    -1.1743     2.6608     2.6589     0.0019
  6 H      1.3076     1.0000    -0.3076     1.5713     1.5713     0.0000
  7 C      4.7373     6.0000     1.2627     1.6041     1.5960     0.0080
  8 C      6.7140     6.0000    -0.7140     3.1974     3.0872     0.1102
  9 H      0.6819     1.0000     0.3181     0.9803     0.9801     0.0002
 10 H      1.2737     1.0000    -0.2737     1.5466     1.5466     0.0000
 11 H      0.3963     1.0000     0.6037     0.2875     0.2874     0.0001
 12 O      8.6388     8.0000    -0.6388     1.7324     1.7049     0.0275
 13 C      6.6066     6.0000    -0.6066     3.6286     3.6281     0.0005
 14 H      0.7611     1.0000     0.2389     1.0043     1.0043     0.0000
 15 H      0.7090     1.0000     0.2910     0.9263     0.9262     0.0001
 16 H      0.7092     1.0000     0.2908     0.9270     0.9269     0.0001
 17 H      0.4624     1.0000     0.5376     0.3223     0.3220     0.0003

  Mayer bond orders larger than 0.100000
B(  0-C ,  1-C ) :   0.7820 B(  0-C ,  2-C ) :   0.1450 B(  0-C ,  4-C ) :   0.7488 
B(  0-C ,  5-C ) :   1.0998 B(  0-C ,  6-H ) :  -0.1799 B(  0-C ,  7-C ) :  -0.2306 
B(  0-C , 10-H ) :  -0.1276 B(  0-C , 11-H ) :  -0.1124 B(  0-C , 17-H ) :   0.2873 
B(  1-C ,  2-C ) :   0.5898 B(  1-C ,  3-C ) :  -0.5374 B(  1-C ,  4-C ) :  -0.2015 
B(  1-C ,  5-C ) :  -0.5380 B(  1-C ,  7-C ) :   0.3153 B(  1-C , 11-H ) :   0.1832 
B(  1-C , 12-O ) :   0.3712 B(  1-C , 17-H ) :   0.1663 B(  2-C ,  3-C ) :   1.3756 
B(  2-C ,  4-C ) :   0.5745 B(  2-C ,  7-C ) :  -0.1204 B(  2-C , 11-H ) :   0.2031 
B(  2-C , 12-O ) :   0.3442 B(  3-C ,  5-C ) :  -0.5890 B(  3-C ,  6-H ) :   0.2423 
B(  3-C ,  7-C ) :   0.4284 B(  3-C , 10-H ) :   2.0976 B(  4-C ,  5-C ) :   0.1225 
B(  4-C ,  6-H ) :  -0.1294 B(  4-C ,  8-C ) :   0.7809 B(  4-C , 12-O ) :   0.1099 
B(  5-C ,  6-H ) :   2.1894 B(  5-C ,  7-C ) :   0.3514 B(  5-C ,  8-C ) :  -0.1546 
B(  5-C , 10-H ) :   0.2073 B(  6-H ,  7-C ) :  -0.3346 B(  6-H ,  8-C ) :  -0.3567 
B(  6-H , 10-H ) :   0.4607 B(  7-C ,  8-C ) :   1.6711 B(  7-C ,  9-H ) :  -0.2852 
B(  7-C , 10-H ) :  -0.4184 B(  7-C , 11-H ) :   0.1069 B(  7-C , 17-H ) :   0.1186 
B(  8-C ,  9-H ) :   1.2464 B(  8-C , 10-H ) :  -0.3518 B(  8-C , 11-H ) :   0.1481 
B(  8-C , 17-H ) :   0.2044 B( 10-H , 11-H ) :  -0.1057 B( 12-O , 13-C ) :   0.9421 
B( 13-C , 14-H ) :   0.9821 B( 13-C , 15-H ) :   0.8877 B( 13-C , 16-H ) :   0.8879 


-------
TIMINGS
-------

Total SCF time: 0 days 0 hours 0 min 47 sec 

Total time                  ....      47.913 sec
Sum of individual times     ....      46.458 sec  ( 97.0%)

SCF preparation             ....       1.169 sec  (  2.4%)
Fock matrix formation       ....      34.538 sec  ( 72.1%)
  Startup                   ....       1.387 sec  (  4.0% of F)
  Split-RI-J                ....       3.801 sec  ( 11.0% of F)
  XC integration            ....      25.153 sec  ( 72.8% of F)
    XC Preparation          ....       0.000 sec  (  0.0% of XC)
    Basis function eval.    ....       1.052 sec  (  4.2% of XC)
    Density eval.           ....       9.268 sec  ( 36.8% of XC)
    XC-Functional eval.     ....       0.200 sec  (  0.8% of XC)
    XC-Potential eval.      ....      12.532 sec  ( 49.8% of XC)
  CPCM terms                ....       1.441 sec  (  4.2% of F)
Diagonalization             ....       0.000 sec  (  0.0%)
Density matrix formation    ....       2.739 sec  (  5.7%)
Total Energy calculation    ....       1.149 sec  (  2.4%)
Population analysis         ....       1.376 sec  (  2.9%)
Orbital Transformation      ....       1.065 sec  (  2.2%)
Orbital Orthonormalization  ....       0.000 sec  (  0.0%)
DIIS solution               ....       1.006 sec  (  2.1%)
SOSCF solution              ....       3.416 sec  (  7.1%)
Finished LeanSCF after  48.7 sec

Maximum memory used throughout the entire LEANSCF-calculation: 72.2 MB


-------------------------------------------------------------------------------
                          DFT DISPERSION CORRECTION                            
                                                                               
                              DFTD3 V3.1  Rev 1                                
                          USING Becke-Johnson damping                          
-------------------------------------------------------------------------------
The R2SCAN functional is recognized
Active option DFTDOPT                   ...         4   

molecular C6(AA) [au] = 3889.880030 


            DFT-D V3
 parameters
 s6 scaling factor         :     1.0000 
 a1 scaling factor         :     0.4948 
 s8 scaling factor         :     0.7898 
 a2 scaling factor         :     5.7308 
 ad hoc parameters k1-k3   :    16.0000     1.3333    -4.0000 

 Edisp/kcal,au: -3.465342674079  -0.005522374478 
 E6   /kcal   :  -2.703790861 
 E8   /kcal   :  -0.761551813 
 % E8         :  21.976233951 

-------------------------   ----------------
Dispersion correction           -0.005522374
-------------------------   ----------------


-------------------------   --------------------
FINAL SINGLE POINT ENERGY      -422.637108006261
-------------------------   --------------------

                                *** OPTIMIZATION RUN DONE ***



           ************************************************************
           *        Program running with 8 parallel MPI-processes     *
           *              working on a common directory               *
           ************************************************************

------------------------------------------------------------------------------
                              ORCA PROPERTY CALCULATIONS
------------------------------------------------------------------------------

GBWName                                 ... cs_rporg_002_ox_opt_06.gbw
Number of atoms                         ...     18
Number of basis functions               ...    704
Max core memory                         ...   3500 MB

Electric properties:
Dipole moment                           ... YES
Quadrupole moment                       ...  NO
Static polarizability (Dipole/Dipole)   ...  NO
Static polarizability (Dipole/Quad.)    ...  NO
Static polarizability (Quad./Quad.)     ...  NO
Static polarizability (Velocity)        ...  NO

Atomic electric properties:
Dipole moment                           ...  NO
Quadrupole moment                       ...  NO
Static polarizability                   ...  NO

Choice of electric origin               ... Center of mass
Position of electric origin             ...    -0.000803    -0.003468    -0.000049

General magnetic properties:
Magnetizability                         ...  NO

EPR properties:
g-Tensor (aka g-matrix)                 ...  NO
Zero-Field splitting spin-orbit         ...  NO
Zero-field splitting spin-spin          ...  NO
Hyperfine couplings                     ...  NO (   0 nuclei)
Quadrupole couplings                    ...  NO (   0 nuclei)
Contact density                         ...  NO (   0 nuclei)

NMR properties:
Chemical shifts                         ...  NO (   0 nuclei)
Spin-rotation constants                 ...  NO (   0 nuclei)
Spin-spin couplings                     ...  NO (   0 nuclei,    0 pairs)

Choice of magnetic origin               ... GIAO
Position of magnetic origin             ...     0.000000     0.000000     0.000000

Properties with geometric perturbations:
SCF Hessian                             ...  NO
IR spectrum                             ...  NO
VCD spectrum                            ...  NO
X-ray spectroscopy properties:
SCF XES/XAS/RIXS spectra                ...  NO


-------------
DIPOLE MOMENT
-------------

Method             : SCF
Type of density    : Electron Density
Multiplicity       :   2
Irrep              :   0
Energy             :  -422.6315856317827979 Eh
Relativity type    : 
Basis              : AO
                                X                 Y                 Z
Electronic contribution:      5.136696268       1.787111102      -0.001783706
Nuclear contribution   :     -5.449511776      -2.471316496       0.001621456
                        -----------------------------------------
Total Dipole Moment    :     -0.312815507      -0.684205395      -0.000162250
                        -----------------------------------------
Magnitude (a.u.)       :      0.752323461
Magnitude (Debye)      :      1.912254268



--------------------
Rotational spectrum 
--------------------
 
Rotational constants in cm-1:             0.156689             0.024156             0.021014 
Rotational constants in MHz :          4697.421054           724.174845           629.990792 

Dipole components along the rotational axes: 
x,y,z [a.u.] :     0.315569    -0.682940    -0.000061 
x,y,z [Debye]:     0.802113    -1.735895    -0.000154 

 

Dipole moment calculation done in   0.2 sec 

Maximum memory used throughout the entire PROP-calculation: 53.5 MB

--------------------------------
SUGGESTED CITATIONS FOR THIS RUN
--------------------------------

Below you find a list of papers that are relevant to this ORCA run
We neither can nor want to force you to cite these papers, but we appreciate if you do
You receive ORCA, which is the product of decades of hard work by many enthusiastic individuals, for free
The only thing we kindly ask in return is that you cite our papers,
We deeply appreciate it, if you show your appreciation for ORCA by not just citing the generic ORCA reference.

Please note that relegating all ORCA citations to the supporting information does *not* help us.
SI sections are not indexed - citations you put there will not count into any citation statistics
But we need these citations in order to attract the funding resources that allow us to do what we are doing

Therefore, if you are a happy ORCA user, please consider citing a few of the papers listed below in the main body of your paper

In addition to the list printed below, the program has created the file cs_rporg_002_ox_opt_06.bibtex that contains the list in bibtex format
You can import this file easily into all common literature databanks and citation aid programs


List of essential papers. We consider these as the minimum necessary citations

  1. Neese,F.
     Software update: the ORCA program system, version 5.0
     WIRES Comput. Molec. Sci., 2022 12(1)e1606
     doi.org/10.1002/wcms.1606

List of papers to cite with high priority. The work reported in these papers was absolutely
necessary for this run to complete.
Our perspective: the developers of density functionals and basis sets usually get cited in chemistry papers
Good! But without the algorithms to do something with them, the functionals or basis sets would not do anything.
Hence, in our opinion, the algorithm design and method developments papers are equally worthy of getting cited

  1. Neese,F.
     An improvement of the resolution of the identity approximation for the formation of the Coulomb matrix
     J. Comp. Chem., 2003 24(14)1740-1747
     doi.org/10.1002/jcc.10318
  2. Garcia-Rates,M.; Neese,F.
     Effect of the Solute Cavity on the Solvation Energy and its Derivatives within the Framework of the Gaussian Charge Scheme
     J. Comput. Chem., 2020 41 922-939
     doi.org/10.1002/jcc.26139
  3. Neese,F.
     The SHARK Integral Generation and Digestion System
     J. Comp. Chem., 2022  1-16
     doi.org/10.1002/jcc.26942
  4. Lehtola,S.; Steigemann,C.; Oliveira,M.; Marques,M.
     Recent developments in Libxc - A comprehensive library of functionals for density functional theory
     Software X, 2018 7 
     doi.org/10.1016/j.softx.2017.11.002
  5. Grimme,S.; Antony,J.; Ehrlich,S.; Krieg,H.
     A consistent and accurate ab initio parametrization of density functional dispersion correction (DFT-D) for the 94 elements H-Pu
     J. Chem. Phys., 2010 132 154104-XXXX
     doi.org/10.1063/1.3382344
  6. Grimme,S.; Ehrlich,S.; Goerigk,L.
     Effect of the damping function in dispersion corrected density functional theory
     J. Comput. Chem., 2011 32(7)1456-1465
     doi.org/10.1002/jcc.21759

List of suggested additional citations. These are papers that are important in the 'surrounding' of 
of this run, or papers that preceded the highly important papers. If you like your results we are grateful for a citation.

  1. Neese,F.
     The ORCA program system
     WIRES Comput. Molec. Sci., 2012 2(1)73-78
     doi.org/10.1002/wcms.81
  2. Neese,F.
     Software update: the ORCA program system, version 4.0
     WIRES Comput. Molec. Sci., 2018 8(1)1-6
     doi.org/10.1002/wcms.1327
  3. Neese,F.; Wennmohs,F.; Becker,U.; Riplinger,C.
     The ORCA quantum chemistry program package
     J. Chem. Phys., 2020 152 Art. No. L224108
     doi.org/10.1063/5.0004608

List of optional additional citations

  1. Neese,F.
     Approximate second-order SCF convergence for spin unrestricted wavefunctions
     Chem. Phys. Lett., 2000 325(1-3)93-98
     doi.org/10.1016/s0009-2614(00)00662-x

Timings for individual modules:

Sum of individual times          ...      872.058 sec (=  14.534 min)
Startup calculation              ...       43.447 sec (=   0.724 min)   5.0 %
SCF iterations                   ...      691.255 sec (=  11.521 min)  79.3 %
Property calculations            ...        2.690 sec (=   0.045 min)   0.3 %
SCF Gradient evaluation          ...      134.266 sec (=   2.238 min)  15.4 %
Geometry relaxation              ...        0.400 sec (=   0.007 min)   0.0 %
                             ****ORCA TERMINATED NORMALLY****
TOTAL RUN TIME: 0 days 0 hours 14 minutes 53 seconds 249 msec
