 vasp.6.4.2 20Jul23 (build Sep 06 2024 14:39:43) complex                        
  
 executed on             LinuxIFC date 2025.09.11  16:44:40
 running   90 mpi-ranks, on    6 nodes
 distrk:  each k-point on   90 cores,    1 groups
 distr:  one band on NCORE=  15 cores,    6 groups


--------------------------------------------------------------------------------------------------------


 INCAR:
   SYSTEM = 103_red
   ISTART = 1
   ICHARG = 2
   INIWAV = 1
   NELM = 100
   ALGO = fast   	
   ISPIN = 2
   EDIFF = 1E-05
   ISMEAR = 0
   SIGMA = 0.05
   PREC = accurate
   ENCUT = 500
   LREAL = auto  	
   LWAVE = .TRUE.
   LCHARG = .FALSE.
   LAECHG = .FALSE.
   LVHAR = .FALSE.
   LVTOT = .FALSE.
   EDIFFG = -0.02
   IBRION = 2
   NSW = 500
   ISIF = 2
   POTIM = 0.5
   IVDW = 11
   LPLANE = .TRUE.
   NCORE = 15
   LSCALU = .FALSE.
   NSIM = 4
   LSOL = .TRUE.
   EB_K = 35.6880
   LAMBDA_D_K = 3.04
   NELECT = 51

 POTCAR:    PAW_PBE C 08Apr2002                   
 POTCAR:    PAW_PBE H 15Jun2001                   
 -----------------------------------------------------------------------------
|                                                                             |
|           W    W    AA    RRRRR   N    N  II  N    N   GGGG   !!!           |
|           W    W   A  A   R    R  NN   N  II  NN   N  G    G  !!!           |
|           W    W  A    A  R    R  N N  N  II  N N  N  G       !!!           |
|           W WW W  AAAAAA  RRRRR   N  N N  II  N  N N  G  GGG   !            |
|           WW  WW  A    A  R   R   N   NN  II  N   NN  G    G                |
|           W    W  A    A  R    R  N    N  II  N    N   GGGG   !!!           |
|                                                                             |
|     You use a magnetic or noncollinear calculation, but did not specify     |
|     the initial magnetic moment with the MAGMOM tag. Note that a            |
|     default of 1 will be used for all atoms. This ferromagnetic setup       |
|     may break the symmetry of the crystal, in particular it may rule        |
|     out finding an antiferromagnetic solution. Thence, we recommend         |
|     setting the initial magnetic moment manually or verifying carefully     |
|     that this magnetic setup is desired.                                    |
|                                                                             |
 -----------------------------------------------------------------------------

 POTCAR:    PAW_PBE C 08Apr2002                   
   SHA256 =  253f7b50bb8d59471dbedb8285d89021f4a42ed1a2c5d38a03a736e69125dd95 C/POTCAR              
   COPYR  = (c) Copyright 08Apr2002 Georg Kresse                                                    
   COPYR  = This file is part of the software VASP. Any use, copying, and all other rights are regul
   COPYR  = If you do not have a valid VASP license, you may not use, copy or distribute this file. 
   VRHFIN =C: s2p2                                                                                  
   LEXCH  = PE                                                                                      
   EATOM  =   147.1560 eV,   10.8157 Ry                                                             
                                                                                                    
   TITEL  = PAW_PBE C 08Apr2002                                                                     
   LULTRA =        F    use ultrasoft PP ?                                                          
   IUNSCR =        1    unscreen: 0-lin 1-nonlin 2-no                                               
   RPACOR =    1.200    partial core radius                                                         
   POMASS =   12.011; ZVAL   =    4.000    mass and valenz                                          
   RCORE  =    1.500    outmost cutoff radius                                                       
   RWIGS  =    1.630; RWIGS  =    0.863    wigner-seitz radius (au A)                               
   ENMAX  =  400.000; ENMIN  =  300.000 eV                                                          
   ICORE  =        2    local potential                                                             
   LCOR   =        T    correct aug charges                                                         
   LPAW   =        T    paw PP                                                                      
   EAUG   =  644.873                                                                                
   DEXC   =    0.000                                                                                
   RMAX   =    1.529    core radius for proj-oper                                                   
   RAUG   =    1.300    factor for augmentation sphere                                              
   RDEP   =    1.501    radius for radial grids                                                     
   RDEPT  =    1.300    core radius for aug-charge                                                  
                                                                                                    
   Atomic configuration                                                                             
    4 entries                                                                                       
     n  l   j            E        occ.                                                              
     1  0  0.50      -273.3789   2.0000                                                             
     2  0  0.50       -13.7508   2.0000                                                             
     2  1  0.50        -5.2854   2.0000                                                             
     3  2  1.50        -5.4423   0.0000                                                             
   Description                                                                                      
     l       E           TYP  RCUT    TYP  RCUT                                                     
     0    -13.7508458     23  1.200                                                                 
     0     -8.2022199     23  1.200                                                                 
     1     -5.2854383     23  1.500                                                                 
     1     34.0145650     23  1.500                                                                 
     2     -5.4423304      7  1.500                                                                 
  local pseudopotential read in
  partial core-charges read in
  partial kinetic energy density read in
  atomic valenz-charges read in
  non local Contribution for L=           0  read in
    real space projection operators read in
  non local Contribution for L=           0  read in
    real space projection operators read in
  non local Contribution for L=           1  read in
    real space projection operators read in
  non local Contribution for L=           1  read in
    real space projection operators read in
    PAW grid and wavefunctions read in
 
   number of l-projection  operators is LMAX  =           4
   number of lm-projection operators is LMMAX =           8
 
 POTCAR:    PAW_PBE H 15Jun2001                   
   SHA256 =  030f79b5d3ab3cf0e668861823c8fb652ff669f3e15e46930bd03bfd63a607b6 H/POTCAR              
   COPYR  = (c) Copyright 15Jun2001 Georg Kresse                                                    
   COPYR  = This file is part of the software VASP. Any use, copying, and all other rights are regul
   COPYR  = If you do not have a valid VASP license, you may not use, copy or distribute this file. 
   VRHFIN =H: ultrasoft test                                                                        
   LEXCH  = PE                                                                                      
   EATOM  =    12.4884 eV,    0.9179 Ry                                                             
                                                                                                    
   TITEL  = PAW_PBE H 15Jun2001                                                                     
   LULTRA =        F    use ultrasoft PP ?                                                          
   IUNSCR =        0    unscreen: 0-lin 1-nonlin 2-no                                               
   RPACOR =    0.000    partial core radius                                                         
   POMASS =    1.000; ZVAL   =    1.000    mass and valenz                                          
   RCORE  =    1.100    outmost cutoff radius                                                       
   RWIGS  =    0.700; RWIGS  =    0.370    wigner-seitz radius (au A)                               
   ENMAX  =  250.000; ENMIN  =  200.000 eV                                                          
   RCLOC  =    0.701    cutoff for local pot                                                        
   LCOR   =        T    correct aug charges                                                         
   LPAW   =        T    paw PP                                                                      
   EAUG   =  400.000                                                                                
   RMAX   =    1.123    core radius for proj-oper                                                   
   RAUG   =    1.200    factor for augmentation sphere                                              
   RDEP   =    1.112    radius for radial grids                                                     
   RDEPT  =    0.926    core radius for aug-charge                                                  
                                                                                                    
   Atomic configuration                                                                             
    2 entries                                                                                       
     n  l   j            E        occ.                                                              
     1  0  0.50        -6.4927   1.0000                                                             
     2  1  0.50        -3.4015   0.0000                                                             
   Description                                                                                      
     l       E           TYP  RCUT    TYP  RCUT                                                     
     0     -6.4927494     23  1.100                                                                 
     0      6.8029130     23  1.100                                                                 
     1     -4.0817478     23  1.100                                                                 
  local pseudopotential read in
  atomic valenz-charges read in
  non local Contribution for L=           0  read in
    real space projection operators read in
  non local Contribution for L=           0  read in
    real space projection operators read in
  non local Contribution for L=           1  read in
    real space projection operators read in
    PAW grid and wavefunctions read in
 
   number of l-projection  operators is LMAX  =           3
   number of lm-projection operators is LMMAX =           5
 
 Optimization of the real space projectors (new method)

 maximal supplied QI-value         = 25.13
 optimisation between [QCUT,QGAM] = [ 11.31, 22.87] = [ 35.82,146.48] Ry 
 Optimized for a Real-space Cutoff    1.03 Angstroem

   l    n(q)    QCUT    max X(q) W(low)/X(q) W(high)/X(q)  e(spline) 
   0      7    11.310   115.676    0.20E-03    0.90E-03    0.20E-06
   0      7    11.310    87.132    0.20E-03    0.89E-03    0.19E-06
   1      6    11.310     4.429    0.16E-03    0.28E-03    0.12E-06
   1      6    11.310     2.733    0.12E-03    0.21E-03    0.99E-07
 Optimization of the real space projectors (new method)

 maximal supplied QI-value         = 34.20
 optimisation between [QCUT,QGAM] = [ 11.29, 22.57] = [ 35.68,142.71] Ry 
 Optimized for a Real-space Cutoff    1.20 Angstroem

   l    n(q)    QCUT    max X(q) W(low)/X(q) W(high)/X(q)  e(spline) 
   0      8    11.287    19.460    0.22E-03    0.50E-03    0.19E-06
   0      8    11.287    12.209    0.21E-03    0.48E-03    0.18E-06
   1      8    11.287     4.655    0.21E-03    0.11E-04    0.26E-06
  PAW_PBE C 08Apr2002                   :
 energy of atom  1       EATOM= -147.1560
 kinetic energy error for atom=    0.0076 (will be added to EATOM!!)
  PAW_PBE H 15Jun2001                   :
 energy of atom  2       EATOM=  -12.4884
 kinetic energy error for atom=    0.0020 (will be added to EATOM!!)
 
 
 POSCAR: C H
  positions in direct lattice
  velocities in cartesian coordinates
 exchange correlation table for  LEXCH =        8
   RHO(1)=    0.500       N(1)  =     2000
   RHO(2)=  100.500       N(2)  =     4000
 


--------------------------------------------------------------------------------------------------------


 ion  position               nearest neighbor table
   1  0.527  0.468  0.500-  22 1.09   6 1.37   2 1.44
   2  0.536  0.503  0.500-   3 1.42   9 1.43   1 1.44
   3  0.510  0.527  0.500-  18 1.09   4 1.38   2 1.42
   4  0.477  0.518  0.500-   3 1.38   5 1.44   8 1.50
   5  0.468  0.483  0.500-   6 1.42   4 1.44   7 1.48
   6  0.494  0.459  0.500-  11 1.09   1 1.37   5 1.42
   7  0.433  0.473  0.500-  12 1.09  13 1.10  14 1.10   5 1.48
   8  0.450  0.544  0.500-  17 1.10  16 1.10  15 1.10   4 1.50
   9  0.570  0.514  0.500-  21 1.09  10 1.37   2 1.43
  10  0.598  0.494  0.500-  20 1.09  19 1.09   9 1.37
  11  0.487  0.433  0.500-   6 1.09
  12  0.430  0.446  0.500-   7 1.09
  13  0.419  0.483  0.478-   7 1.10
  14  0.419  0.483  0.522-   7 1.10
  15  0.434  0.542  0.522-   8 1.10
  16  0.434  0.542  0.478-   8 1.10
  17  0.461  0.570  0.500-   8 1.10
  18  0.517  0.554  0.500-   3 1.09
  19  0.596  0.467  0.500-  10 1.09
  20  0.622  0.506  0.500-  10 1.09
  21  0.573  0.541  0.500-   9 1.09
  22  0.546  0.449  0.500-   1 1.09
 
  LATTYP: Found a simple cubic cell.
 ALAT       =    40.0000000000
  
  Lattice vectors:
  
 A1 = (  40.0000000000,   0.0000000000,   0.0000000000)
 A2 = (   0.0000000000,  40.0000000000,   0.0000000000)
 A3 = (   0.0000000000,   0.0000000000,  40.0000000000)


Analysis of symmetry for initial positions (statically):
=====================================================================
 Subroutine PRICEL returns:
 Original cell was already a primitive cell.
 

 Routine SETGRP: Setting up the symmetry group for a 
 simple cubic supercell.


 Subroutine GETGRP returns: Found  1 space group operations
 (whereof  1 operations were pure point group operations)
 out of a pool of 48 trial point group operations.


The static configuration has the point symmetry C_1 .


Analysis of symmetry for dynamics (positions and initial velocities):
=====================================================================
 Subroutine PRICEL returns:
 Original cell was already a primitive cell.
 

 Routine SETGRP: Setting up the symmetry group for a 
 simple cubic supercell.


 Subroutine GETGRP returns: Found  1 space group operations
 (whereof  1 operations were pure point group operations)
 out of a pool of 48 trial point group operations.


The dynamic configuration has the point symmetry C_1 .


Analysis of constrained symmetry for selective dynamics:
=====================================================================
 Subroutine PRICEL returns:
 Original cell was already a primitive cell.
 

 Routine SETGRP: Setting up the symmetry group for a 
 simple cubic supercell.


 Subroutine GETGRP returns: Found  1 space group operations
 (whereof  1 operations were pure point group operations)
 out of a pool of 48 trial point group operations.


The constrained configuration has the point symmetry C_1 .


Analysis of structural, dynamic, and magnetic symmetry:
=====================================================================
 Subroutine PRICEL returns:
 Original cell was already a primitive cell.
 

 Routine SETGRP: Setting up the symmetry group for a 
 simple cubic supercell.


 Subroutine GETGRP returns: Found  1 space group operations
 (whereof  1 operations were pure point group operations)
 out of a pool of 48 trial point group operations.


The overall configuration has the point symmetry C_1 .


 Subroutine INISYM returns: Found  1 space group operations
 (whereof  1 operations are pure point group operations),
 and found     1 'primitive' translations


----------------------------------------------------------------------------------------

                                     Primitive cell                                     

  volume of cell :   64000.0000

  direct lattice vectors                    reciprocal lattice vectors
    40.000000000  0.000000000  0.000000000     0.025000000  0.000000000  0.000000000
     0.000000000 40.000000000  0.000000000     0.000000000  0.025000000  0.000000000
     0.000000000  0.000000000 40.000000000     0.000000000  0.000000000  0.025000000

  length of vectors
    40.000000000 40.000000000 40.000000000     0.025000000  0.025000000  0.025000000

  position of ions in fractional coordinates (direct lattice)
     0.527050389  0.468165198  0.500005867
     0.535960879  0.502969000  0.500002523
     0.509982099  0.527244788  0.500001461
     0.476571372  0.518429288  0.499999601
     0.468072923  0.483370907  0.500001074
     0.493942030  0.459043192  0.500003927
     0.432554315  0.472745799  0.500000102
     0.449776649  0.544492973  0.499997982
     0.569823163  0.514401081  0.500003350
     0.597652790  0.494378886  0.499993942
     0.487067636  0.432658360  0.500008192
     0.429841316  0.445511144  0.500001738
     0.419403285  0.483179443  0.478115573
     0.419399169  0.483182805  0.521880583
     0.433526194  0.541880437  0.522049056
     0.433525446  0.541875869  0.477948327
     0.460523082  0.569684003  0.499994709
     0.516925964  0.553620742  0.500001109
     0.596201262  0.467186446  0.499984072
     0.622498541  0.505522566  0.499991801
     0.573354158  0.541484071  0.500008565
     0.546346340  0.448974003  0.500006446

  ion indices of the primitive-cell ions
   primitive index   ion index
                 1           1
                 2           2
                 3           3
                 4           4
                 5           5
                 6           6
                 7           7
                 8           8
                 9           9
                10          10
                11          11
                12          12
                13          13
                14          14
                15          15
                16          16
                17          17
                18          18
                19          19
                20          20
                21          21
                22          22

----------------------------------------------------------------------------------------

 
 
 KPOINTS: K-Point Grid                            

Automatic generation of k-mesh.
 Grid dimensions read from file:
 generate k-points for:    1    1    1

 Generating k-lattice:

  Cartesian coordinates                     Fractional coordinates (reciprocal lattice)
     0.025000000  0.000000000  0.000000000     1.000000000  0.000000000  0.000000000
     0.000000000  0.025000000  0.000000000     0.000000000  1.000000000  0.000000000
     0.000000000  0.000000000  0.025000000     0.000000000  0.000000000  1.000000000

  Length of vectors
     0.025000000  0.025000000  0.025000000

  Shift w.r.t. Gamma in fractional coordinates (k-lattice)
     0.000000000  0.000000000  0.000000000

 
 Subroutine IBZKPT returns following result:
 ===========================================
 
 Found      1 irreducible k-points:
 
 Following reciprocal coordinates:
            Coordinates               Weight
  0.000000  0.000000  0.000000      1.000000
 
 Following cartesian coordinates:
            Coordinates               Weight
  0.000000  0.000000  0.000000      1.000000
 


--------------------------------------------------------------------------------------------------------




 Dimension of arrays:
   k-points           NKPTS =      1   k-points in BZ     NKDIM =      1   number of bands    NBANDS=     48
   number of dos      NEDOS =    301   number of ions     NIONS =     22
   non local maximal  LDIM  =      4   non local SUM 2l+1 LMDIM =      8
   total plane-waves  NPLWV = ******
   max r-space proj   IRMAX =   2915   max aug-charges    IRDMAX=   4885
   dimension x,y,z NGX =   294 NGY =  294 NGZ =  294
   dimension x,y,z NGXF=   588 NGYF=  588 NGZF=  588
   support grid    NGXF=   588 NGYF=  588 NGZF=  588
   ions per type =              10  12
   NGX,Y,Z   is equivalent  to a cutoff of  12.22, 12.22, 12.22 a.u.
   NGXF,Y,Z  is equivalent  to a cutoff of  24.44, 24.44, 24.44 a.u.

 SYSTEM =  103_red                                 
 POSCAR =  C H                                     

 Startparameter for this run:
   NWRITE =      2    write-flag & timer
   PREC   = accura    normal or accurate (medium, high low for compatibility)
   ISTART =      1    job   : 0-new  1-cont  2-samecut
   ICHARG =      2    charge: 1-file 2-atom 10-const
   ISPIN  =      2    spin polarized calculation?
   LNONCOLLINEAR =      F non collinear calculations
   LSORBIT =      F    spin-orbit coupling
   INIWAV =      1    electr: 0-lowe 1-rand  2-diag
   LASPH  =      F    aspherical Exc in radial PAW
 Electronic Relaxation 1
   ENCUT  =  500.0 eV  36.75 Ry    6.06 a.u.  72.93 72.93 72.93*2*pi/ulx,y,z
   ENINI  =  500.0     initial cutoff
   ENAUG  =  644.9 eV  augmentation charge cutoff
   NELM   =    100;   NELMIN=  2; NELMDL=  0     # of ELM steps 
   EDIFF  = 0.1E-04   stopping-criterion for ELM
   LREAL  =      T    real-space projection
   NLSPLINE    = F    spline interpolate recip. space projectors
   LCOMPAT=      F    compatible to vasp.4.4
   GGA_COMPAT  = T    GGA compatible to vasp.4.4-vasp.4.6
   LMAXPAW     = -100 max onsite density
   LMAXMIX     =    2 max onsite mixed and CHGCAR
   VOSKOWN=      0    Vosko Wilk Nusair interpolation
   ROPT   =   -0.00025  -0.00025
 Ionic relaxation
   EDIFFG = -.2E-01   stopping-criterion for IOM
   NSW    =    500    number of steps for IOM
   NBLOCK =      1;   KBLOCK =    500    inner block; outer block 
   IBRION =      2    ionic relax: 0-MD 1-quasi-New 2-CG
   NFREE  =      1    steps in history (QN), initial steepest desc. (CG)
   ISIF   =      2    stress and relaxation
   IWAVPR =     11    prediction:  0-non 1-charg 2-wave 3-comb
   ISYM   =      2    0-nonsym 1-usesym 2-fastsym
   LCORR  =      T    Harris-Foulkes like correction to forces

   POTIM  = 0.5000    time-step for ionic-motion
   TEIN   =    0.0    initial temperature
   TEBEG  =    0.0;   TEEND  =   0.0 temperature during run
   SMASS  =  -3.00    Nose mass-parameter (am)
   estimated Nose-frequenzy (Omega)   =  0.10E-29 period in steps = 0.13E+47 mass=  -0.366E-25a.u.
   SCALEE = 1.0000    scale energy and forces
   NPACO  =    256;   APACO  = 10.0  distance and # of slots for P.C.
   PSTRESS=    0.0 pullay stress

  Mass of Ions in am
   POMASS =  12.01  1.00
  Ionic Valenz
   ZVAL   =   4.00  1.00
  Atomic Wigner-Seitz radii
   RWIGS  =  -1.00 -1.00
  virtual crystal weights 
   VCA    =   1.00  1.00
   NELECT =      51.0000    total number of electrons
   NUPDOWN=      -1.0000    fix difference up-down

 DOS related values:
   EMIN   =  10.00;   EMAX   =-10.00  energy-range for DOS
   EFERMI =   0.00;   METHOD = LEGACY      
   ISMEAR =     0;   SIGMA  =   0.05  broadening in eV -4-tet -1-fermi 0-gaus

 Electronic relaxation 2 (details)
   IALGO  =     68    algorithm
   LDIAG  =      T    sub-space diagonalisation (order eigenvalues)
   LSUBROT=      F    optimize rotation matrix (better conditioning)
   TURBO    =      0    0=normal 1=particle mesh
   IRESTART =      0    0=no restart 2=restart with 2 vectors
   NREBOOT  =      0    no. of reboots
   NMIN     =      0    reboot dimension
   EREF     =   0.00    reference energy to select bands
   IMIX   =      4    mixing-type and parameters
     AMIX     =   0.40;   BMIX     =  1.00
     AMIX_MAG =   1.60;   BMIX_MAG =  1.00
     AMIN     =   0.10
     WC   =   100.;   INIMIX=   1;  MIXPRE=   1;  MAXMIX= -45

 Intra band minimization:
   WEIMIN = 0.0010     energy-eigenvalue tresh-hold
   EBREAK =  0.52E-07  absolut break condition
   DEPER  =   0.30     relativ break condition  

   TIME   =   0.40     timestep for ELM

  volume/ion in A,a.u.               =    2909.09     19631.51
  Fermi-wavevector in a.u.,A,eV,Ry     =   0.151777  0.286816  0.313426  0.023036
  Thomas-Fermi vector in A             =   0.830723
 
 Write flags
   LWAVE        =      T    write WAVECAR
   LDOWNSAMPLE  =      F    k-point downsampling of WAVECAR
   LCHARG       =      F    write CHGCAR
   LVTOT        =      F    write LOCPOT, total local potential
   LVHAR        =      F    write LOCPOT, Hartree potential only
   LELF         =      F    write electronic localiz. function (ELF)
   LORBIT       =      0    0 simple, 1 ext, 2 COOP (PROOUT), +10 PAW based schemes


 Dipole corrections
   LMONO  =      F    monopole corrections only (constant potential shift)
   LDIPOL =      F    correct potential (dipole corrections)
   IDIPOL =      0    1-x, 2-y, 3-z, 4-all directions 
   EPSILON=  1.0000000 bulk dielectric constant

 Exchange correlation treatment:
   GGA     =    --    GGA type
   LEXCH   =     8    internal setting for exchange type
   LIBXC   =     F    Libxc                    
   VOSKOWN =     0    Vosko Wilk Nusair interpolation
   LHFCALC =     F    Hartree Fock is set to
   LHFONE  =     F    Hartree Fock one center treatment
   AEXX    =    0.0000 exact exchange contribution

 Linear response parameters
   LEPSILON=     F    determine dielectric tensor
   LRPA    =     F    only Hartree local field effects (RPA)
   LNABLA  =     F    use nabla operator in PAW spheres
   LVEL    =     F    velocity operator in full k-point grid
   CSHIFT  =0.1000    complex shift for real part using Kramers Kronig
   OMEGAMAX=  -1.0    maximum frequency
   DEG_THRESHOLD= 0.2000000E-02 threshold for treating states as degnerate
   RTIME   =   -0.100 relaxation time in fs
  (WPLASMAI=    0.000 imaginary part of plasma frequency in eV, 0.658/RTIME)
   DFIELD  = 0.0000000 0.0000000 0.0000000 field for delta impulse in time
 
  Optional k-point grid parameters
   LKPOINTS_OPT  =     F    use optional k-point grid
   KPOINTS_OPT_MODE=     1    mode for optional k-point grid
 
 Orbital magnetization related:
   ORBITALMAG=     F  switch on orbital magnetization
   LCHIMAG   =     F  perturbation theory with respect to B field
   DQ        =  0.001000  dq finite difference perturbation B field
   LLRAUG    =     F  two centre corrections for induced B field
   LBONE     =     F  B-component reconstruction in AE one-centre
   LVGVCALC  =     T  calculate vGv susceptibility
   LVGVAPPL  =     F  apply vGv susceptibility instead of pGv for G=0

 Random number generation:
   RANDOM_GENERATOR = DEFAULT
   PCG_SEED         = not used
 Solvation model:
   LSOL    =     T         switch on solvation model
   EB_K    = 35.688000     relative permittivity of the bulk solvent
   SIGMA_K =  0.600000     width of the dielectric cavity
   NC_K    =  0.002500     cutoff charge density
   TAU     =  0.000525     cavity surface tension
   LAMBDA_D_K    =  3.040000     Debye length in Angstroms
   LRHOB     =     F     write boundcharge  density
   LRHOION     =     F     write ioniccharge density



--------------------------------------------------------------------------------------------------------


 conjugate gradient relaxation of ions
   using selective dynamics as specified on POSCAR
 charge density and potential will be updated during run
 spin polarized calculation
 RMM-DIIS sequential band-by-band and
  variant of blocked Davidson during initial phase
 perform sub-space diagonalisation
    before iterative eigenvector-optimisation
 modified Broyden-mixing scheme, WC =      100.0
 initial mixing is a Kerker type mixing with AMIX =  0.4000 and BMIX =      1.0000
 Hartree-type preconditioning will be used
 using additional bands           22
 real space projection scheme for non local part
 use partial core corrections
 calculate Harris-corrections to forces 
   (improved forces if not selfconsistent)
 use gradient corrections 
 use of overlap-Matrix (Vanderbilt PP)
 Gauss-broadening in eV      SIGMA  =   0.05


--------------------------------------------------------------------------------------------------------


  energy-cutoff  :      500.00
  volume of cell :    64000.00
      direct lattice vectors                 reciprocal lattice vectors
    40.000000000  0.000000000  0.000000000     0.025000000  0.000000000  0.000000000
     0.000000000 40.000000000  0.000000000     0.000000000  0.025000000  0.000000000
     0.000000000  0.000000000 40.000000000     0.000000000  0.000000000  0.025000000

  length of vectors
    40.000000000 40.000000000 40.000000000     0.025000000  0.025000000  0.025000000


 
 old parameters found on file WAVECAR:
  energy-cutoff  :      500.00
  volume of cell :    64000.00
      direct lattice vectors                 reciprocal lattice vectors
    40.000000000  0.000000000  0.000000000     0.025000000  0.000000000  0.000000000
     0.000000000 40.000000000  0.000000000     0.000000000  0.025000000  0.000000000
     0.000000000  0.000000000 40.000000000     0.000000000  0.000000000  0.025000000

  length of vectors

 
 k-points in units of 2pi/SCALE and weight: K-Point Grid                            
   0.00000000  0.00000000  0.00000000       1.000
 
 k-points in reciprocal lattice and weights: K-Point Grid                            
   0.00000000  0.00000000  0.00000000       1.000
 
 position of ions in fractional coordinates (direct lattice) 
   0.52705039  0.46816520  0.50000587
   0.53596088  0.50296900  0.50000252
   0.50998210  0.52724479  0.50000146
   0.47657137  0.51842929  0.49999960
   0.46807292  0.48337091  0.50000107
   0.49394203  0.45904319  0.50000393
   0.43255432  0.47274580  0.50000010
   0.44977665  0.54449297  0.49999798
   0.56982316  0.51440108  0.50000335
   0.59765279  0.49437889  0.49999394
   0.48706764  0.43265836  0.50000819
   0.42984132  0.44551114  0.50000174
   0.41940329  0.48317944  0.47811557
   0.41939917  0.48318280  0.52188058
   0.43352619  0.54188044  0.52204906
   0.43352545  0.54187587  0.47794833
   0.46052308  0.56968400  0.49999471
   0.51692596  0.55362074  0.50000111
   0.59620126  0.46718645  0.49998407
   0.62249854  0.50552257  0.49999180
   0.57335416  0.54148407  0.50000856
   0.54634634  0.44897400  0.50000645
 
 position of ions in cartesian coordinates  (Angst):
  21.08201554 18.72660793 20.00023470
  21.43843516 20.11876000 20.00010093
  20.39928394 21.08979152 20.00005842
  19.06285490 20.73717151 19.99998406
  18.72291692 19.33483627 20.00004295
  19.75768120 18.36172767 20.00015706
  17.30217261 18.90983194 20.00000407
  17.99106594 21.77971892 19.99991930
  22.79292653 20.57604325 20.00013399
  23.90611161 19.77515545 19.99975769
  19.48270542 17.30633441 20.00032769
  17.19365262 17.82044574 20.00006950
  16.77613141 19.32717771 19.12462292
  16.77596677 19.32731218 20.87522331
  17.34104775 21.67521749 20.88196222
  17.34101784 21.67503475 19.11793309
  18.42092329 22.78736010 19.99978836
  20.67703854 22.14482968 20.00004438
  23.84805047 18.68745786 19.99936288
  24.89994164 20.22090262 19.99967203
  22.93416631 21.65936285 20.00034259
  21.85385358 17.95896012 20.00025784
 


--------------------------------------------------------------------------------------------------------


 k-point   1 :   0.0000 0.0000 0.0000  plane waves: 1624525

 maximum and minimum number of plane-waves per node :    108307   108296

 maximum number of plane-waves:   1624525
 maximum index in each direction: 
   IXMAX=   72   IYMAX=   72   IZMAX=   72
   IXMIN=  -72   IYMIN=  -72   IZMIN=  -72


 real space projection operators:
  total allocation   :       2424.12 KBytes
  max/ min on nodes  :        180.18        145.65


 parallel 3D FFT for wavefunctions:
    minimum data exchange during FFTs selected (reduces bandwidth)
 parallel 3D FFT for charge:
    minimum data exchange during FFTs selected (reduces bandwidth)


 total amount of memory used by VASP MPI-rank0   523068. kBytes
=======================================================================

   base      :      30000. kBytes
   nonlr-proj:       1267. kBytes
   fftplans  :     131430. kBytes
   grid      :     332629. kBytes
   one-center:         12. kBytes
   wavefun   :      27730. kBytes
 
     INWAV:  cpu time     12.7616: real time     12.8797
 Broyden mixing: mesh for mixing (old mesh)
   NGX =145   NGY =145   NGZ =145
  (NGX  =588   NGY  =588   NGZ  =588)
  gives a total of ****** points

 initial charge density was supplied:
 charge density of overlapping atoms calculated
 number of electron      52.0000000 magnetization      22.0000000
 keeping initial charge density in first step


--------------------------------------------------------------------------------------------------------


 Maximum index for non-local projection operator          234
 Maximum index for augmentation-charges          248 (set IRDMAX)


--------------------------------------------------------------------------------------------------------


 First call to EWALD:  gamma=   0.044
 Maximum number of real-space cells 3x 3x 3
 Maximum number of reciprocal cells 3x 3x 3

    FEWALD:  cpu time      0.0134: real time      0.0134


--------------------------------------- Ionic step        1  -------------------------------------------




--------------------------------------- Iteration      1(   1)  ---------------------------------------


    POTLOK:  cpu time    476.6558: real time    476.6651
    SETDIJ:  cpu time      0.0322: real time      0.0322
     EDDAV:  cpu time     44.1404: real time     44.1409
       DOS:  cpu time      0.0190: real time      0.0190
    CHARGE:  cpu time      2.8023: real time      2.8023
    MIXING:  cpu time      0.0877: real time      0.0878
    --------------------------------------------
      LOOP:  cpu time    523.7375: real time    523.7475

 eigenvalue-minimisations  :   264
 total energy-change (2. order) :-0.1142140E+03  (-0.1027812E+02)
 number of electron      51.0000001 magnetization      21.1909166
 augmentation part        1.2949442 magnetization      20.2818060

 Broyden mixing:
  rms(total) = 0.29515E+01    rms(broyden)= 0.29512E+01
  rms(prec ) = 0.29800E+01
  weight for this iteration     100.00

 Free energy of the ion-electron system (eV)
  ---------------------------------------------------
  alpha Z        PSCENC =         0.19061315
  Ewald energy   TEWEN  =      5365.31875941
  -Hartree energ DENC   =     -6392.61156785
  -exchange      EXHF   =         0.00000000
  -V(xc)+E(xc)   XCENC  =       163.53672672
  PAW double counting   =      1105.46993731    -1111.17591603
  entropy T*S    EENTRO =        -0.00000000
  eigenvalues    EBANDS =      -857.26708002
  atomic energy  EATOM  =      1621.32137526
  Solvation  Ediel_sol  =        -8.99686222
  ---------------------------------------------------
  free energy    TOTEN  =      -114.21401428 eV

  energy without entropy =     -114.21401428  energy(sigma->0) =     -114.21401428


--------------------------------------------------------------------------------------------------------




--------------------------------------- Iteration      1(   2)  ---------------------------------------


    POTLOK:  cpu time    502.4258: real time    502.4363
    SETDIJ:  cpu time      0.0357: real time      0.0357
    EDDIAG:  cpu time      5.7044: real time      5.7044
  RMM-DIIS:  cpu time      8.1428: real time      8.1428
    ORTHCH:  cpu time      0.7913: real time      0.7913
       DOS:  cpu time      0.1873: real time      0.1873
    CHARGE:  cpu time      2.7655: real time      2.7656
    MIXING:  cpu time      0.1041: real time      0.1041
    --------------------------------------------
      LOOP:  cpu time    520.1569: real time    520.1674

 eigenvalue-minimisations  :   192
 total energy-change (2. order) : 0.5674996E+02  (-0.1097041E+02)
 number of electron      51.0000000 magnetization      20.3096818
 augmentation part        1.2868381 magnetization      19.3215258

 Broyden mixing:
  rms(total) = 0.14433E+01    rms(broyden)= 0.14432E+01
  rms(prec ) = 0.14662E+01
  weight for this iteration     100.00

 eigenvalues of (default mixing * dielectric matrix)
  average eigenvalue GAMMA=   0.9537
  0.9537

 Free energy of the ion-electron system (eV)
  ---------------------------------------------------
  alpha Z        PSCENC =         0.19061315
  Ewald energy   TEWEN  =      5365.31875941
  -Hartree energ DENC   =     -6473.52583125
  -exchange      EXHF   =         0.00000000
  -V(xc)+E(xc)   XCENC  =       218.22795067
  PAW double counting   =      2084.85922852    -2091.59271202
  entropy T*S    EENTRO =        -0.00000000
  eigenvalues    EBANDS =      -751.09366701
  atomic energy  EATOM  =      1621.32137526
  Solvation  Ediel_sol  =       -31.16977169
  ---------------------------------------------------
  free energy    TOTEN  =       -57.46405495 eV

  energy without entropy =      -57.46405495  energy(sigma->0) =      -57.46405495


--------------------------------------------------------------------------------------------------------




--------------------------------------- Iteration      1(   3)  ---------------------------------------


    POTLOK:  cpu time    480.4222: real time    480.4270
    SETDIJ:  cpu time      0.0364: real time      0.0364
    EDDIAG:  cpu time      4.8265: real time      4.8265
  RMM-DIIS:  cpu time      8.1795: real time      8.1795
    ORTHCH:  cpu time      1.3529: real time      1.3529
       DOS:  cpu time      0.1723: real time      0.1723
    CHARGE:  cpu time      2.6027: real time      2.6027
    MIXING:  cpu time      0.1054: real time      0.1054
    --------------------------------------------
      LOOP:  cpu time    497.6980: real time    497.7027

 eigenvalue-minimisations  :   192
 total energy-change (2. order) :-0.3737584E+02  (-0.4492782E+01)
 number of electron      50.9999999 magnetization      19.3000126
 augmentation part        1.2504350 magnetization      18.2808254

 Broyden mixing:
  rms(total) = 0.85912E+00    rms(broyden)= 0.85905E+00
  rms(prec ) = 0.86696E+00
  weight for this iteration     100.00

 eigenvalues of (default mixing * dielectric matrix)
  average eigenvalue GAMMA=   1.1165
  0.7840  1.4490

 Free energy of the ion-electron system (eV)
  ---------------------------------------------------
  alpha Z        PSCENC =         0.19061315
  Ewald energy   TEWEN  =      5365.31875941
  -Hartree energ DENC   =     -6535.34838649
  -exchange      EXHF   =         0.00000000
  -V(xc)+E(xc)   XCENC  =       191.54965653
  PAW double counting   =      2967.19901822    -2974.51938098
  entropy T*S    EENTRO =        -0.00000000
  eigenvalues    EBANDS =      -676.06323099
  atomic energy  EATOM  =      1621.32137526
  Solvation  Ediel_sol  =       -54.48831722
  ---------------------------------------------------
  free energy    TOTEN  =       -94.83989312 eV

  energy without entropy =      -94.83989312  energy(sigma->0) =      -94.83989312


--------------------------------------------------------------------------------------------------------




--------------------------------------- Iteration      1(   4)  ---------------------------------------


    POTLOK:  cpu time    497.9688: real time    497.9776
    SETDIJ:  cpu time      0.0333: real time      0.0333
    EDDIAG:  cpu time      5.1196: real time      5.1195
  RMM-DIIS:  cpu time      8.2812: real time      8.2811
    ORTHCH:  cpu time      1.6479: real time      1.6479
       DOS:  cpu time      0.3725: real time      0.3725
    CHARGE:  cpu time      4.1027: real time      4.1027
    MIXING:  cpu time      0.1199: real time      0.1199
    --------------------------------------------
      LOOP:  cpu time    517.6458: real time    517.6544

 eigenvalue-minimisations  :   192
 total energy-change (2. order) :-0.9650331E+01  (-0.1736380E+01)
 number of electron      50.9999999 magnetization      18.4242964
 augmentation part        1.2169691 magnetization      17.4100339

 Broyden mixing:
  rms(total) = 0.62389E+00    rms(broyden)= 0.62381E+00
  rms(prec ) = 0.62913E+00
  weight for this iteration     100.00

 eigenvalues of (default mixing * dielectric matrix)
  average eigenvalue GAMMA=   1.0817
  1.4952  1.0731  0.6767

 Free energy of the ion-electron system (eV)
  ---------------------------------------------------
  alpha Z        PSCENC =         0.19061315
  Ewald energy   TEWEN  =      5365.31875941
  -Hartree energ DENC   =     -6563.29581152
  -exchange      EXHF   =         0.00000000
  -V(xc)+E(xc)   XCENC  =       186.83843249
  PAW double counting   =      3687.99190644    -3695.48189548
  entropy T*S    EENTRO =        -0.00000000
  eigenvalues    EBANDS =      -630.35603512
  atomic energy  EATOM  =      1621.32137526
  Solvation  Ediel_sol  =       -77.01756891
  ---------------------------------------------------
  free energy    TOTEN  =      -104.49022429 eV

  energy without entropy =     -104.49022429  energy(sigma->0) =     -104.49022429


--------------------------------------------------------------------------------------------------------




--------------------------------------- Iteration      1(   5)  ---------------------------------------


    POTLOK:  cpu time    492.0026: real time    492.0097
    SETDIJ:  cpu time      0.0343: real time      0.0343
    EDDIAG:  cpu time      5.4146: real time      5.4146
  RMM-DIIS:  cpu time      8.2286: real time      8.2286
    ORTHCH:  cpu time      1.0640: real time      1.0640
       DOS:  cpu time      0.1869: real time      0.1869
    CHARGE:  cpu time      3.1694: real time      3.1694
    MIXING:  cpu time      0.1136: real time      0.1136
    --------------------------------------------
      LOOP:  cpu time    510.2139: real time    510.2210

 eigenvalue-minimisations  :   192
 total energy-change (2. order) :-0.6487008E+01  (-0.4138872E+00)
 number of electron      50.9999999 magnetization      16.8998602
 augmentation part        1.2044964 magnetization      15.8940287

 Broyden mixing:
  rms(total) = 0.40567E+00    rms(broyden)= 0.40565E+00
  rms(prec ) = 0.40913E+00
  weight for this iteration     100.00

 eigenvalues of (default mixing * dielectric matrix)
  average eigenvalue GAMMA=   1.3468
  2.1450  1.7664  0.8397  0.6361

 Free energy of the ion-electron system (eV)
  ---------------------------------------------------
  alpha Z        PSCENC =         0.19061315
  Ewald energy   TEWEN  =      5365.31875941
  -Hartree energ DENC   =     -6552.80797926
  -exchange      EXHF   =         0.00000000
  -V(xc)+E(xc)   XCENC  =       182.02545369
  PAW double counting   =      3946.96408675    -3954.30486328
  entropy T*S    EENTRO =        -0.00000000
  eigenvalues    EBANDS =      -630.66437819
  atomic energy  EATOM  =      1621.32137526
  Solvation  Ediel_sol  =       -89.02030026
  ---------------------------------------------------
  free energy    TOTEN  =      -110.97723275 eV

  energy without entropy =     -110.97723275  energy(sigma->0) =     -110.97723275


--------------------------------------------------------------------------------------------------------




--------------------------------------- Iteration      1(   6)  ---------------------------------------


    POTLOK:  cpu time    500.5767: real time    500.5804
    SETDIJ:  cpu time      0.0331: real time      0.0331
    EDDIAG:  cpu time      5.1274: real time      5.1273
  RMM-DIIS:  cpu time      8.6199: real time      8.6199
    ORTHCH:  cpu time      1.4091: real time      1.4091
       DOS:  cpu time      0.2094: real time      0.2094
    CHARGE:  cpu time      3.1714: real time      3.1714
    MIXING:  cpu time      0.1381: real time      0.1381
    --------------------------------------------
      LOOP:  cpu time    519.2851: real time    519.2886

 eigenvalue-minimisations  :   197
 total energy-change (2. order) :-0.1031769E+02  (-0.5612807E+00)
 number of electron      50.9999998 magnetization      16.3494734
 augmentation part        1.1937188 magnetization      15.3655649

 Broyden mixing:
  rms(total) = 0.24186E+00    rms(broyden)= 0.24183E+00
  rms(prec ) = 0.24440E+00
  weight for this iteration     100.00

 eigenvalues of (default mixing * dielectric matrix)
  average eigenvalue GAMMA=   1.3091
  2.4518  1.7024  0.9087  0.8505  0.6320

 Free energy of the ion-electron system (eV)
  ---------------------------------------------------
  alpha Z        PSCENC =         0.19061315
  Ewald energy   TEWEN  =      5365.31875941
  -Hartree energ DENC   =     -6536.27776895
  -exchange      EXHF   =         0.00000000
  -V(xc)+E(xc)   XCENC  =       174.17433133
  PAW double counting   =      4283.26496970    -4290.39670217
  entropy T*S    EENTRO =        -0.00000000
  eigenvalues    EBANDS =      -633.53192846
  atomic energy  EATOM  =      1621.32137526
  Solvation  Ediel_sol  =      -105.35856801
  ---------------------------------------------------
  free energy    TOTEN  =      -121.29491874 eV

  energy without entropy =     -121.29491874  energy(sigma->0) =     -121.29491874


--------------------------------------------------------------------------------------------------------




--------------------------------------- Iteration      1(   7)  ---------------------------------------


    POTLOK:  cpu time    442.1271: real time    442.1348
    SETDIJ:  cpu time      0.0310: real time      0.0310
    EDDIAG:  cpu time      4.4307: real time      4.4307
  RMM-DIIS:  cpu time      8.7590: real time      8.7591
    ORTHCH:  cpu time      1.5496: real time      1.5496
       DOS:  cpu time      0.2094: real time      0.2094
    CHARGE:  cpu time      3.3802: real time      3.3802
    MIXING:  cpu time      0.1278: real time      0.1278
    --------------------------------------------
      LOOP:  cpu time    460.6148: real time    460.6226

 eigenvalue-minimisations  :   194
 total energy-change (2. order) :-0.9875203E+00  (-0.7849273E-01)
 number of electron      50.9999998 magnetization      14.8321379
 augmentation part        1.1876652 magnetization      13.8561496

 Broyden mixing:
  rms(total) = 0.20994E+00    rms(broyden)= 0.20994E+00
  rms(prec ) = 0.21220E+00
  weight for this iteration     100.00

 eigenvalues of (default mixing * dielectric matrix)
  average eigenvalue GAMMA=   1.2374
  2.3377  1.9307  0.8689  0.8689  0.7032  0.7146

 Free energy of the ion-electron system (eV)
  ---------------------------------------------------
  alpha Z        PSCENC =         0.19061315
  Ewald energy   TEWEN  =      5365.31875941
  -Hartree energ DENC   =     -6533.28808337
  -exchange      EXHF   =         0.00000000
  -V(xc)+E(xc)   XCENC  =       173.47451921
  PAW double counting   =      4284.35941611    -4291.51559605
  entropy T*S    EENTRO =        -0.00000000
  eigenvalues    EBANDS =      -633.50203251
  atomic energy  EATOM  =      1621.32137526
  Solvation  Ediel_sol  =      -108.64141028
  ---------------------------------------------------
  free energy    TOTEN  =      -122.28243908 eV

  energy without entropy =     -122.28243908  energy(sigma->0) =     -122.28243908


--------------------------------------------------------------------------------------------------------




--------------------------------------- Iteration      1(   8)  ---------------------------------------


    POTLOK:  cpu time    464.7129: real time    464.7153
    SETDIJ:  cpu time      0.0353: real time      0.0353
    EDDIAG:  cpu time      4.8314: real time      4.8313
  RMM-DIIS:  cpu time      8.1867: real time      8.1866
    ORTHCH:  cpu time      1.1679: real time      1.1679
       DOS:  cpu time      0.0013: real time      0.0013
    CHARGE:  cpu time      3.1856: real time      3.1856
    MIXING:  cpu time      0.1290: real time      0.1290
    --------------------------------------------
      LOOP:  cpu time    482.2501: real time    482.2523

 eigenvalue-minimisations  :   192
 total energy-change (2. order) :-0.2595451E+01  (-0.8527270E-01)
 number of electron      50.9999998 magnetization      12.7950021
 augmentation part        1.1880400 magnetization      11.8260268

 Broyden mixing:
  rms(total) = 0.15334E+00    rms(broyden)= 0.15334E+00
  rms(prec ) = 0.15480E+00
  weight for this iteration     100.00

 eigenvalues of (default mixing * dielectric matrix)
  average eigenvalue GAMMA=   1.5676
  3.7273  2.5743  1.6058  0.9562  0.8515  0.6292  0.6292

 Free energy of the ion-electron system (eV)
  ---------------------------------------------------
  alpha Z        PSCENC =         0.19061315
  Ewald energy   TEWEN  =      5365.31875941
  -Hartree energ DENC   =     -6514.48026768
  -exchange      EXHF   =         0.00000000
  -V(xc)+E(xc)   XCENC  =       170.90016785
  PAW double counting   =      4179.84686626    -4186.96423674
  entropy T*S    EENTRO =        -0.00000000
  eigenvalues    EBANDS =      -645.32693887
  atomic energy  EATOM  =      1621.32137526
  Solvation  Ediel_sol  =      -115.68422911
  ---------------------------------------------------
  free energy    TOTEN  =      -124.87789047 eV

  energy without entropy =     -124.87789047  energy(sigma->0) =     -124.87789047


--------------------------------------------------------------------------------------------------------




--------------------------------------- Iteration      1(   9)  ---------------------------------------


    POTLOK:  cpu time    472.1640: real time    472.1727
    SETDIJ:  cpu time      0.0304: real time      0.0304
    EDDIAG:  cpu time      5.0389: real time      5.0389
  RMM-DIIS:  cpu time      8.9468: real time      8.9469
    ORTHCH:  cpu time      1.2898: real time      1.2897
       DOS:  cpu time      0.0105: real time      0.0105
    CHARGE:  cpu time      3.3481: real time      3.3481
    MIXING:  cpu time      0.1332: real time      0.1332
    --------------------------------------------
      LOOP:  cpu time    490.9617: real time    490.9704

 eigenvalue-minimisations  :   202
 total energy-change (2. order) :-0.1752611E+01  (-0.1309547E+00)
 number of electron      50.9999998 magnetization      12.2056892
 augmentation part        1.1811967 magnetization      11.2476210

 Broyden mixing:
  rms(total) = 0.11105E+00    rms(broyden)= 0.11104E+00
  rms(prec ) = 0.11254E+00
  weight for this iteration     100.00

 eigenvalues of (default mixing * dielectric matrix)
  average eigenvalue GAMMA=   1.5463
  4.5217  2.3036  1.6034  0.9372  0.7958  0.7958  0.6175  0.7956

 Free energy of the ion-electron system (eV)
  ---------------------------------------------------
  alpha Z        PSCENC =         0.19061315
  Ewald energy   TEWEN  =      5365.31875941
  -Hartree energ DENC   =     -6494.96143408
  -exchange      EXHF   =         0.00000000
  -V(xc)+E(xc)   XCENC  =       169.27922046
  PAW double counting   =      4131.95001173    -4139.04941378
  entropy T*S    EENTRO =        -0.00000000
  eigenvalues    EBANDS =      -654.31905343
  atomic energy  EATOM  =      1621.32137526
  Solvation  Ediel_sol  =      -126.36058031
  ---------------------------------------------------
  free energy    TOTEN  =      -126.63050160 eV

  energy without entropy =     -126.63050160  energy(sigma->0) =     -126.63050160


--------------------------------------------------------------------------------------------------------




--------------------------------------- Iteration      1(  10)  ---------------------------------------


    POTLOK:  cpu time    429.6480: real time    429.6563
    SETDIJ:  cpu time      0.0325: real time      0.0325
    EDDIAG:  cpu time      4.8260: real time      4.8260
  RMM-DIIS:  cpu time      8.7452: real time      8.7469
    ORTHCH:  cpu time      1.2006: real time      1.2006
       DOS:  cpu time      0.2063: real time      0.2063
    CHARGE:  cpu time      2.7831: real time      2.7831
    MIXING:  cpu time      0.1348: real time      0.1348
    --------------------------------------------
      LOOP:  cpu time    447.5764: real time    447.5863

 eigenvalue-minimisations  :   193
 total energy-change (2. order) :-0.6008174E+00  (-0.1320525E-01)
 number of electron      50.9999998 magnetization      10.8386572
 augmentation part        1.1820566 magnetization       9.8843015

 Broyden mixing:
  rms(total) = 0.80556E-01    rms(broyden)= 0.80552E-01
  rms(prec ) = 0.81569E-01
  weight for this iteration     100.00

 eigenvalues of (default mixing * dielectric matrix)
  average eigenvalue GAMMA=   1.6125
  5.4151  1.7819  1.7819  1.6823  0.8298  0.8298  0.8607  0.6124  0.7190

 Free energy of the ion-electron system (eV)
  ---------------------------------------------------
  alpha Z        PSCENC =         0.19061315
  Ewald energy   TEWEN  =      5365.31875941
  -Hartree energ DENC   =     -6491.12135294
  -exchange      EXHF   =         0.00000000
  -V(xc)+E(xc)   XCENC  =       168.71979899
  PAW double counting   =      4156.19556546    -4163.29198969
  entropy T*S    EENTRO =        -0.00000000
  eigenvalues    EBANDS =      -655.13219939
  atomic energy  EATOM  =      1621.32137526
  Solvation  Ediel_sol  =      -129.43188921
  ---------------------------------------------------
  free energy    TOTEN  =      -127.23131896 eV

  energy without entropy =     -127.23131896  energy(sigma->0) =     -127.23131896


--------------------------------------------------------------------------------------------------------




--------------------------------------- Iteration      1(  11)  ---------------------------------------


    POTLOK:  cpu time    463.8084: real time    463.8162
    SETDIJ:  cpu time      0.0294: real time      0.0294
    EDDIAG:  cpu time      5.0274: real time      5.0275
  RMM-DIIS:  cpu time      9.0024: real time      9.0025
    ORTHCH:  cpu time      1.2557: real time      1.2557
       DOS:  cpu time      0.3927: real time      0.3927
    CHARGE:  cpu time      2.9814: real time      2.9815
    MIXING:  cpu time      0.1478: real time      0.1478
    --------------------------------------------
      LOOP:  cpu time    482.6452: real time    482.6532

 eigenvalue-minimisations  :   194
 total energy-change (2. order) :-0.5682838E+00  (-0.1479631E-01)
 number of electron      50.9999998 magnetization       9.8950723
 augmentation part        1.1825657 magnetization       8.9430113

 Broyden mixing:
  rms(total) = 0.60557E-01    rms(broyden)= 0.60554E-01
  rms(prec ) = 0.61203E-01
  weight for this iteration     100.00

 eigenvalues of (default mixing * dielectric matrix)
  average eigenvalue GAMMA=   1.7803
  6.9953  2.3098  2.3098  1.2807  1.0318  1.0318  0.7675  0.7675  0.6161  0.6931

 Free energy of the ion-electron system (eV)
  ---------------------------------------------------
  alpha Z        PSCENC =         0.19061315
  Ewald energy   TEWEN  =      5365.31875941
  -Hartree energ DENC   =     -6482.93044288
  -exchange      EXHF   =         0.00000000
  -V(xc)+E(xc)   XCENC  =       168.13102533
  PAW double counting   =      4156.17668184    -4163.28975788
  entropy T*S    EENTRO =        -0.00000000
  eigenvalues    EBANDS =      -657.16368779
  atomic energy  EATOM  =      1621.32137526
  Solvation  Ediel_sol  =      -135.55416924
  ---------------------------------------------------
  free energy    TOTEN  =      -127.79960281 eV

  energy without entropy =     -127.79960281  energy(sigma->0) =     -127.79960281


--------------------------------------------------------------------------------------------------------




--------------------------------------- Iteration      1(  12)  ---------------------------------------


    POTLOK:  cpu time    451.1024: real time    451.1053
    SETDIJ:  cpu time      0.0320: real time      0.0320
    EDDIAG:  cpu time      4.4020: real time      4.4020
  RMM-DIIS:  cpu time      8.5679: real time      8.5678
    ORTHCH:  cpu time      1.1938: real time      1.1938
       DOS:  cpu time      0.0010: real time      0.0010
    CHARGE:  cpu time      2.6063: real time      2.6062
    MIXING:  cpu time      0.1480: real time      0.1480
    --------------------------------------------
      LOOP:  cpu time    468.0534: real time    468.0563

 eigenvalue-minimisations  :   194
 total energy-change (2. order) :-0.2648851E+00  (-0.5838193E-02)
 number of electron      50.9999998 magnetization       9.0455686
 augmentation part        1.1817258 magnetization       8.0950822

 Broyden mixing:
  rms(total) = 0.46889E-01    rms(broyden)= 0.46888E-01
  rms(prec ) = 0.47256E-01
  weight for this iteration     100.00

 eigenvalues of (default mixing * dielectric matrix)
  average eigenvalue GAMMA=   1.7769
  7.4658  2.2949  2.0036  1.5146  1.5146  1.0534  0.8225  0.8225  0.7859  0.6133
  0.6546

 Free energy of the ion-electron system (eV)
  ---------------------------------------------------
  alpha Z        PSCENC =         0.19061315
  Ewald energy   TEWEN  =      5365.31875941
  -Hartree energ DENC   =     -6478.16171808
  -exchange      EXHF   =         0.00000000
  -V(xc)+E(xc)   XCENC  =       167.81966003
  PAW double counting   =      4138.43014609    -4145.56248550
  entropy T*S    EENTRO =        -0.00000000
  eigenvalues    EBANDS =      -658.19743857
  atomic energy  EATOM  =      1621.32137526
  Solvation  Ediel_sol  =      -139.22339972
  ---------------------------------------------------
  free energy    TOTEN  =      -128.06448793 eV

  energy without entropy =     -128.06448793  energy(sigma->0) =     -128.06448793


--------------------------------------------------------------------------------------------------------




--------------------------------------- Iteration      1(  13)  ---------------------------------------


    POTLOK:  cpu time    412.1830: real time    412.1918
    SETDIJ:  cpu time      0.0346: real time      0.0346
    EDDIAG:  cpu time      4.8725: real time      4.8726
  RMM-DIIS:  cpu time      8.4568: real time      8.4568
    ORTHCH:  cpu time      1.0775: real time      1.0775
       DOS:  cpu time      0.0045: real time      0.0045
    CHARGE:  cpu time      3.3698: real time      3.3698
    MIXING:  cpu time      0.1588: real time      0.1588
    --------------------------------------------
      LOOP:  cpu time    430.1576: real time    430.1664

 eigenvalue-minimisations  :   195
 total energy-change (2. order) :-0.1612146E+00  (-0.3022436E-02)
 number of electron      50.9999998 magnetization       7.5169197
 augmentation part        1.1812731 magnetization       6.5677104

 Broyden mixing:
  rms(total) = 0.39141E-01    rms(broyden)= 0.39140E-01
  rms(prec ) = 0.39305E-01
  weight for this iteration     100.00

 eigenvalues of (default mixing * dielectric matrix)
  average eigenvalue GAMMA=   1.9101
  8.3857  3.0253  2.2074  2.2074  1.2214  1.2214  1.0832  0.7644  0.7644  0.7926
  0.6310  0.6170

 Free energy of the ion-electron system (eV)
  ---------------------------------------------------
  alpha Z        PSCENC =         0.19061315
  Ewald energy   TEWEN  =      5365.31875941
  -Hartree energ DENC   =     -6474.80816354
  -exchange      EXHF   =         0.00000000
  -V(xc)+E(xc)   XCENC  =       167.62174084
  PAW double counting   =      4136.93378517    -4144.06113371
  entropy T*S    EENTRO =        -0.00000000
  eigenvalues    EBANDS =      -658.89620630
  atomic energy  EATOM  =      1621.32137526
  Solvation  Ediel_sol  =      -141.84647283
  ---------------------------------------------------
  free energy    TOTEN  =      -128.22570256 eV

  energy without entropy =     -128.22570256  energy(sigma->0) =     -128.22570256


--------------------------------------------------------------------------------------------------------




--------------------------------------- Iteration      1(  14)  ---------------------------------------


    POTLOK:  cpu time    440.3614: real time    440.3659
    SETDIJ:  cpu time      0.0317: real time      0.0317
    EDDIAG:  cpu time      5.1916: real time      5.1915
  RMM-DIIS:  cpu time      8.4058: real time      8.4058
    ORTHCH:  cpu time      1.1338: real time      1.1338
       DOS:  cpu time      0.2082: real time      0.2082
    CHARGE:  cpu time      2.9811: real time      2.9810
    MIXING:  cpu time      0.1652: real time      0.1652
    --------------------------------------------
      LOOP:  cpu time    458.4788: real time    458.4831

 eigenvalue-minimisations  :   193
 total energy-change (2. order) :-0.8136753E-01  (-0.8027491E-03)
 number of electron      50.9999998 magnetization       6.9997318
 augmentation part        1.1812052 magnetization       6.0508139

 Broyden mixing:
  rms(total) = 0.28754E-01    rms(broyden)= 0.28754E-01
  rms(prec ) = 0.28838E-01
  weight for this iteration     100.00

 eigenvalues of (default mixing * dielectric matrix)
  average eigenvalue GAMMA=   1.9661
  9.1824  4.1433  2.1165  2.1165  1.2870  1.2870  1.0551  0.8105  0.8105  0.7810
  0.7170  0.6265  0.6265

 Free energy of the ion-electron system (eV)
  ---------------------------------------------------
  alpha Z        PSCENC =         0.19061315
  Ewald energy   TEWEN  =      5365.31875941
  -Hartree energ DENC   =     -6470.46673386
  -exchange      EXHF   =         0.00000000
  -V(xc)+E(xc)   XCENC  =       167.54151780
  PAW double counting   =      4155.61120998    -4162.73851093
  entropy T*S    EENTRO =        -0.00000000
  eigenvalues    EBANDS =      -658.71107832
  atomic energy  EATOM  =      1621.32137526
  Solvation  Ediel_sol  =      -146.37422258
  ---------------------------------------------------
  free energy    TOTEN  =      -128.30707009 eV

  energy without entropy =     -128.30707009  energy(sigma->0) =     -128.30707009


--------------------------------------------------------------------------------------------------------




--------------------------------------- Iteration      1(  15)  ---------------------------------------


    POTLOK:  cpu time    404.7850: real time    404.7935
    SETDIJ:  cpu time      0.0331: real time      0.0331
    EDDIAG:  cpu time      5.0941: real time      5.0942
  RMM-DIIS:  cpu time      8.1361: real time      8.1362
    ORTHCH:  cpu time      1.2846: real time      1.2846
       DOS:  cpu time      0.0078: real time      0.0078
    CHARGE:  cpu time      3.3783: real time      3.3783
    MIXING:  cpu time      0.1774: real time      0.1774
    --------------------------------------------
      LOOP:  cpu time    422.8965: real time    422.9052

 eigenvalue-minimisations  :   192
 total energy-change (2. order) :-0.4392116E-01  (-0.2307583E-03)
 number of electron      50.9999998 magnetization       5.7253639
 augmentation part        1.1813370 magnetization       4.7767540

 Broyden mixing:
  rms(total) = 0.25549E-01    rms(broyden)= 0.25549E-01
  rms(prec ) = 0.25585E-01
  weight for this iteration     100.00

 eigenvalues of (default mixing * dielectric matrix)
  average eigenvalue GAMMA=   1.9868
  9.6063  4.5102  2.1635  2.1635  1.4215  1.4215  1.0503  1.0503  0.9100  0.7596
  0.7596  0.7514  0.6237  0.6237

 Free energy of the ion-electron system (eV)
  ---------------------------------------------------
  alpha Z        PSCENC =         0.19061315
  Ewald energy   TEWEN  =      5365.31875941
  -Hartree energ DENC   =     -6469.41926066
  -exchange      EXHF   =         0.00000000
  -V(xc)+E(xc)   XCENC  =       167.48129845
  PAW double counting   =      4153.27149669    -4160.39910662
  entropy T*S    EENTRO =        -0.00000000
  eigenvalues    EBANDS =      -658.85690092
  atomic energy  EATOM  =      1621.32137526
  Solvation  Ediel_sol  =      -147.25926601
  ---------------------------------------------------
  free energy    TOTEN  =      -128.35099125 eV

  energy without entropy =     -128.35099125  energy(sigma->0) =     -128.35099125


--------------------------------------------------------------------------------------------------------




--------------------------------------- Iteration      1(  16)  ---------------------------------------


    POTLOK:  cpu time    443.9629: real time    443.9756
    SETDIJ:  cpu time      0.0329: real time      0.0328
    EDDIAG:  cpu time      5.0975: real time      5.0975
  RMM-DIIS:  cpu time      8.2596: real time      8.2617
    ORTHCH:  cpu time      0.9803: real time      0.9803
       DOS:  cpu time      0.1787: real time      0.1787
    CHARGE:  cpu time      2.7785: real time      2.7785
    MIXING:  cpu time      0.1907: real time      0.1907
    --------------------------------------------
      LOOP:  cpu time    461.4812: real time    461.4960

 eigenvalue-minimisations  :   192
 total energy-change (2. order) :-0.2617629E-01  (-0.7322474E-03)
 number of electron      50.9999998 magnetization       4.6620435
 augmentation part        1.1817396 magnetization       3.7136505

 Broyden mixing:
  rms(total) = 0.21180E-01    rms(broyden)= 0.21180E-01
  rms(prec ) = 0.21276E-01
  weight for this iteration     100.00

 eigenvalues of (default mixing * dielectric matrix)
  average eigenvalue GAMMA=   2.1038
 10.3645  5.5401  2.6525  2.2021  2.0523  1.2764  1.2764  1.0408  0.8606  0.8606
  0.7552  0.7552  0.6797  0.6164  0.6238

 Free energy of the ion-electron system (eV)
  ---------------------------------------------------
  alpha Z        PSCENC =         0.19061315
  Ewald energy   TEWEN  =      5365.31875941
  -Hartree energ DENC   =     -6468.13701544
  -exchange      EXHF   =         0.00000000
  -V(xc)+E(xc)   XCENC  =       167.42601420
  PAW double counting   =      4150.14869626    -4157.26884165
  entropy T*S    EENTRO =        -0.00000000
  eigenvalues    EBANDS =      -658.99204643
  atomic energy  EATOM  =      1621.32137526
  Solvation  Ediel_sol  =      -148.38472229
  ---------------------------------------------------
  free energy    TOTEN  =      -128.37716754 eV

  energy without entropy =     -128.37716754  energy(sigma->0) =     -128.37716754


--------------------------------------------------------------------------------------------------------




--------------------------------------- Iteration      1(  17)  ---------------------------------------


    POTLOK:  cpu time    426.5292: real time    426.5411
    SETDIJ:  cpu time      0.0300: real time      0.0300
    EDDIAG:  cpu time      4.9247: real time      4.9247
  RMM-DIIS:  cpu time      8.3581: real time      8.3601
    ORTHCH:  cpu time      1.0264: real time      1.0264
       DOS:  cpu time      0.1493: real time      0.1493
    CHARGE:  cpu time      3.3287: real time      3.3287
    MIXING:  cpu time      0.2025: real time      0.2025
    --------------------------------------------
      LOOP:  cpu time    444.5489: real time    444.5629

 eigenvalue-minimisations  :   192
 total energy-change (2. order) :-0.3934764E-02  (-0.2227921E-03)
 number of electron      50.9999998 magnetization       3.8571120
 augmentation part        1.1820199 magnetization       2.9088552

 Broyden mixing:
  rms(total) = 0.18305E-01    rms(broyden)= 0.18305E-01
  rms(prec ) = 0.18444E-01
  weight for this iteration     100.00

 eigenvalues of (default mixing * dielectric matrix)
  average eigenvalue GAMMA=   2.1217
 10.8474  6.0768  2.9929  2.1359  2.1359  1.3134  1.3134  1.1163  0.9287  0.9287
  0.7986  0.7342  0.7342  0.6212  0.6212  0.6479

 Free energy of the ion-electron system (eV)
  ---------------------------------------------------
  alpha Z        PSCENC =         0.19061315
  Ewald energy   TEWEN  =      5365.31875941
  -Hartree energ DENC   =     -6467.90488402
  -exchange      EXHF   =         0.00000000
  -V(xc)+E(xc)   XCENC  =       167.43072657
  PAW double counting   =      4153.78625095    -4160.90536960
  entropy T*S    EENTRO =        -0.00000000
  eigenvalues    EBANDS =      -658.47359375
  atomic energy  EATOM  =      1621.32137526
  Solvation  Ediel_sol  =      -149.14498026
  ---------------------------------------------------
  free energy    TOTEN  =      -128.38110230 eV

  energy without entropy =     -128.38110230  energy(sigma->0) =     -128.38110230


--------------------------------------------------------------------------------------------------------




--------------------------------------- Iteration      1(  18)  ---------------------------------------


    POTLOK:  cpu time    422.1439: real time    422.1467
    SETDIJ:  cpu time      0.0331: real time      0.0330
    EDDIAG:  cpu time      4.8483: real time      4.8482
  RMM-DIIS:  cpu time      8.3005: real time      8.3005
    ORTHCH:  cpu time      1.2745: real time      1.2745
       DOS:  cpu time      0.2312: real time      0.2312
    CHARGE:  cpu time      3.5616: real time      3.5616
    MIXING:  cpu time      0.2011: real time      0.2011
    --------------------------------------------
      LOOP:  cpu time    440.5942: real time    440.5968

 eigenvalue-minimisations  :   192
 total energy-change (2. order) :-0.9564918E-02  (-0.3566784E-03)
 number of electron      50.9999998 magnetization       2.4181556
 augmentation part        1.1819638 magnetization       1.4699704

 Broyden mixing:
  rms(total) = 0.14021E-01    rms(broyden)= 0.14021E-01
  rms(prec ) = 0.14094E-01
  weight for this iteration     100.00

 eigenvalues of (default mixing * dielectric matrix)
  average eigenvalue GAMMA=   2.2711
 12.0142  7.1089  3.7518  2.2285  2.2285  1.5687  1.3223  1.3223  1.0164  1.0164
  0.8931  0.7650  0.7650  0.7323  0.6210  0.6274  0.6274

 Free energy of the ion-electron system (eV)
  ---------------------------------------------------
  alpha Z        PSCENC =         0.19061315
  Ewald energy   TEWEN  =      5365.31875941
  -Hartree energ DENC   =     -6468.70103597
  -exchange      EXHF   =         0.00000000
  -V(xc)+E(xc)   XCENC  =       167.44923009
  PAW double counting   =      4153.20886646    -4160.33571116
  entropy T*S    EENTRO =        -0.00000000
  eigenvalues    EBANDS =      -657.73452621
  atomic energy  EATOM  =      1621.32137526
  Solvation  Ediel_sol  =      -149.10823824
  ---------------------------------------------------
  free energy    TOTEN  =      -128.39066722 eV

  energy without entropy =     -128.39066722  energy(sigma->0) =     -128.39066722


--------------------------------------------------------------------------------------------------------




--------------------------------------- Iteration      1(  19)  ---------------------------------------


    POTLOK:  cpu time    420.5404: real time    420.5499
    SETDIJ:  cpu time      0.0309: real time      0.0309
    EDDIAG:  cpu time      5.8885: real time      5.8885
  RMM-DIIS:  cpu time      9.3847: real time      9.3853
    ORTHCH:  cpu time      0.9577: real time      0.9577
       DOS:  cpu time      0.4417: real time      0.4417
    CHARGE:  cpu time      2.7851: real time      2.7851
    MIXING:  cpu time      0.2057: real time      0.2057
    --------------------------------------------
      LOOP:  cpu time    440.2348: real time    440.2447

 eigenvalue-minimisations  :   215
 total energy-change (2. order) :-0.1894261E-01  (-0.1460475E-02)
 number of electron      50.9999998 magnetization       1.8793984
 augmentation part        1.1806938 magnetization       0.9315252

 Broyden mixing:
  rms(total) = 0.19544E-01    rms(broyden)= 0.19543E-01
  rms(prec ) = 0.19972E-01
  weight for this iteration     100.00

 eigenvalues of (default mixing * dielectric matrix)
  average eigenvalue GAMMA=   2.4062
 14.0260  8.0921  4.3918  2.3850  2.0226  2.0226  1.2798  1.2798  1.0872  0.9218
  0.9218  0.7468  0.7468  0.8047  0.7161  0.6382  0.6190  0.6091

 Free energy of the ion-electron system (eV)
  ---------------------------------------------------
  alpha Z        PSCENC =         0.19061315
  Ewald energy   TEWEN  =      5365.31875941
  -Hartree energ DENC   =     -6469.84660968
  -exchange      EXHF   =         0.00000000
  -V(xc)+E(xc)   XCENC  =       167.45722334
  PAW double counting   =      4146.85248478    -4153.98624539
  entropy T*S    EENTRO =        -0.00000000
  eigenvalues    EBANDS =      -657.21966403
  atomic energy  EATOM  =      1621.32137526
  Solvation  Ediel_sol  =      -148.49754667
  ---------------------------------------------------
  free energy    TOTEN  =      -128.40960984 eV

  energy without entropy =     -128.40960984  energy(sigma->0) =     -128.40960984


--------------------------------------------------------------------------------------------------------




--------------------------------------- Iteration      1(  20)  ---------------------------------------


    POTLOK:  cpu time    432.7359: real time    432.7521
    SETDIJ:  cpu time      0.0325: real time      0.0324
    EDDIAG:  cpu time      5.2435: real time      5.2436
  RMM-DIIS:  cpu time      8.4971: real time      8.4971
    ORTHCH:  cpu time      1.2551: real time      1.2551
       DOS:  cpu time      0.2507: real time      0.2507
    CHARGE:  cpu time      3.5379: real time      3.5379
    MIXING:  cpu time      0.2174: real time      0.2174
    --------------------------------------------
      LOOP:  cpu time    451.7702: real time    451.7864

 eigenvalue-minimisations  :   192
 total energy-change (2. order) :-0.5322852E-02  (-0.2837835E-03)
 number of electron      50.9999998 magnetization       1.4101460
 augmentation part        1.1808071 magnetization       0.4622357

 Broyden mixing:
  rms(total) = 0.10412E-01    rms(broyden)= 0.10412E-01
  rms(prec ) = 0.10622E-01
  weight for this iteration     100.00

 eigenvalues of (default mixing * dielectric matrix)
  average eigenvalue GAMMA=   2.5588
 16.5482  8.6625  4.7547  2.4636  2.2004  2.2004  1.3612  1.3612  1.1849  1.0643
  1.0643  0.8259  0.8259  0.7692  0.7692  0.7031  0.6341  0.6144  0.6100

 Free energy of the ion-electron system (eV)
  ---------------------------------------------------
  alpha Z        PSCENC =         0.19061315
  Ewald energy   TEWEN  =      5365.31875941
  -Hartree energ DENC   =     -6469.72153360
  -exchange      EXHF   =         0.00000000
  -V(xc)+E(xc)   XCENC  =       167.43652712
  PAW double counting   =      4145.97301814    -4153.10249651
  entropy T*S    EENTRO =        -0.00000000
  eigenvalues    EBANDS =      -657.74192452
  atomic energy  EATOM  =      1621.32137526
  Solvation  Ediel_sol  =      -148.08927113
  ---------------------------------------------------
  free energy    TOTEN  =      -128.41493269 eV

  energy without entropy =     -128.41493269  energy(sigma->0) =     -128.41493269


--------------------------------------------------------------------------------------------------------




--------------------------------------- Iteration      1(  21)  ---------------------------------------


    POTLOK:  cpu time    429.1595: real time    429.1652
    SETDIJ:  cpu time      0.0309: real time      0.0309
    EDDIAG:  cpu time      4.5941: real time      4.5941
  RMM-DIIS:  cpu time      9.1624: real time      9.1625
    ORTHCH:  cpu time      1.1823: real time      1.1823
       DOS:  cpu time      0.0198: real time      0.0198
    CHARGE:  cpu time      3.1491: real time      3.1491
    MIXING:  cpu time      0.2351: real time      0.2351
    --------------------------------------------
      LOOP:  cpu time    447.5331: real time    447.5389

 eigenvalue-minimisations  :   207
 total energy-change (2. order) :-0.1772324E-01  (-0.9067265E-03)
 number of electron      50.9999998 magnetization       1.1861943
 augmentation part        1.1816831 magnetization       0.2382147

 Broyden mixing:
  rms(total) = 0.12044E-01    rms(broyden)= 0.12042E-01
  rms(prec ) = 0.12319E-01
  weight for this iteration     100.00

 eigenvalues of (default mixing * dielectric matrix)
  average eigenvalue GAMMA=   2.7650
 20.8404  9.2299  5.1955  2.9626  2.2169  2.2169  1.2892  1.2892  1.4062  1.0023
  1.0023  0.9442  0.7790  0.7790  0.8230  0.7527  0.7135  0.6179  0.6179  0.6218

 Free energy of the ion-electron system (eV)
  ---------------------------------------------------
  alpha Z        PSCENC =         0.19061315
  Ewald energy   TEWEN  =      5365.31875941
  -Hartree energ DENC   =     -6469.38969614
  -exchange      EXHF   =         0.00000000
  -V(xc)+E(xc)   XCENC  =       167.39983961
  PAW double counting   =      4150.37723863    -4157.49914260
  entropy T*S    EENTRO =        -0.00000000
  eigenvalues    EBANDS =      -658.57710840
  atomic energy  EATOM  =      1621.32137526
  Solvation  Ediel_sol  =      -147.57453483
  ---------------------------------------------------
  free energy    TOTEN  =      -128.43265593 eV

  energy without entropy =     -128.43265593  energy(sigma->0) =     -128.43265593


--------------------------------------------------------------------------------------------------------




--------------------------------------- Iteration      1(  22)  ---------------------------------------


    POTLOK:  cpu time    425.1697: real time    425.1804
    SETDIJ:  cpu time      0.0308: real time      0.0308
    EDDIAG:  cpu time      4.7503: real time      4.7502
  RMM-DIIS:  cpu time      8.3881: real time      8.3881
    ORTHCH:  cpu time      1.2370: real time      1.2370
       DOS:  cpu time      0.0083: real time      0.0083
    CHARGE:  cpu time      3.7959: real time      3.7959
    MIXING:  cpu time      0.2477: real time      0.2477
    --------------------------------------------
      LOOP:  cpu time    443.6277: real time    443.6383

 eigenvalue-minimisations  :   192
 total energy-change (2. order) :-0.9178455E-02  (-0.8312927E-04)
 number of electron      50.9999998 magnetization       1.0941244
 augmentation part        1.1816861 magnetization       0.1461494

 Broyden mixing:
  rms(total) = 0.83811E-02    rms(broyden)= 0.83810E-02
  rms(prec ) = 0.85576E-02
  weight for this iteration     100.00

 eigenvalues of (default mixing * dielectric matrix)
  average eigenvalue GAMMA=   2.8261
 23.0678  9.4406  5.3414  3.1224  2.1656  2.1656  1.7488  1.2519  1.2519  1.0429
  1.0429  1.0664  0.8817  0.8817  0.7729  0.7729  0.7709  0.6967  0.6153  0.6153
  0.6317

 Free energy of the ion-electron system (eV)
  ---------------------------------------------------
  alpha Z        PSCENC =         0.19061315
  Ewald energy   TEWEN  =      5365.31875941
  -Hartree energ DENC   =     -6469.41160255
  -exchange      EXHF   =         0.00000000
  -V(xc)+E(xc)   XCENC  =       167.38389896
  PAW double counting   =      4151.25361502    -4158.37482021
  entropy T*S    EENTRO =        -0.00000000
  eigenvalues    EBANDS =      -658.82630978
  atomic energy  EATOM  =      1621.32137526
  Solvation  Ediel_sol  =      -147.29736364
  ---------------------------------------------------
  free energy    TOTEN  =      -128.44183438 eV

  energy without entropy =     -128.44183438  energy(sigma->0) =     -128.44183438


--------------------------------------------------------------------------------------------------------




--------------------------------------- Iteration      1(  23)  ---------------------------------------


    POTLOK:  cpu time    405.6443: real time    405.6497
    SETDIJ:  cpu time      0.0300: real time      0.0300
    EDDIAG:  cpu time      4.6636: real time      4.6636
  RMM-DIIS:  cpu time      8.9812: real time      8.9812
    ORTHCH:  cpu time      1.0381: real time      1.0381
[...]
  entropy T*S    EENTRO =        -0.00000000
  eigenvalues    EBANDS =      -658.39410230
  atomic energy  EATOM  =      1621.32137526
  Solvation  Ediel_sol  =      -147.10743098
  ---------------------------------------------------
  free energy    TOTEN  =      -128.46130200 eV

  energy without entropy =     -128.46130200  energy(sigma->0) =     -128.46130200


--------------------------------------------------------------------------------------------------------




--------------------------------------- Iteration      8(   4)  ---------------------------------------


    POTLOK:  cpu time    349.7343: real time    349.7420
    SETDIJ:  cpu time      0.0356: real time      0.0356
    EDDIAG:  cpu time      5.0802: real time      5.0802
  RMM-DIIS:  cpu time      6.4916: real time      6.4917
    ORTHCH:  cpu time      1.1702: real time      1.1702
       DOS:  cpu time      0.1650: real time      0.1650
    --------------------------------------------
      LOOP:  cpu time    362.6769: real time    362.6847

 eigenvalue-minimisations  :   136
 total energy-change (2. order) :-0.4240533E-05  (-0.3376257E-06)
 number of electron      50.9999998 magnetization       1.0000002
 augmentation part        1.1833472 magnetization       0.0520538

 Free energy of the ion-electron system (eV)
  ---------------------------------------------------
  alpha Z        PSCENC =         0.19061315
  Ewald energy   TEWEN  =      5369.68871859
  -Hartree energ DENC   =     -6474.48001084
  -exchange      EXHF   =         0.00000000
  -V(xc)+E(xc)   XCENC  =       167.44996797
  PAW double counting   =      4162.26413141    -4169.39486169
  entropy T*S    EENTRO =        -0.00000000
  eigenvalues    EBANDS =      -658.39170531
  atomic energy  EATOM  =      1621.32137526
  Solvation  Ediel_sol  =      -147.10953477
  ---------------------------------------------------
  free energy    TOTEN  =      -128.46130624 eV

  energy without entropy =     -128.46130624  energy(sigma->0) =     -128.46130624


--------------------------------------------------------------------------------------------------------




 average (electrostatic) potential at core
  the test charge radii are     0.6991  0.5201
  (the norm of the test charge is              1.0000)
       1 -59.8548       2 -60.3542       3 -59.6227       4 -59.9608       5 -60.3796
       6 -59.5872       7 -58.9097       8 -58.7314       9 -60.0027      10 -59.8983
      11 -42.5864      12 -42.1538      13 -42.3838      14 -42.3838      15 -42.1328
      16 -42.1326      17 -42.0274      18 -42.6524      19 -42.8502      20 -42.7426
      21 -42.7350      22 -42.8119
 
 
 
 E-fermi :  -6.3442     XC(G=0):  -0.0434     alpha+bet : -0.0208

 Fermi energy:        -6.3442177238

 spin component 1

 k-point     1 :       0.0000    0.0000    0.0000
  band No.  band energies     occupation 
      1     -22.5473      1.00000
      2     -21.0182      1.00000
      3     -19.8496      1.00000
      4     -19.4620      1.00000
      5     -18.0034      1.00000
      6     -17.2391      1.00000
      7     -15.7941      1.00000
      8     -15.5171      1.00000
      9     -14.1203      1.00000
     10     -13.0860      1.00000
     11     -12.6397      1.00000
     12     -11.7768      1.00000
     13     -11.2903      1.00000
     14     -11.1715      1.00000
     15     -10.8795      1.00000
     16     -10.7043      1.00000
     17     -10.0810      1.00000
     18      -9.9309      1.00000
     19      -9.8516      1.00000
     20      -9.7614      1.00000
     21      -9.4551      1.00000
     22      -8.9187      1.00000
     23      -8.6747      1.00000
     24      -8.3044      1.00000
     25      -7.1163      1.00000
     26      -6.6355      1.00000
     27      -3.3426      0.00000
     28      -1.9360      0.00000
     29      -0.9532      0.00000
     30      -0.3907      0.00000
     31      -0.1088      0.00000
     32      -0.0260      0.00000
     33       0.0009      0.00000
     34       0.0680      0.00000
     35       0.0840      0.00000
     36       0.0845      0.00000
     37       0.0996      0.00000
     38       0.1029      0.00000
     39       0.1148      0.00000
     40       0.1366      0.00000
     41       0.1724      0.00000
     42       0.1754      0.00000
     43       0.1765      0.00000
     44       0.1775      0.00000
     45       0.1777      0.00000
     46       0.1810      0.00000
     47       0.1811      0.00000
     48       0.1813      0.00000
 Fermi energy:        -6.3442177238

 spin component 2

 k-point     1 :       0.0000    0.0000    0.0000
  band No.  band energies     occupation 
      1     -22.4065      1.00000
      2     -20.8435      1.00000
      3     -19.8063      1.00000
      4     -19.2631      1.00000
      5     -17.9131      1.00000
      6     -17.1274      1.00000
      7     -15.6884      1.00000
      8     -15.4287      1.00000
      9     -14.0199      1.00000
     10     -13.0431      1.00000
     11     -12.5783      1.00000
     12     -11.7094      1.00000
     13     -11.1133      1.00000
     14     -11.0840      1.00000
     15     -10.8236      1.00000
     16     -10.6805      1.00000
     17      -9.9756      1.00000
     18      -9.8063      1.00000
     19      -9.7509      1.00000
     20      -9.6637      1.00000
     21      -9.4146      1.00000
     22      -8.8956      1.00000
     23      -8.6269      1.00000
     24      -7.9123      1.00000
     25      -6.9880      1.00000
     26      -5.9212      0.00000
     27      -2.7547      0.00000
     28      -1.7628      0.00000
     29      -0.5203      0.00000
     30      -0.3617      0.00000
     31      -0.0845      0.00000
     32      -0.0189      0.00000
     33       0.0006      0.00000
     34       0.0729      0.00000
     35       0.0826      0.00000
     36       0.0840      0.00000
     37       0.0984      0.00000
     38       0.1015      0.00000
     39       0.1169      0.00000
     40       0.1460      0.00000
     41       0.1707      0.00000
     42       0.1750      0.00000
     43       0.1750      0.00000
     44       0.1765      0.00000
     45       0.1768      0.00000
     46       0.1783      0.00000
     47       0.1791      0.00000
     48       0.1806      0.00000


--------------------------------------------------------------------------------------------------------


 soft charge-density along one line, spin component           1
         0         1         2         3         4         5         6         7         8         9
 total charge-density along one line
 
 soft charge-density along one line, spin component           2
         0         1         2         3         4         5         6         7         8         9
 total charge-density along one line
 
 pseudopotential strength for first ion, spin component:           1
 10.331  13.741   0.002   0.000  -0.001  -0.006  -0.000   0.003
 13.741  18.276   0.003   0.000  -0.001  -0.008  -0.000   0.004
  0.002   0.003  -4.435  -0.000  -0.001   8.673   0.000   0.002
  0.000   0.000  -0.000  -4.443  -0.000   0.000   8.692   0.000
 -0.001  -0.001  -0.001  -0.000  -4.436   0.002   0.000   8.674
 -0.006  -0.008   8.673   0.000   0.002 -19.103  -0.000  -0.004
 -0.000  -0.000   0.000   8.692   0.000  -0.000 -19.146  -0.000
  0.003   0.004   0.002   0.000   8.674  -0.004  -0.000 -19.102
 pseudopotential strength for first ion, spin component:           2
 10.310  13.713   0.002  -0.000  -0.001  -0.007   0.000   0.003
 13.713  18.238   0.003  -0.000  -0.001  -0.009   0.000   0.004
  0.002   0.003  -4.436   0.000  -0.002   8.678  -0.000   0.003
 -0.000  -0.000   0.000  -4.422   0.000  -0.000   8.659  -0.000
 -0.001  -0.001  -0.002   0.000  -4.436   0.003  -0.000   8.678
 -0.007  -0.009   8.678  -0.000   0.003 -19.120  -0.000  -0.005
  0.000   0.000  -0.000   8.659  -0.000  -0.000 -19.096   0.000
  0.003   0.004   0.003  -0.000   8.678  -0.005   0.000 -19.118
 total augmentation occupancy for first ion, spin component:           1
  7.748  -3.340   0.080  -0.000  -0.248   0.023  -0.000  -0.046
 -3.340   1.487  -0.077   0.000   0.155  -0.016   0.000   0.027
  0.080  -0.077   1.768  -0.000   0.027   0.156  -0.000   0.009
 -0.000   0.000  -0.000   1.062   0.000  -0.000   0.059   0.000
 -0.248   0.155   0.027   0.000   1.867   0.009   0.000   0.164
  0.023  -0.016   0.156  -0.000   0.009   0.015  -0.000   0.002
 -0.000   0.000  -0.000   0.059   0.000  -0.000   0.004   0.000
 -0.046   0.027   0.009   0.000   0.164   0.002   0.000   0.015
 total augmentation occupancy for first ion, spin component:           2
  0.011  -0.003   0.006  -0.000   0.004   0.001  -0.000   0.001
 -0.003   0.001  -0.006   0.000  -0.003  -0.001   0.000  -0.001
  0.006  -0.006  -0.002   0.000  -0.001   0.000   0.000   0.000
 -0.000   0.000   0.000   0.134   0.000   0.000   0.004   0.000
  0.004  -0.003  -0.001   0.000   0.003   0.000   0.000   0.000
  0.001  -0.001   0.000   0.000   0.000   0.000   0.000   0.000
 -0.000   0.000   0.000   0.004   0.000   0.000   0.000  -0.000
  0.001  -0.001   0.000   0.000   0.000   0.000  -0.000  -0.000


------------------------ aborting loop because EDIFF is reached ----------------------------------------


    CHARGE:  cpu time      3.1883: real time      3.1883
    FORLOC:  cpu time      0.2762: real time      0.2762
    FORNL :  cpu time      3.8177: real time      3.8177
    STRESS:  cpu time     11.5808: real time     11.5808
    FORCOR:  cpu time     15.3636: real time     15.3636
    FORHAR:  cpu time      1.5605: real time      1.5605
    MIXING:  cpu time      0.0971: real time      0.0971
    OFIELD:  cpu time      0.0001: real time      0.0001

 ---------------------------------------------------------------------------------------------

         DFTD3 V3.0 Rev 1        
 Edisp (eV)   -0.24768

 E6    (eV) :    -0.1044
 E8    (eV) :    -0.1433
 % E8        : 57.85
    FORVDW:  cpu time      0.0090: real time      0.0209

  FORCE on cell =-STRESS in cart. coord.  units (eV):
  Direction    XX          YY          ZZ          XY          YZ          ZX
  --------------------------------------------------------------------------------------
  Alpha Z     0.19061     0.19061     0.19061
  Ewald    3462.97231  2161.90015  -255.18453   -40.10652    -0.04286    -0.02268
  Hartree  3394.63603  2315.84241   763.98671   -27.55574    -0.04446    -0.01317
  E(xc)    -182.17272  -182.45561  -187.04619    -0.01200     0.00009    -0.00005
  Local   -7320.85646 -4937.78329 -1030.21330    68.93113     0.08900     0.03493
  n-local   -69.39087   -71.30936   -61.86550    -0.50573    -0.00117    -0.00009
  augment    -2.09589    -2.14948    -2.01306    -0.01437    -0.00000     0.00000
  Kinetic   717.49297   717.01610   771.53988    -0.62751    -0.00124     0.00026
  Fock        0.00000     0.00000     0.00000     0.00000     0.00000     0.00000
  vdW        -0.04108    -0.01232     0.00295    -0.00331    -0.00000    -0.00000
  -------------------------------------------------------------------------------------
  Total       0.73491     1.23923    -0.60243     0.10595    -0.00064    -0.00080
  in kB       0.01840     0.03102    -0.01508     0.00265    -0.00002    -0.00002
  external pressure =        0.01 kB  Pullay stress =        0.00 kB


 VOLUME and BASIS-vectors are now :
 -----------------------------------------------------------------------------
  energy-cutoff  :      500.00
  volume of cell :    64000.00
      direct lattice vectors                 reciprocal lattice vectors
    40.000000000  0.000000000  0.000000000     0.025000000  0.000000000  0.000000000
     0.000000000 40.000000000  0.000000000     0.000000000  0.025000000  0.000000000
     0.000000000  0.000000000 40.000000000     0.000000000  0.000000000  0.025000000

  length of vectors
    40.000000000 40.000000000 40.000000000     0.025000000  0.025000000  0.025000000


 FORCES acting on ions
    electron-ion (+dipol)            ewald-force                    non-local-force                 convergence-correction
 -----------------------------------------------------------------------------------------------
   -.110E+03 0.157E+03 -.228E-01   0.111E+03 -.159E+03 0.228E-01   -.107E+01 0.214E+01 -.272E-03   -.131E-03 0.119E-02 0.289E-05
   -.852E+02 -.192E+02 -.145E-01   0.849E+02 0.192E+02 0.143E-01   0.197E-01 0.835E-02 0.450E-03   -.140E-02 -.776E-03 -.178E-04
   -.500E+02 -.172E+03 -.128E-01   0.497E+02 0.174E+03 0.134E-01   -.182E-01 -.232E+01 -.661E-03   -.166E-02 -.736E-03 -.199E-05
   0.659E+02 -.851E+02 0.171E-01   -.670E+02 0.868E+02 -.172E-01   0.884E+00 -.152E+01 0.458E-03   0.192E-02 0.271E-03 0.345E-04
   0.887E+02 0.631E+02 0.737E-02   -.898E+02 -.634E+02 -.735E-02   0.101E+01 0.367E+00 0.279E-03   0.167E-02 0.181E-02 0.324E-04
   0.242E+02 0.203E+03 -.248E-01   -.248E+02 -.205E+03 0.252E-01   0.454E+00 0.244E+01 -.406E-03   0.163E-02 0.170E-02 0.249E-04
   0.183E+03 0.882E+02 0.743E-02   -.185E+03 -.898E+02 -.750E-02   0.168E+01 0.139E+01 0.503E-04   0.104E-02 0.409E-03 0.354E-04
   0.127E+03 -.156E+03 0.122E-01   -.128E+03 0.159E+03 -.130E-01   0.982E+00 -.170E+01 0.429E-03   0.250E-02 -.122E-02 0.486E-04
   -.123E+03 -.105E+03 -.215E-01   0.123E+03 0.107E+03 0.223E-01   -.383E+00 -.199E+01 -.654E-03   -.103E-02 0.653E-03 -.240E-04
   -.194E+03 0.508E+02 0.471E-01   0.196E+03 -.518E+02 -.472E-01   -.195E+01 0.119E+01 0.708E-03   -.273E-03 0.477E-03 -.165E-04
   0.144E+02 0.891E+02 -.832E-02   -.159E+02 -.947E+02 0.878E-02   0.147E+01 0.579E+01 -.457E-03   0.126E-03 0.618E-04 0.471E-05
   0.366E+02 0.751E+02 -.411E-02   -.375E+02 -.808E+02 0.452E-02   0.663E+00 0.571E+01 -.485E-03   0.527E-04 -.263E-03 0.506E-05
   0.608E+02 -.581E+01 0.550E+02   -.636E+02 0.771E+01 -.593E+02   0.271E+01 -.202E+01 0.437E+01   0.710E-04 0.141E-03 -.229E-03
   0.608E+02 -.582E+01 -.550E+02   -.636E+02 0.772E+01 0.593E+02   0.271E+01 -.202E+01 -.437E+01   0.757E-04 0.143E-03 0.237E-03
   0.570E+02 -.227E+02 -.553E+02   -.603E+02 0.225E+02 0.597E+02   0.331E+01 0.440E+00 -.444E+01   0.304E-03 -.126E-03 0.772E-04
   0.570E+02 -.227E+02 0.553E+02   -.603E+02 0.224E+02 -.597E+02   0.331E+01 0.441E+00 0.444E+01   0.301E-03 -.123E-03 -.659E-04
   -.156E+01 -.829E+02 0.927E-02   0.346E+01 0.883E+02 -.990E-02   -.215E+01 -.528E+01 0.625E-03   0.444E-03 -.165E-03 0.710E-05
   -.217E+02 -.868E+02 0.178E-02   0.230E+02 0.924E+02 -.198E-02   -.148E+01 -.576E+01 0.290E-03   -.175E-03 -.343E-03 -.170E-05
   -.337E+02 0.652E+02 0.243E-01   0.336E+02 -.709E+02 -.261E-01   0.204E+00 0.602E+01 0.162E-02   -.769E-04 -.131E-03 -.222E-05
   -.762E+02 -.193E+02 0.343E-02   0.817E+02 0.217E+02 -.351E-02   -.554E+01 -.245E+01 -.115E-03   0.220E-03 0.221E-03 -.199E-05
   -.336E+02 -.768E+02 -.189E-01   0.344E+02 0.825E+02 0.202E-01   -.851E+00 -.592E+01 -.149E-02   -.140E-03 0.109E-03 -.391E-05
   -.510E+02 0.710E+02 -.969E-02   0.550E+02 -.751E+02 0.103E-01   -.420E+01 0.431E+01 -.434E-03   -.278E-03 0.353E-03 -.446E-06
 -----------------------------------------------------------------------------------------------
   -.178E+01 0.779E+00 0.167E-02   0.185E-12 -.568E-13 0.229E-14   0.177E+01 -.762E+00 -.386E-04   0.519E-02 0.367E-02 0.145E-03
 
 
 POSITION                                       TOTAL-FORCE (eV/Angst)
 -----------------------------------------------------------------------------------
     21.08147     18.72802     20.00022        -0.000861     -0.002662     -0.000416
     21.43726     20.11913     20.00014        -0.000081      0.011803      0.000150
     20.39882     21.08976     20.00010         0.014906      0.006259     -0.000149
     19.06368     20.73657     19.99999        -0.016056      0.010022      0.000315
     18.72365     19.33571     20.00004         0.008209     -0.010994      0.000231
     19.75776     18.36303     20.00022        -0.005377     -0.003881     -0.000158
     17.30409     18.91119     19.99998        -0.008907      0.000393     -0.000050
     17.99192     21.77785     19.99992        -0.012768      0.003864     -0.000275
     22.79140     20.57532     20.00007         0.008288     -0.006661      0.000178
     23.90382     19.77422     19.99967        -0.006351     -0.006742      0.000609
     19.48253     17.30901     20.00030        -0.000337      0.002232     -0.000072
     17.19619     17.82291     20.00008         0.011154     -0.001159     -0.000123
     16.77726     19.32708     19.12534         0.004063      0.004810     -0.003296
     16.77715     19.32722     20.87449         0.004098      0.004823      0.003039
     17.34127     21.67389     20.88078         0.001431     -0.009790      0.001482
     17.34120     21.67371     19.11909         0.002012     -0.009607     -0.000772
     18.42041     22.78497     19.99980         0.003065      0.001376     -0.000064
     20.67668     22.14398     20.00005         0.000185      0.009962      0.000018
     23.84731     18.68706     19.99938        -0.008665     -0.009305     -0.000183
     24.89693     20.21967     19.99969        -0.006466     -0.002391     -0.000217
     22.93507     21.65755     20.00034         0.000129      0.005119     -0.000237
     21.85410     17.96219     20.00030         0.008329      0.002528     -0.000009
 -----------------------------------------------------------------------------------
    total drift:                               -0.003479      0.019944      0.001773


--------------------------------------------------------------------------------------------------------



  FREE ENERGIE OF THE ION-ELECTRON SYSTEM (eV)
  ---------------------------------------------------
  free  energy   TOTEN  =      -128.70898558 eV

  energy  without entropy=     -128.70898558  energy(sigma->0) =     -128.70898558
 
 d Force = 0.5290906E-04[ 0.277E-04, 0.781E-04]  d Energy = 0.2476619E-04 0.281E-04
 d Force =-0.3830537E+00[-0.383E+00,-0.383E+00]  d Ewald  =-0.3830537E+00-0.705E-08


--------------------------------------------------------------------------------------------------------


    POTLOK:  cpu time    342.8636: real time    342.8661


--------------------------------------------------------------------------------------------------------


 Conjugate gradient step on ions:
 trial-energy change:   -0.000025  1 .order   -0.000053   -0.000078   -0.000028
  (g-gl).g = 0.139E-03      g.g   = 0.152E-03  gl.gl    = 0.251E-03
 g(Force)  = 0.152E-03   g(Stress)= 0.000E+00 ortho     = 0.212E-05
 gamma     =   0.55146
 trial     =   0.51043
 opt step  =   0.79180  (harmonic =   0.79180) maximal distance =0.00104338
 next E    =  -128.709021   (d E  =  -0.00006)


--------------------------------------------------------------------------------------------------------


  
 reached required accuracy - stopping structural energy minimisation
 writing wavefunctions
     LOOP+:  cpu time   2057.8937: real time   2059.3637
    4ORBIT:  cpu time      0.0000: real time      0.0000

 total amount of memory used by VASP MPI-rank0   523068. kBytes
=======================================================================

   base      :      30000. kBytes
   nonlr-proj:       1267. kBytes
   fftplans  :     131430. kBytes
   grid      :     332629. kBytes
   one-center:         12. kBytes
   wavefun   :      27730. kBytes
 
  
  
 General timing and accounting informations for this job:
 ========================================================
  
                  Total CPU time used (sec):    33003.512
                            User time (sec):    13809.407
                          System time (sec):    19194.105
                         Elapsed time (sec):    33006.830
  
                   Maximum memory used (kb):     1604280.
                   Average memory used (kb):          N/A
  
                          Minor page faults:     72618371
                          Major page faults:            0
                 Voluntary context switches:         8043
