
                                 *****************
                                 * O   R   C   A *
                                 *****************

                                            #,                                       
                                            ###                                      
                                            ####                                     
                                            #####                                    
                                            ######                                   
                                           ########,                                 
                                     ,,################,,,,,                         
                               ,,#################################,,                 
                          ,,##########################################,,             
                       ,#########################################, ''#####,          
                    ,#############################################,,   '####,        
                  ,##################################################,,,,####,       
                ,###########''''           ''''###############################       
              ,#####''   ,,,,##########,,,,          '''####'''          '####       
            ,##' ,,,,###########################,,,                        '##       
           ' ,,###''''                  '''############,,,                           
         ,,##''                                '''############,,,,        ,,,,,,###''
      ,#''                                            '''#######################'''  
     '                                                          ''''####''''         
             ,#######,   #######,   ,#######,      ##                                
            ,#'     '#,  ##    ##  ,#'     '#,    #''#        ,####,   ,####,        
            ##       ##  ##   ,#'  ##            #'  '#       #'       #'  '#        
            ##       ##  #######   ##           ,######,      #####,   #    #        
            '#,     ,#'  ##    ##  '#,     ,#' ,#      #,     #,   #   #,  ,#        
             '#######'   ##     ##  '#######'  #'      '#     '####' # '####'        



                #########################################################
                #                        -***-                          #
                #          Department of theory and spectroscopy        #
                #                                                       #
                #                      Frank Neese                      #
                #                                                       #
                #     Directorship, Architecture, Infrastructure        #
                #                    SHARK, DRIVERS                     #
                #        Core code/Algorithms in most modules           #
                #                                                       #
                #        Max Planck Institute fuer Kohlenforschung      #
                #                Kaiser Wilhelm Platz 1                 #
                #                 D-45470 Muelheim/Ruhr                 #
                #                      Germany                          #
                #                                                       #
                #                  All rights reserved                  #
                #                        -***-                          #
                #########################################################


                         Program Version 6.0.0  -   RELEASE  -


 With contributions from (in alphabetic order):
   Daniel Aravena         : Magnetic Suceptibility
   Michael Atanasov       : Ab Initio Ligand Field Theory (pilot matlab implementation)
   Alexander A. Auer      : GIAO ZORA, VPT2 properties, NMR spectrum
   Ute Becker             : All parallelization in ORCA, NUMFREQ, NUMCALC
   Giovanni Bistoni       : ED, misc. LED, open-shell LED, HFLD
   Martin Brehm           : Molecular dynamics
   Dmytro Bykov           : pre 5.0 version of the SCF Hessian
   Marcos Casanova-Páez   : Triplet and SCS-CIS(D). UHF-(DLPNO)-IP/EA/STEOM-CCSD. UHF-CVS-IP/STEOM-CCSD
   Vijay G. Chilkuri      : MRCI spin determinant printing, contributions to CSF-ICE
   Pauline Colinet        : FMM embedding
   Dipayan Datta          : RHF DLPNO-CCSD density
   Achintya Kumar Dutta   : EOM-CC, STEOM-CC
   Nicolas Foglia         : Exact transition moments, OPA infrastructure, MCD improvements
   Dmitry Ganyushin       : Spin-Orbit,Spin-Spin,Magnetic field MRCI
   Miquel Garcia          : C-PCM and meta-GGA Hessian, CCSD/C-PCM, Gaussian charge scheme
   Tiago L. C. Gouveia    : GS-ROHF, GS-ROCIS
   Yang Guo               : DLPNO-NEVPT2, F12-NEVPT2, CIM, IAO-localization
   Andreas Hansen         : Spin unrestricted coupled pair/coupled cluster methods
   Ingolf Harden          : AUTO-CI MPn and infrastructure 
   Benjamin Helmich-Paris : MC-RPA, TRAH-(SCF,CASSCF), AVAS, COSX integrals, SCF dyn. polar.
   Lee Huntington         : MR-EOM, pCC
   Robert Izsak           : Overlap fitted RIJCOSX, COSX-SCS-MP3, EOM
   Riya Kayal             : Wick's Theorem for AUTO-CI, AUTO-CI UHF-CCSDT
   Emily Kempfer          : AUTO-CI, RHF CISDT and CCSDT
   Christian Kollmar      : KDIIS, OOCD, Brueckner-CCSD(T), CCSD density, CASPT2, CASPT2-K, improved NEVPT2
   Axel Koslowski         : Symmetry handling
   Simone Kossmann        : Meta GGA functionals, TD-DFT gradient, OOMP2, (MP2 Hessian; deprecated post 5.0)
   Lucas Lang             : DCDCAS
   Marvin Lechner         : AUTO-CI (C++ implementation), FIC-MRCC
   Spencer Leger          : CASSCF response
   Dagmar Lenk            : GEPOL surface, SMD, ORCA-2-JSON
   Dimitrios Liakos       : Extrapolation schemes; Compound Job, initial MDCI parallelization
   Dimitrios Manganas     : Further ROCIS development; embedding schemes. LFT, Crystal Embedding
   Dimitrios Pantazis     : SARC Basis sets
   Anastasios Papadopoulos: AUTO-CI, single reference methods and gradients
   Taras Petrenko         : pre 6.0 DFT Hessian and TD-DFT gradient, (ASA, deprecated), ECA, 1-Electron XAS/XES, NRVS
   Peter Pinski           : DLPNO-MP2, DLPNO-MP2 Gradient
   Christoph Reimann      : Effective Core Potentials
   Marius Retegan         : Local ZFS, SOC
   Christoph Riplinger    : Optimizer, TS searches, QM/MM, DLPNO-CCSD(T), (RO)-DLPNO pert. Triples
   Michael Roemelt        : Original ROCIS implementation
   Masaaki Saitow         : Open-shell DLPNO-CCSD energy and density
   Barbara Sandhoefer     : DKH picture change effects
   Kantharuban Sivalingam : CASSCF convergence/infrastructure, NEVPT2 and variants, FIC-MRCI
   Bernardo de Souza      : ESD, SOC TD-DFT
   Georgi Stoychev        : AutoAux, RI-MP2 NMR, DLPNO-MP2 response, X2C
   Van Anh Tran           : RI-MP2 g-tensors
   Willem Van den Heuvel  : Paramagnetic NMR
   Zikuan Wang            : NOTCH, Electric field optimization 
   Frank Wennmohs         : Technical directorship and infrastructure
   Hang Xu                : AUTO-CI-Response properties 


 We gratefully acknowledge several colleagues who have allowed us to
 interface, adapt or use parts of their codes:
   Stefan Grimme, W. Hujo, H. Kruse, P. Pracht,  : VdW corrections, initial TS optimization,
                  C. Bannwarth, S. Ehlert,         DFT functionals, gCP, sTDA/sTD-DF
                  L. Wittmann, M. Mueller
   Ed Valeev, F. Pavosevic, A. Kumar             : LibInt (2-el integral package), F12 methods
   Garnet Chan, S. Sharma, J. Yang, R. Olivares  : DMRG
   Ulf Ekstrom                                   : XCFun DFT Library
   Mihaly Kallay                                 : mrcc  (arbitrary order and MRCC methods)
   Frank Weinhold                                : gennbo (NPA and NBO analysis)
   Simon Mueller                                 : openCOSMO-RS
   Christopher J. Cramer and Donald G. Truhlar   : smd solvation model
   Lars Goerigk                                  : TD-DFT with DH, B97 family of functionals
   V. Asgeirsson, H. Jonsson                     : NEB implementation
   FAccTs GmbH                                   : IRC, NEB, NEB-TS, DLPNO-Multilevel, CI-OPT
                                                   MM, QMMM, 2- and 3-layer-ONIOM, Crystal-QMMM,
                                                   LR-CPCM, SF, NACMEs, symmetry and pop. for TD-DFT,
                                                   nearIR, NL-DFT gradient (VV10), updates on ESD,
                                                   ML-optimized integration grids, MBIS, APM,
                                                   GOAT, DOCKER, SOLVATOR, interface openCOSMO-RS
   S Lehtola, MJT Oliveira, MAL Marques          : LibXC Library
   Liviu Ungur et al                             : ANISO software


 Your calculation uses the libint2 library for the computation of 2-el integrals
 For citations please refer to: http://libint.valeyev.net

 Your ORCA version has been built with support for libXC version: 6.2.2
 For citations please refer to: https://libxc.gitlab.io

 This ORCA versions uses:
   CBLAS   interface :  Fast vector & matrix operations
   LAPACKE interface :  Fast linear algebra routines
   SCALAPACK package :  Parallel linear algebra routines
   Shared memory     :  Shared parallel matrices
   BLAS/LAPACK       :  OpenBLAS 0.3.27  USE64BITINT DYNAMIC_ARCH NO_AFFINITY SkylakeX SINGLE_THREADED
        Core in use  :  SkylakeX
   Copyright (c) 2011-2014, The OpenBLAS Project


NOTE: MaxCore=3000 MB was set to SCF,MP2,MDCI,CIPSI,MRCI and CIS
      => If you want to overwrite this, your respective input block should be placed after the MaxCore statement
Your calculation utilizes the atom-pairwise dispersion correction
with the Becke-Johnson damping scheme (D3BJ)


Your calculation utilizes the SMD solvation module
Please cite in your paper:
A.V. Marenich, C.J. Cramer, D.G. Truhlar J. Phys. Chem. B, 113, (2009), 6378 

Warning: RI is on but no J-basis has been assigned. Assigning Def2/J (nothing to worry about!)
================================================================================

----- Orbital basis set information -----
Your calculation utilizes the basis: aug-cc-pVTZ 
    H, B-Ne : Obtained from the ccRepo (grant-hill.group.shef.ac.uk/ccrepo) Feb. 2017
              R. A. Kendall, T. H. Dunning, Jr., R. J. Harrison, J. Chem. Phys. 96, 6796 (1992)
         He : Obtained from the ccRepo (grant-hill.group.shef.ac.uk/ccrepo) Feb. 2017
              D. E. Woon, T. H. Dunning, Jr., J. Chem. Phys. 100, 2975 (1994)
  Li-Be, Na : Obtained from the ccRepo (grant-hill.group.shef.ac.uk/ccrepo) Feb. 2017
              B. P. Prascher, D. E. Woon, K. A. Peterson, T. H. Dunning, Jr., A. K. Wilson, Theor. Chem. Acc. 128, 69 (2011)
         Mg : Obtained from the Peterson Research Group Website (tyr0.chem.wsu.edu/~kipeters) Feb. 2017
              B. P. Prascher, D. E. Woon, K. A. Peterson, T. H. Dunning, Jr., A. K. Wilson, Theor. Chem. Acc. 128, 69 (2011)
      Al-Ar : Obtained from the ccRepo (grant-hill.group.shef.ac.uk/ccrepo) Feb. 2017
              D. E. Woon, T. H. Dunning, Jr., J. Chem. Phys. 98, 1358 (1993)
      Sc-Zn : Obtained from the ccRepo (grant-hill.group.shef.ac.uk/ccrepo) Feb. 2017
              N. B. Balabanov, K. A. Peterson, J. Chem. Phys. 123, 064107 (2005)
              N. B. Balabanov, K. A. Peterson, J. Chem. Phys. 125, 074110 (2006)
      Ga-Kr : Obtained from the ccRepo (grant-hill.group.shef.ac.uk/ccrepo) Feb. 2017
              A. K. Wilson, D. E. Woon, K. A. Peterson, T. H. Dunning, Jr., J. Chem. Phys. 110, 7667 (1999)
     Ag, Au : Obtained from the Peterson Research Group Website (tyr0.chem.wsu.edu/~kipeters) Feb. 2017
              K. A. Peterson, C. Puzzarini, Theor. Chem. Acc. 114, 283 (2005)

----- AuxJ basis set information -----
Your calculation utilizes the auxiliary basis: def2/J
   F. Weigend, Phys. Chem. Chem. Phys. 8, 1057 (2006).

================================================================================
                                        WARNINGS
                       Please study these warnings very carefully!
================================================================================

Using LibXC functional ID 497 : Re-regularized SCAN exchange by Furness et al
[ 1]  J. W. Furness, A. D. Kaplan, J. Ning, J. P. Perdew, and J. Sun.,  J. Phys. Chem. Lett. 11, 8208-8215 (2020)
[ 2]  J. W. Furness, A. D. Kaplan, J. Ning, J. P. Perdew, and J. Sun.,  J. Phys. Chem. Lett. 11, 9248-9248 (2020)
Using LibXC functional ID 498 : Re-regularized SCAN correlation by Furness et al
[ 1]  J. W. Furness, A. D. Kaplan, J. Ning, J. P. Perdew, and J. Sun.,  J. Phys. Chem. Lett. 11, 8208-8215 (2020)
[ 2]  J. W. Furness, A. D. Kaplan, J. Ning, J. P. Perdew, and J. Sun.,  J. Phys. Chem. Lett. 11, 9248-9248 (2020)
Using LibXC functional ID 497 : Re-regularized SCAN exchange by Furness et al
[ 1]  J. W. Furness, A. D. Kaplan, J. Ning, J. P. Perdew, and J. Sun.,  J. Phys. Chem. Lett. 11, 8208-8215 (2020)
[ 2]  J. W. Furness, A. D. Kaplan, J. Ning, J. P. Perdew, and J. Sun.,  J. Phys. Chem. Lett. 11, 9248-9248 (2020)
Using LibXC functional ID 498 : Re-regularized SCAN correlation by Furness et al
[ 1]  J. W. Furness, A. D. Kaplan, J. Ning, J. P. Perdew, and J. Sun.,  J. Phys. Chem. Lett. 11, 8208-8215 (2020)
[ 2]  J. W. Furness, A. D. Kaplan, J. Ning, J. P. Perdew, and J. Sun.,  J. Phys. Chem. Lett. 11, 9248-9248 (2020)

WARNING: your system is open-shell and RHF/RKS was chosen
  ===> : WILL SWITCH to UHF/UKS


================================================================================
                                       INPUT FILE
================================================================================
NAME = cs_rporg_140_ox_solv_04.inp
|  1> !r2SCANh aug-cc-pVTZ d3 TightSCF SlowConv RIJCOSX defgrid2
|  2>  
|  3> %pal
|  4> nprocs 4
|  5> end
|  6>  
|  7> %scf
|  8> MaxIter 1500
|  9> end
| 10>  
| 11> %maxcore 3000
| 12>  
| 13> !CPCM
| 14> %cpcm smd true
| 15> SMDsolvent "MeCN"
| 16> surfacetype gepol_ses
| 17> rsolv 2.19
| 18> end 
| 19>  
| 20> * xyz 1 2
| 21> C           0.96002552011709     -1.32253975774944      0.00002107203161
| 22> C           2.30946577689281     -1.05292578484351     -0.00001183018851
| 23> C           2.75162476164071      0.28756052755572     -0.00002650301661
| 24> C           1.83902538005307      1.36187223575537     -0.00000118304244
| 25> C           0.48711647576379      1.10797066538425      0.00002893131122
| 26> C           0.02041417697925     -0.24724272024865      0.00003631726405
| 27> C          -1.36049677571781     -0.55035510408661      0.00004151636512
| 28> N          -2.24435922885682      0.43165315940707      0.00003462017491
| 29> O          -3.46568256477989     -0.02410885729296      0.00002059528734
| 30> H          -4.06414072403569      0.75247060999126      0.00003013023410
| 31> H          -1.71241527206750     -1.59215357045924      0.00004127844656
| 32> H          -0.24324441524782      1.92013568517355      0.00004228420146
| 33> H           2.20910910746605      2.39016696582870     -0.00001172730682
| 34> H           3.82614866589464      0.49606739820897     -0.00005739041351
| 35> H           3.03863533465800     -1.86708723654366     -0.00002808352063
| 36> H           0.59646668124012     -2.35410821608081      0.00003057217215
| 37> *
| 38> 
| 39>                          ****END OF INPUT****
================================================================================

                       ****************************
                       * Single Point Calculation *
                       ****************************

---------------------------------
CARTESIAN COORDINATES (ANGSTROEM)
---------------------------------
  C      0.960026   -1.322540    0.000021
  C      2.309466   -1.052926   -0.000012
  C      2.751625    0.287561   -0.000027
  C      1.839025    1.361872   -0.000001
  C      0.487116    1.107971    0.000029
  C      0.020414   -0.247243    0.000036
  C     -1.360497   -0.550355    0.000042
  N     -2.244359    0.431653    0.000035
  O     -3.465683   -0.024109    0.000021
  H     -4.064141    0.752471    0.000030
  H     -1.712415   -1.592154    0.000041
  H     -0.243244    1.920136    0.000042
  H      2.209109    2.390167   -0.000012
  H      3.826149    0.496067   -0.000057
  H      3.038635   -1.867087   -0.000028
  H      0.596467   -2.354108    0.000031

----------------------------
CARTESIAN COORDINATES (A.U.)
----------------------------
  NO LB      ZA    FRAG     MASS         X           Y           Z
   0 C     6.0000    0    12.011    1.814185   -2.499238    0.000040
   1 C     6.0000    0    12.011    4.364258   -1.989741   -0.000022
   2 C     6.0000    0    12.011    5.199817    0.543411   -0.000050
   3 C     6.0000    0    12.011    3.475254    2.573566   -0.000002
   4 C     6.0000    0    12.011    0.920517    2.093761    0.000055
   5 C     6.0000    0    12.011    0.038577   -0.467221    0.000069
   6 C     6.0000    0    12.011   -2.570966   -1.040020    0.000078
   7 N     7.0000    0    14.007   -4.241224    0.815706    0.000065
   8 O     8.0000    0    15.999   -6.549191   -0.045559    0.000039
   9 H     1.0000    0     1.008   -7.680113    1.421963    0.000057
  10 H     1.0000    0     1.008   -3.235996   -3.008734    0.000078
  11 H     1.0000    0     1.008   -0.459665    3.628531    0.000080
  12 H     1.0000    0     1.008    4.174611    4.516761   -0.000022
  13 H     1.0000    0     1.008    7.230373    0.937432   -0.000108
  14 H     1.0000    0     1.008    5.742189   -3.528284   -0.000053
  15 H     1.0000    0     1.008    1.127159   -4.448620    0.000058

--------------------------------
INTERNAL COORDINATES (ANGSTROEM)
--------------------------------
 C      0   0   0     0.000000000000     0.00000000     0.00000000
 C      1   0   0     1.376110715777     0.00000000     0.00000000
 C      2   1   0     1.411526876024   119.55386539     0.00000000
 C      3   2   1     1.409603943769   121.39785647     0.00000000
 C      4   3   2     1.375544871620   119.71022596     0.00000000
 C      1   2   3     1.427982211109   119.84872596     0.00000000
 C      6   1   2     1.413786467803   118.76728200   179.99867611
 N      7   6   1     1.321193803227   119.60879939   180.00104586
 O      8   7   6     1.303591081181   111.52488792   179.99904301
 H      9   8   7     0.980422275083   107.15495314   179.99914819
 H      7   6   1     1.099632062378   121.04510426     0.00000000
 H      5   4   3     1.092263269852   121.32750606   180.00041267
 H      4   3   2     1.092864134878   119.85915294   179.99990233
 H      3   2   1     1.094566917496   119.23665456   180.00028239
 H      2   1   3     1.092953390438   120.54913852   180.00008876
 H      1   2   3     1.093758891914   120.71288565   179.99985713

---------------------------
INTERNAL COORDINATES (A.U.)
---------------------------
 C      0   0   0     0.000000000000     0.00000000     0.00000000
 C      1   0   0     2.600472382772     0.00000000     0.00000000
 C      2   1   0     2.667399226355   119.55386539     0.00000000
 C      3   2   1     2.663765411019   121.39785647     0.00000000
 C      4   3   2     2.599403092282   119.71022596     0.00000000
 C      1   2   3     2.698495303107   119.84872596     0.00000000
 C      6   1   2     2.671669235991   118.76728200   179.99867611
 N      7   6   1     2.496694457934   119.60879939   180.00104586
 O      8   7   6     2.463430134054   111.52488792   179.99904301
 H      9   8   7     1.852729595502   107.15495314   179.99914819
 H      7   6   1     2.078003445973   121.04510426     0.00000000
 H      5   4   3     2.064078446161   121.32750606   180.00041267
 H      4   3   2     2.065213916505   119.85915294   179.99990233
 H      3   2   1     2.068431709318   119.23665456   180.00028239
 H      2   1   3     2.065382585069   120.54913852   180.00008876
 H      1   2   3     2.066904762258   120.71288565   179.99985713

---------------------
BASIS SET INFORMATION
---------------------
There are 4 groups of distinct atoms

 Group   1 Type C   : 19s6p3d2f contracted to 5s4p3d2f pattern {88111/3111/111/11}
 Group   2 Type N   : 19s6p3d2f contracted to 5s4p3d2f pattern {88111/3111/111/11}
 Group   3 Type O   : 19s6p3d2f contracted to 5s4p3d2f pattern {88111/3111/111/11}
 Group   4 Type H   : 6s3p2d contracted to 4s3p2d pattern {3111/111/11}

Atom   0C    basis set group =>   1
Atom   1C    basis set group =>   1
Atom   2C    basis set group =>   1
Atom   3C    basis set group =>   1
Atom   4C    basis set group =>   1
Atom   5C    basis set group =>   1
Atom   6C    basis set group =>   1
Atom   7N    basis set group =>   2
Atom   8O    basis set group =>   3
Atom   9H    basis set group =>   4
Atom  10H    basis set group =>   4
Atom  11H    basis set group =>   4
Atom  12H    basis set group =>   4
Atom  13H    basis set group =>   4
Atom  14H    basis set group =>   4
Atom  15H    basis set group =>   4
---------------------------------
AUXILIARY/J BASIS SET INFORMATION
---------------------------------
There are 4 groups of distinct atoms

 Group   1 Type C   : 12s5p4d2f1g contracted to 6s4p3d1f1g pattern {711111/2111/211/2/1}
 Group   2 Type N   : 12s5p4d2f1g contracted to 6s4p3d1f1g pattern {711111/2111/211/2/1}
 Group   3 Type O   : 12s5p4d2f1g contracted to 6s4p3d1f1g pattern {711111/2111/211/2/1}
 Group   4 Type H   : 5s2p1d contracted to 3s1p1d pattern {311/2/1}

Atom   0C    basis set group =>   1
Atom   1C    basis set group =>   1
Atom   2C    basis set group =>   1
Atom   3C    basis set group =>   1
Atom   4C    basis set group =>   1
Atom   5C    basis set group =>   1
Atom   6C    basis set group =>   1
Atom   7N    basis set group =>   2
Atom   8O    basis set group =>   3
Atom   9H    basis set group =>   4
Atom  10H    basis set group =>   4
Atom  11H    basis set group =>   4
Atom  12H    basis set group =>   4
Atom  13H    basis set group =>   4
Atom  14H    basis set group =>   4
Atom  15H    basis set group =>   4


           ************************************************************
           *        Program running with 4 parallel MPI-processes     *
           *              working on a common directory               *
           ************************************************************
------------------------------------------------------------------------------
                             ORCA STARTUP CALCULATIONS
                           -- RI-GTO INTEGRALS CHOSEN --
------------------------------------------------------------------------------
------------------------------------------------------------------------------
                   ___                                                        
                  /   \      - P O W E R E D   B Y -                         
                 /     \                                                     
                 |  |  |   _    _      __       _____    __    __             
                 |  |  |  | |  | |    /  \     |  _  \  |  |  /  |          
                  \  \/   | |  | |   /    \    | | | |  |  | /  /          
                 / \  \   | |__| |  /  /\  \   | |_| |  |  |/  /          
                |  |  |   |  __  | /  /__\  \  |    /   |      \           
                |  |  |   | |  | | |   __   |  |    \   |  |\   \          
                \     /   | |  | | |  |  |  |  | |\  \  |  | \   \       
                 \___/    |_|  |_| |__|  |__|  |_| \__\ |__|  \__/        
                                                                              
                      - O R C A' S   B I G   F R I E N D -                    
                                      &                                       
                       - I N T E G R A L  F E E D E R -                       
                                                                              
 v1 FN, 2020, v2 2021, v3 2022-2024                                           
------------------------------------------------------------------------------


----------------------
SHARK INTEGRAL PACKAGE
----------------------

Number of atoms                             ...     16
Number of basis functions                   ...    629
Number of shells                            ...    243
Maximum angular momentum                    ...      3
Integral batch strategy                     ... SHARK/LIBINT Hybrid
RI-J (if used) integral strategy            ... SPLIT-RIJ (Revised 2003 algorithm where possible)
Printlevel                                  ...      1
Contraction scheme used                     ... PARTIAL GENERAL contraction
Prescreening option                         ... SCHWARTZ
   Thresh                                   ... 2.500e-11
   Tcut                                     ... 2.500e-12
   Tpresel                                  ... 2.500e-12 
Coulomb Range Separation                    ... NOT USED
Exchange Range Separation                   ... NOT USED
Multipole approximations                    ... NOT USED
Finite Nucleus Model                        ... NOT USED
CABS basis                                  ... NOT available
Auxiliary Coulomb fitting basis             ... AVAILABLE
   # of basis functions in Aux-J            ...    518
   # of shells in Aux-J                     ...    170
   Maximum angular momentum in Aux-J        ...      4
Auxiliary J/K fitting basis                 ... NOT available
Auxiliary Correlation fitting basis         ... NOT available
Auxiliary 'external' fitting basis          ... NOT available

Checking pre-screening integrals            ... done (  0.0 sec) Dimension = 243
Save PGC pre-screening integrals            ... done (  0.1 sec) Dimension = 243
Calculate PGC overlap integrals             ... done (  0.2 sec) Dimension = 189
Calculating pre-screening integrals (ORCA)  ... done (  0.3 sec) Dimension = 189
Check shell pair data                       ... done (  0.0 sec)
Shell pair information
Shell pair cut-off parameter TPreSel        ...   2.5e-12
Total number of shell pairs                 ...     29646
Shell pairs after pre-screening             ...     24622
Total number of primitive shell pairs       ...     37998
Primitive shell pairs kept                  ...     29444
          la=0 lb=0:   5621 shell pairs
          la=1 lb=0:   6255 shell pairs
          la=1 lb=1:   1550 shell pairs
          la=2 lb=0:   4410 shell pairs
          la=2 lb=1:   2169 shell pairs
          la=2 lb=2:    798 shell pairs
          la=3 lb=0:   1993 shell pairs
          la=3 lb=1:    966 shell pairs
          la=3 lb=2:    697 shell pairs
          la=3 lb=3:    163 shell pairs

Calculating one electron integrals          ... done (  0.0 sec)
Calculating RI/J V-Matrix + Cholesky decomp.... done (  0.1 sec)
Calculating Nuclear repulsion               ... done (  0.0 sec) ENN=    394.410912793274 Eh

Diagonalization of the overlap matrix:
Smallest eigenvalue                        ... 6.444e-07
Time for diagonalization                   ...    0.048 sec
Threshold for overlap eigenvalues          ... 1.000e-07
Number of eigenvalues below threshold      ... 0

IMPORTANT:
Smallest eigenvalue of S below the DiffSThresh (1.000e-06) while
Thresh>1e-12 and/or TCut>1e-13! In order to avoid SCF convergence issues,
Thresh will be set to at least 1e-12 and TCut to at least 1e-13.
This can be turned off by adding %SCF DiffSThresh -1 END to the input.

Time for construction of square roots      ...    0.102 sec
Total time needed                          ...    0.201 sec

-------------------
DFT GRID GENERATION
-------------------

General Integration Accuracy     IntAcc      ... 4.388
Radial Grid Type                 RadialGrid  ... OptM3 with GC (2021)
Angular Grid (max. ang.)         AngularGrid ... 4 (Lebedev-302)
Angular grid pruning method      GridPruning ... 4 (adaptive)
Weight generation scheme         WeightScheme... mBecke (2022)
Basis function cutoff            BFCut       ... 1.0000e-11
Integration weight cutoff        WCut        ... 1.0000e-14
Partially contracted basis set               ... off
Rotationally invariant grid construction     ... off
Angular grids for H and He will be reduced by one unit
Diffuse basis detected: some atoms will have their outermost
                        angular grid increased by 1.

Total number of grid points                  ...    80625
Total number of batches                      ...     1270
Average number of points per batch           ...       63
Average number of grid points per atom       ...     5039

---------------------
SHARK GRID GENERATION
---------------------

General Integration Accuracy     IntAcc      ... 4.388
Radial Grid Type                 RadialGrid  ... OptM3 with GC (2021)
Angular Grid (max. ang.)         AngularGrid ... 4 (Lebedev-302)
Angular grid pruning method      GridPruning ... 4 (adaptive)
Weight generation scheme         WeightScheme... mBecke (2022)
Basis function cutoff            BFCut       ... 1.0000e-11
Integration weight cutoff        WCut        ... 1.0000e-14
Partially contracted basis set               ... off
Rotationally invariant grid construction     ... off
Angular grids for H and He will be reduced by one unit
Diffuse basis detected: some atoms will have their outermost
                        angular grid increased by 1.
Steep s-basis detected: some atoms will have their radial
                        grid points doubled.

Total number of grid points                  ...   137729
Total number of batches                      ...     2162
Average number of points per batch           ...       63
Average number of grid points per atom       ...     8608

--------------------
COSX GRID GENERATION
--------------------

GRIDX 1
-------
General Integration Accuracy     IntAcc      ... 3.816
Radial Grid Type                 RadialGrid  ... OptM3 with GC (2021)
Angular Grid (max. ang.)         AngularGrid ... 1 (Lebedev-50)
Angular grid pruning method      GridPruning ... 4 (adaptive)
Weight generation scheme         WeightScheme... mBecke (2022)
Basis function cutoff            BFCut       ... 1.0000e-11
Integration weight cutoff        WCut        ... 1.0000e-14
Partially contracted basis set               ... on
Rotationally invariant grid construction     ... off
Angular grids for H and He will be reduced by one unit
Diffuse basis detected: some atoms will have their outermost
                        angular grid increased by 1.

Total number of grid points                  ...    10128
Total number of batches                      ...       87
Average number of points per batch           ...      116
Average number of grid points per atom       ...      633
UseSFitting                                  ... on

GRIDX 2
-------
General Integration Accuracy     IntAcc      ... 4.020
Radial Grid Type                 RadialGrid  ... OptM3 with GC (2021)
Angular Grid (max. ang.)         AngularGrid ... 2 (Lebedev-110)
Angular grid pruning method      GridPruning ... 4 (adaptive)
Weight generation scheme         WeightScheme... mBecke (2022)
Basis function cutoff            BFCut       ... 1.0000e-11
Integration weight cutoff        WCut        ... 1.0000e-14
Partially contracted basis set               ... on
Rotationally invariant grid construction     ... off
Angular grids for H and He will be reduced by one unit
Diffuse basis detected: some atoms will have their outermost
                        angular grid increased by 1.

Total number of grid points                  ...    25071
Total number of batches                      ...      206
Average number of points per batch           ...      121
Average number of grid points per atom       ...     1567
UseSFitting                                  ... on

GRIDX 3
-------
General Integration Accuracy     IntAcc      ... 4.338
Radial Grid Type                 RadialGrid  ... OptM3 with GC (2021)
Angular Grid (max. ang.)         AngularGrid ... 3 (Lebedev-194)
Angular grid pruning method      GridPruning ... 4 (adaptive)
Weight generation scheme         WeightScheme... mBecke (2022)
Basis function cutoff            BFCut       ... 1.0000e-11
Integration weight cutoff        WCut        ... 1.0000e-14
Partially contracted basis set               ... on
Rotationally invariant grid construction     ... off
Angular grids for H and He will be reduced by one unit
Diffuse basis detected: some atoms will have their outermost
                        angular grid increased by 1.

Total number of grid points                  ...    55481
Total number of batches                      ...      442
Average number of points per batch           ...      125
Average number of grid points per atom       ...     3468
UseSFitting                                  ... on
Initializing property integral containers    ... done (  0.0 sec)

SHARK setup successfully completed in   6.4 seconds

Maximum memory used throughout the entire STARTUP-calculation: 65.3 MB


           ************************************************************
           *        Program running with 4 parallel MPI-processes     *
           *              working on a common directory               *
           ************************************************************
-------------------------------------------------------------------------------
                                 ORCA GUESS
                   Start orbitals & Density for SCF / CASSCF
-------------------------------------------------------------------------------

------------
SCF SETTINGS
------------
Hamiltonian:
 Density Functional     Method          .... DFT(GTOs)
  Functional kind                       .... Exchange
  Functional name                       .... Re-regularized SCAN exchange by Furness et al
  Functional family                     .... MGGA
  Functional refs                              
    [ 0] J. W. Furness, A. D. Kaplan, J. Ning, J. P. Perdew, and J. Sun.,  J. Phys. Chem. Lett. 11, 8208-8215 (2020), doi: 10.1021/acs.jpclett.0c02405
    [ 1] J. W. Furness, A. D. Kaplan, J. Ning, J. P. Perdew, and J. Sun.,  J. Phys. Chem. Lett. 11, 9248-9248 (2020), doi: 10.1021/acs.jpclett.0c03077
  Functional external parameters        .... 6
    Parameter  0 _c1        =  6.670000e-01 : c1 parameter        
    Parameter  1 _c2        =  8.000000e-01 : c2 parameter        
    Parameter  2 _d         =  1.240000e+00 : d parameter         
    Parameter  3 _k1        =  6.500000e-02 : k1 parameter        
    Parameter  4 _eta       =  1.000000e-03 : eta parameter       
    Parameter  5 _dp2       =  3.610000e-01 : dp2 parameter       
  Functional kind                       .... Correlation
  Functional name                       .... Re-regularized SCAN correlation by Furness et al
  Functional family                     .... MGGA
  Functional refs                              
    [ 0] J. W. Furness, A. D. Kaplan, J. Ning, J. P. Perdew, and J. Sun.,  J. Phys. Chem. Lett. 11, 8208-8215 (2020), doi: 10.1021/acs.jpclett.0c02405
    [ 1] J. W. Furness, A. D. Kaplan, J. Ning, J. P. Perdew, and J. Sun.,  J. Phys. Chem. Lett. 11, 9248-9248 (2020), doi: 10.1021/acs.jpclett.0c03077
  Functional external parameters        .... 1
    Parameter  0 _eta       =  1.000000e-03 : Regularization parameter
 Gradients option       PostSCFGGA      .... off
 Hybrid DFT is turned on
   Fraction HF Exchange ScalHFX         ....  0.100000
   Scaling of DF-GGA-X  ScalDFX         ....  0.900000
   Scaling of DF-GGA-C  ScalDFC         ....  1.000000
   Scaling of DF-LDA-C  ScalLDAC        ....  1.000000
   Perturbative correction              ....  0.000000
   NL short-range parameter             .... 11.900000
 RI-approximation to the Coulomb term is turned on
   Number of AuxJ basis functions       .... 518
   RIJ-COSX (HFX calculated with COS-X)).... on


General Settings:
 Integral files         IntName         .... cs_rporg_140_ox_solv_04
 Hartree-Fock type      HFTyp           .... UHF
 Total Charge           Charge          ....    1
 Multiplicity           Mult            ....    2
 Number of Electrons    NEL             ....   63
 Basis Dimension        Dim             ....  575
 Nuclear Repulsion      ENuc            ....    394.4109127933 Eh

Convergence Acceleration:
 AO-DIIS                CNVDIIS         .... on
   Start iteration      DIISMaxIt       ....     0
   Startup error        DIISStart       ....  0.200000
   # of expansion vecs  DIISMaxEq       ....     5
   Bias factor          DIISBfac        ....   1.050
   Max. coefficient     DIISMaxC        ....  10.000
 MO-DIIS                CNVKDIIS        .... off
 Trust-Rad. Augm. Hess. CNVTRAH         .... auto
   Auto Start mean grad. ratio tolernc. ....  1.125000
   Auto Start start iteration           ....    50
   Auto Start num. interpolation iter.  ....    10
   Max. Number of Micro iterations      ....    24
   Max. Number of Macro iterations      .... Maxiter - #DIIS iter
   Number of Davidson start vectors     ....     2
   Converg. threshold    (grad. norm)   ....   1.000e-05
   Grad. Scal. Fac. for Micro threshold ....   0.100
   Minimum threshold for Micro iter.    ....   1.000e-02
   NR start threshold (gradient norm)   ....   1.000e-04
   Initial trust radius                 ....   0.400
   Minimum AH scaling param. (alpha)    ....   1.000
   Maximum AH scaling param. (alpha)    .... 1000.000
   Quad. conv. algorithm                .... NR
   White noise on init. David. guess    .... on
   Maximum white noise                  ....   0.010
   Pseudo random numbers                .... off
   Inactive MOs                         .... canonical
   Orbital update algorithm             .... Taylor
   Preconditioner                       .... Diag
   Full preconditioner red. dimension   ....   250
 SOSCF                  CNVSOSCF        .... on
   Start iteration      SOSCFMaxIt      ....   150
   Startup grad/error   SOSCFStart      ....  0.001000
   Hessian update       SOSCFHessUp     .... L-BFGS
 Level Shifting         CNVShift        .... on
   Level shift para.    LevelShift      ....    0.2500
   Turn off err/grad.   ShiftErr        ....    0.0000
 Zerner damping         CNVZerner       .... off
 Static damping         CNVDamp         .... on
   Fraction old density DampFac         ....    0.8500
   Max. Damping (<1)    DampMax         ....    0.9800
   Min. Damping (>=0)   DampMin         ....    0.0000
   Turn off err/grad.   DampErr         ....    0.0300

SCF Procedure:
 Maximum # iterations   MaxIter         ....  1500
 SCF integral mode      SCFMode         .... Direct
   Integral package                     .... SHARK and LIBINT hybrid scheme
 Reset frequency        DirectResetFreq ....    20
 Integral Threshold     Thresh          ....  1.000e-12 Eh
 Primitive CutOff       TCut            ....  1.000e-13 Eh

Convergence Tolerance:
 Convergence Check Mode ConvCheckMode   .... Total+1el-Energy
 Convergence forced     ConvForced      .... 0
 Energy Change          TolE            ....  1.000e-08 Eh
 1-El. energy change                    ....  1.000e-05 Eh
 Orbital Gradient       TolG            ....  1.000e-05
 Orbital Rotation angle TolX            ....  1.000e-05
 DIIS Error             TolErr          ....  5.000e-07

------------------------------
INITIAL GUESS: MODEL POTENTIAL
------------------------------
Loading Hartree-Fock densities                     ... done
Calculating cut-offs                               ... done
Initializing the effective Hamiltonian             ... done
Setting up the integral package (SHARK)            ... done
Starting the Coulomb interaction                   ... done (   0.3 sec)
Making the grid                                    ... done (   0.3 sec)
Mapping shells                                     ... done
Starting the XC term evaluation                    ... done (   0.5 sec)
  promolecular density results
     # of electrons  =     63.993905572
     EX              =    -52.512115352
     EC              =     -2.121563818
     EX+EC           =    -54.633679170
Transforming the Hamiltonian                       ... done (   0.0 sec)
Diagonalizing the Hamiltonian                      ... done (   0.1 sec)
Back transforming the eigenvectors                 ... done (   0.1 sec)
Now organizing SCF variables                       ... done
                      ------------------
                      INITIAL GUESS DONE (   1.6 sec)
                      ------------------
             **** ENERGY FILE WAS UPDATED (cs_rporg_140_ox_solv_04.en.tmp) ****
Finished Guess after   2.6 sec
Maximum memory used throughout the entire GUESS-calculation: 46.0 MB


           ************************************************************
           *        Program running with 4 parallel MPI-processes     *
           *              working on a common directory               *
           ************************************************************

-------------------------------------------------------------------------------------------
                                      ORCA LEAN-SCF
                              memory conserving SCF solver
-------------------------------------------------------------------------------------------

--------------------
CPCM SOLVATION MODEL
--------------------
CPCM parameters:
  Epsilon                                         ...      35.6880
  Refrac                                          ...       1.3442
  Rsolv                                           ...       2.1900
  Surface type                                    ...    GEPOL SES
  Discretization scheme                           ... Constant num. charges
  Epsilon function type                           ...         CPCM
Solvent:                                          ... ACETONITRILE
SMD-CDS solvent descriptors:
  Soln                                            ...       1.3442
  Soln25                                          ...       1.3416
  Sola                                            ...       0.0700
  Solb                                            ...       0.3200
  Solg                                            ...      41.2500
  Solc                                            ...       0.0000
  Solh                                            ...       0.0000
Radii:
  Scheme                                          ... Element-dependent radii
  Radius for C  used is    3.4960 Bohr (=   1.8500 Ang.)
  Radius for N  used is    3.5716 Bohr (=   1.8900 Ang.)
  Radius for O  used is    4.0969 Bohr (=   2.1680 Ang.)
  Radius for H  used is    2.2677 Bohr (=   1.2000 Ang.)
Calculating surface                               ...        done! (  0.0s)
Cavity surface points                             ...          501
Cavity Volume                                     ...    1001.4425
Cavity Surface-area                               ...     581.3702
Calculating surface distance matrix               ...        done! (  0.0s)
Performing Cholesky decomposition & store         ...        done! (  0.0s)
Overall time for CPCM initialization              ...                 0.0s

----------------------------------------D-I-I-S--------------------------------------------
Iteration    Energy (Eh)           Delta-E    RMSDP     MaxDP     DIISErr   Damp  Time(sec)
-------------------------------------------------------------------------------------------
               ***  Starting incremental Fock matrix formation  ***
    1    -400.4487820042385806     0.00e+00  4.53e-04  2.38e-02  5.98e-02  0.850  21.9
Warning: op=1 Small HOMO/LUMO gap (   0.019) - skipping pre-diagonalization
         Will do a full diagonalization
    2    -400.4748923558055935    -2.61e-02  4.25e-04  2.17e-02  4.74e-02  0.850  14.6
                               ***Turning on AO-DIIS***
    3    -400.4939676068585754    -1.91e-02  3.39e-04  1.95e-02  3.46e-02  0.850  14.2
    4    -400.5068675132154681    -1.29e-02  2.79e-04  1.70e-02  2.78e-02  0.850  14.0
    5    -400.5163975793830673    -9.53e-03  1.54e-03  9.58e-02  2.33e-02  0.000  13.7
    6    -400.5622815325912711    -4.59e-02  1.67e-04  1.22e-02  5.31e-03  0.000  14.5
    7    -400.5626627288137911    -3.81e-04  3.60e-05  2.57e-03  3.52e-03  0.000  13.4
    8    -400.5628482755585651    -1.86e-04  3.71e-05  3.28e-03  2.16e-03  0.000  13.2
    9    -400.5629644174881037    -1.16e-04  2.24e-05  1.99e-03  1.57e-03  0.000  12.9
   10    -400.5630302793760507    -6.59e-05  1.75e-05  1.49e-03  1.05e-03  0.000  13.1
                              *** Initializing SOSCF ***
---------------------------------------S-O-S-C-F--------------------------------------
Iteration    Energy (Eh)           Delta-E    RMSDP     MaxDP     MaxGrad    Time(sec)
--------------------------------------------------------------------------------------
   11    -400.5630637211432372    -3.34e-05  1.09e-05  8.67e-04  4.98e-04    13.1
               *** Restarting incremental Fock matrix formation ***
   12    -400.5630783570616700    -1.46e-05  1.86e-05  1.03e-03  5.25e-04    21.6
   13    -400.5630850958298765    -6.74e-06  2.58e-05  1.23e-03  3.81e-04    17.6
   14    -400.5630876823893800    -2.59e-06  1.67e-05  1.19e-03  4.50e-04    17.1
   15    -400.5630903159280365    -2.63e-06  6.70e-06  6.07e-04  7.42e-05    15.6
   16    -400.5630905036377385    -1.88e-07  1.96e-06  9.62e-05  5.60e-05    15.2
   17    -400.5630906847242727    -1.81e-07  1.39e-06  9.69e-05  2.54e-05    14.7
   18    -400.5630907091518225    -2.44e-08  6.33e-07  4.96e-05  1.59e-05    14.2
   19    -400.5630907253861892    -1.62e-08  6.17e-07  5.07e-05  7.16e-06    13.5
   20    -400.5630907281277473    -2.74e-09  3.54e-07  3.16e-05  6.32e-06    12.9
                 **** Energy Check signals convergence ****

               *****************************************************
               *                     SUCCESS                       *
               *           SCF CONVERGED AFTER  20 CYCLES          *
               *****************************************************

Recomputing exchange energy using gridx3       ... done (   21.201 sec)
Old exchange energy                            :     -5.323951035 Eh
New exchange energy                            :     -5.323981479 Eh
Exchange energy change after final integration :     -0.000030443 Eh
Total energy after final integration           :   -400.563121171 Eh

SMD CDS free energy correction energy :                -1.29778     Kcal/mol
Total Energy after SMD CDS correction =              -400.565189317 Eh
             **** ENERGY FILE WAS UPDATED (cs_rporg_140_ox_solv_04.en.tmp) ****

----------------
TOTAL SCF ENERGY
----------------

Total Energy       :       -400.56518931680768 Eh          -10899.93294 eV

Components:
Nuclear Repulsion  :        394.41091279327378 Eh           10732.46657 eV
Electronic Energy  :       -794.88883116779004 Eh          -21630.02475 eV
One Electron Energy:      -1311.54914712449840 Eh          -35689.06669 eV
Two Electron Energy:        516.66031595670836 Eh           14059.04195 eV
CPCM Dielectric    :         -0.08517235361149 Eh              -2.31766 eV
SMD CDS (Gcds)     :         -0.00206814538346 Eh              -0.05628 eV

Virial components:
Potential Energy   :       -798.77554380735387 Eh          -21735.78757 eV
Kinetic Energy     :        398.21035449054614 Eh           10835.85463 eV
Virial Ratio       :          2.00591354493851

DFT components:
N(Alpha)           :       31.999969933967 electrons
N(Beta)            :       30.999970711701 electrons
N(Total)           :       62.999940645668 electrons
E(X)               :      -48.134107673586 Eh       
E(C)               :       -2.037298544797 Eh       
E(XC)              :      -50.171406218382 Eh       

CPCM Solvation Model Properties:
Surface-charge          :         -1.02610899766319
Corrected charge        :         -1.00000000000000
Outlying charge corr.   :          0.00004920796629 Eh               0.00134 eV
Free-energy (cav+disp)  :         -0.00206814538346 Eh              -0.05628 eV

---------------
SCF CONVERGENCE
---------------

  Last Energy change         ...    2.7416e-09  Tolerance :   1.0000e-08
  Last MAX-Density change    ...    3.1560e-05  Tolerance :   1.0000e-07
  Last RMS-Density change    ...    3.5376e-07  Tolerance :   5.0000e-09
  Last DIIS Error            ...    4.9769e-04  Tolerance :   5.0000e-07
  Last Orbital Gradient      ...    6.3250e-06  Tolerance :   1.0000e-05
  Last Orbital Rotation      ...    1.3667e-05  Tolerance :   1.0000e-05


----------------------
UHF SPIN CONTAMINATION
----------------------

Warning: in a DFT calculation there is little theoretical justification to 
         calculate <S**2> as in Hartree-Fock theory. We will do it anyways
         but you should keep in mind that the values have only limited relevance

Expectation value of <S**2>     :     0.784541
Ideal value S*(S+1) for S=0.5   :     0.750000
Deviation                       :     0.034541

----------------
ORBITAL ENERGIES
----------------
                 SPIN UP ORBITALS
  NO   OCC          E(Eh)            E(eV) 
   0   1.0000     -19.250093      -523.8217 
   1   1.0000     -14.436092      -392.8260 
   2   1.0000     -10.253544      -279.0131 
   3   1.0000     -10.239704      -278.6365 
   4   1.0000     -10.223200      -278.1874 
   5   1.0000     -10.213555      -277.9249 
   6   1.0000     -10.212279      -277.8902 
   7   1.0000     -10.200035      -277.5571 
   8   1.0000     -10.197441      -277.4865 
   9   1.0000      -1.205890       -32.8139 
  10   1.0000      -0.936937       -25.4954 
  11   1.0000      -0.893817       -24.3220 
  12   1.0000      -0.803375       -21.8609 
  13   1.0000      -0.789922       -21.4949 
  14   1.0000      -0.693267       -18.8648 
  15   1.0000      -0.644915       -17.5490 
  16   1.0000      -0.614983       -16.7345 
  17   1.0000      -0.580295       -15.7906 
  18   1.0000      -0.550880       -14.9902 
  19   1.0000      -0.515974       -14.0404 
  20   1.0000      -0.510911       -13.9026 
  21   1.0000      -0.487507       -13.2657 
  22   1.0000      -0.466311       -12.6890 
  23   1.0000      -0.447491       -12.1768 
  24   1.0000      -0.441885       -12.0243 
  25   1.0000      -0.421617       -11.4728 
  26   1.0000      -0.378377       -10.2962 
  27   1.0000      -0.366602        -9.9757 
  28   1.0000      -0.349239        -9.5033 
  29   1.0000      -0.326826        -8.8934 
  30   1.0000      -0.295212        -8.0331 
  31   1.0000      -0.282565        -7.6890 
  32   0.0000      -0.128192        -3.4883 
  33   0.0000      -0.058273        -1.5857 
  34   0.0000      -0.023840        -0.6487 
  35   0.0000       0.005214         0.1419 
  36   0.0000       0.013471         0.3666 
  37   0.0000       0.023517         0.6399 
  38   0.0000       0.034021         0.9258 
  39   0.0000       0.039964         1.0875 
  40   0.0000       0.045909         1.2493 
  41   0.0000       0.048545         1.3210 
  42   0.0000       0.058090         1.5807 

                 SPIN DOWN ORBITALS
  NO   OCC          E(Eh)            E(eV) 
   0   1.0000     -19.242476      -523.6144 
   1   1.0000     -14.427700      -392.5977 
   2   1.0000     -10.254186      -279.0306 
   3   1.0000     -10.236744      -278.5560 
   4   1.0000     -10.217972      -278.0451 
   5   1.0000     -10.211244      -277.8621 
   6   1.0000     -10.210863      -277.8517 
   7   1.0000     -10.200907      -277.5808 
   8   1.0000     -10.198902      -277.5262 
   9   1.0000      -1.192442       -32.4480 
  10   1.0000      -0.925626       -25.1876 
  11   1.0000      -0.883839       -24.0505 
  12   1.0000      -0.792969       -21.5778 
  13   1.0000      -0.786723       -21.4078 
  14   1.0000      -0.687078       -18.6963 
  15   1.0000      -0.642233       -17.4761 
  16   1.0000      -0.609921       -16.5968 
  17   1.0000      -0.574512       -15.6333 
  18   1.0000      -0.548767       -14.9327 
  19   1.0000      -0.512619       -13.9491 
  20   1.0000      -0.485037       -13.1985 
  21   1.0000      -0.470971       -12.8158 
  22   1.0000      -0.463905       -12.6235 
  23   1.0000      -0.447208       -12.1691 
  24   1.0000      -0.439911       -11.9706 
  25   1.0000      -0.400657       -10.9024 
  26   1.0000      -0.377729       -10.2785 
  27   1.0000      -0.364826        -9.9274 
  28   1.0000      -0.322869        -8.7857 
  29   1.0000      -0.319166        -8.6849 
  30   1.0000      -0.291219        -7.9245 
  31   0.0000      -0.216214        -5.8835 
  32   0.0000      -0.094718        -2.5774 
  33   0.0000      -0.049453        -1.3457 
  34   0.0000      -0.002497        -0.0679 
  35   0.0000       0.006132         0.1669 
  36   0.0000       0.014726         0.4007 
  37   0.0000       0.023523         0.6401 
  38   0.0000       0.035347         0.9618 
  39   0.0000       0.040373         1.0986 
  40   0.0000       0.046858         1.2751 
  41   0.0000       0.049169         1.3380 
*Only the first 10 virtual orbitals were printed.

                    ********************************
                    * MULLIKEN POPULATION ANALYSIS *
                    ********************************

--------------------------------------------
MULLIKEN ATOMIC CHARGES AND SPIN POPULATIONS
--------------------------------------------
   0 C :   -0.789919    0.065011
   1 C :   -0.523902   -0.063521
   2 C :   -0.080713    0.288582
   3 C :   -0.708161   -0.116326
   4 C :   -0.592791    0.134560
   5 C :    1.810879    0.213134
   6 C :    0.157568   -0.072013
   7 N :   -0.378854    0.314420
   8 O :   -0.185823    0.221555
   9 H :    0.220865   -0.013786
  10 H :    0.454625   -0.005941
  11 H :    0.060632    0.013254
  12 H :    0.549945   -0.007988
  13 H :    0.444848    0.020693
  14 H :    0.549872   -0.002266
  15 H :    0.010930    0.010632
Sum of atomic charges         :    1.0000000
Sum of atomic spin populations:    1.0000000

-----------------------------------------------------
MULLIKEN REDUCED ORBITAL CHARGES AND SPIN POPULATIONS
-----------------------------------------------------
CHARGE
  0 C s       :     4.075476  s :     4.075476
      pz      :     0.874181  p :     2.660818
      px      :     0.804760
      py      :     0.981877
      dz2     :    -0.018755  d :     0.069907
      dxz     :    -0.007277
      dyz     :    -0.000863
      dx2y2   :    -0.002744
      dxy     :     0.099546
      f0      :     0.001082  f :    -0.016282
      f+1     :    -0.001005
      f-1     :     0.000017
      f+2     :     0.000820
      f-2     :     0.000536
      f+3     :     0.003053
      f-3     :    -0.020784

  1 C s       :     3.565094  s :     3.565094
      pz      :     0.910457  p :     2.841259
      px      :     1.033201
      py      :     0.897601
      dz2     :     0.004971  d :     0.125506
      dxz     :     0.016888
      dyz     :     0.012469
      dx2y2   :    -0.025505
      dxy     :     0.116685
      f0      :     0.000793  f :    -0.007958
      f+1     :     0.000707
      f-1     :     0.000110
      f+2     :     0.000582
      f-2     :     0.000507
      f+3     :    -0.000424
      f-3     :    -0.010233

  2 C s       :     3.596681  s :     3.596681
      pz      :     0.769506  p :     2.596174
      px      :     0.950919
      py      :     0.875749
      dz2     :    -0.021748  d :    -0.110026
      dxz     :     0.000793
      dyz     :     0.023326
      dx2y2   :    -0.089820
      dxy     :    -0.022576
      f0      :     0.000865  f :    -0.002116
      f+1     :    -0.000009
      f-1     :     0.000298
      f+2     :     0.000848
      f-2     :     0.000720
      f+3     :    -0.000703
      f-3     :    -0.004135

  3 C s       :     3.726620  s :     3.726620
      pz      :     0.921647  p :     2.839197
      px      :     1.012875
      py      :     0.904675
      dz2     :     0.006575  d :     0.151119
      dxz     :     0.011576
      dyz     :     0.018856
      dx2y2   :     0.014474
      dxy     :     0.099639
      f0      :     0.000798  f :    -0.008776
      f+1     :     0.000340
      f-1     :     0.000136
      f+2     :     0.000813
      f-2     :     0.000241
      f+3     :    -0.004257
      f-3     :    -0.006847

  4 C s       :     3.971765  s :     3.971765
      pz      :     0.852332  p :     2.580806
      px      :     0.789610
      py      :     0.938864
      dz2     :    -0.022367  d :     0.058109
      dxz     :     0.011930
      dyz     :    -0.013404
      dx2y2   :    -0.120402
      dxy     :     0.202351
      f0      :     0.000667  f :    -0.017889
      f+1     :     0.000143
      f-1     :    -0.000257
      f+2     :     0.001113
      f-2     :    -0.000068
      f+3     :    -0.010953
      f-3     :    -0.008534

  5 C s       :     2.788983  s :     2.788983
      pz      :     0.908942  p :     1.636679
      px      :     0.230826
      py      :     0.496911
      dz2     :    -0.020921  d :    -0.144315
      dxz     :     0.008598
      dyz     :    -0.026307
      dx2y2   :    -0.103018
      dxy     :    -0.002667
      f0      :     0.002791  f :    -0.092226
      f+1     :    -0.005981
      f-1     :    -0.001147
      f+2     :    -0.000966
      f-2     :    -0.000587
      f+3     :    -0.039780
      f-3     :    -0.046556

  6 C s       :     3.734058  s :     3.734058
      pz      :     0.744154  p :     2.157241
      px      :     0.548511
      py      :     0.864576
      dz2     :     0.004302  d :    -0.038442
      dxz     :     0.018814
      dyz     :    -0.000589
      dx2y2   :     0.005405
      dxy     :    -0.066373
      f0      :     0.000581  f :    -0.010424
      f+1     :    -0.001553
      f-1     :     0.000439
      f+2     :     0.001490
      f-2     :     0.001295
      f+3     :    -0.004626
      f-3     :    -0.008050

  7 N s       :     4.109571  s :     4.109571
      pz      :     1.045565  p :     3.145004
      px      :     0.697175
      py      :     1.402265
      dz2     :    -0.003502  d :     0.113801
      dxz     :     0.034955
      dyz     :     0.013988
      dx2y2   :     0.049625
      dxy     :     0.018735
      f0      :     0.001973  f :     0.010478
      f+1     :    -0.000187
      f-1     :    -0.000195
      f+2     :     0.000815
      f-2     :     0.004904
      f+3     :     0.000975
      f-3     :     0.002193

  8 O s       :     3.895739  s :     3.895739
      pz      :     1.660994  p :     4.241058
      px      :     1.117402
      py      :     1.462662
      dz2     :     0.000033  d :     0.043937
      dxz     :     0.017132
      dyz     :     0.003574
      dx2y2   :     0.017327
      dxy     :     0.005871
      f0      :     0.001033  f :     0.005089
      f+1     :     0.000221
      f-1     :     0.000071
      f+2     :     0.000612
      f-2     :     0.000704
      f+3     :     0.002341
      f-3     :     0.000108

  9 H s       :     0.669837  s :     0.669837
      pz      :     0.032709  p :     0.084193
      px      :     0.033061
      py      :     0.018423
      dz2     :     0.001133  d :     0.025105
      dxz     :     0.004077
      dyz     :     0.006519
      dx2y2   :     0.011898
      dxy     :     0.001479

 10 H s       :     0.613377  s :     0.613377
      pz      :    -0.002231  p :    -0.069416
      px      :    -0.013697
      py      :    -0.053487
      dz2     :    -0.001563  d :     0.001413
      dxz     :     0.001057
      dyz     :     0.003140
      dx2y2   :    -0.001994
      dxy     :     0.000774

 11 H s       :     0.875357  s :     0.875357
      pz      :     0.009264  p :     0.055457
      px      :     0.022168
      py      :     0.024025
      dz2     :    -0.000100  d :     0.008554
      dxz     :     0.002336
      dyz     :     0.002443
      dx2y2   :     0.002268
      dxy     :     0.001608

 12 H s       :     0.436941  s :     0.436941
      pz      :     0.019297  p :     0.004248
      px      :    -0.006584
      py      :    -0.008465
      dz2     :    -0.000222  d :     0.008865
      dxz     :     0.000525
      dyz     :     0.005261
      dx2y2   :     0.000868
      dxy     :     0.002433

 13 H s       :     0.554054  s :     0.554054
      pz      :     0.011096  p :    -0.007577
      px      :    -0.015782
      py      :    -0.002891
      dz2     :    -0.000199  d :     0.008675
      dxz     :     0.004362
      dyz     :     0.000002
      dx2y2   :     0.001959
      dxy     :     0.002551

 14 H s       :     0.452158  s :     0.452158
      pz      :     0.018152  p :    -0.010756
      px      :    -0.016460
      py      :    -0.012448
      dz2     :    -0.000288  d :     0.008727
      dxz     :     0.002231
      dyz     :     0.003370
      dx2y2   :     0.002191
      dxy     :     0.001223

 15 H s       :     0.932311  s :     0.932311
      pz      :     0.013745  p :     0.048593
      px      :    -0.021649
      py      :     0.056497
      dz2     :    -0.000364  d :     0.008165
      dxz     :     0.000701
      dyz     :     0.004747
      dx2y2   :     0.003069
      dxy     :     0.000013


SPIN
  0 C s       :    -0.001916  s :    -0.001916
      pz      :     0.073321  p :     0.064973
      px      :    -0.007447
      py      :    -0.000901
      dz2     :    -0.000418  d :     0.003223
      dxz     :     0.004214
      dyz     :     0.001890
      dx2y2   :    -0.000713
      dxy     :    -0.001751
      f0      :    -0.000384  f :    -0.001269
      f+1     :    -0.000163
      f-1     :     0.000008
      f+2     :    -0.000389
      f-2     :    -0.000092
      f+3     :    -0.000285
      f-3     :     0.000036

  1 C s       :    -0.006032  s :    -0.006032
      pz      :    -0.044927  p :    -0.063162
      px      :    -0.013901
      py      :    -0.004335
      dz2     :     0.000394  d :     0.006250
      dxz     :     0.003345
      dyz     :     0.002250
      dx2y2   :    -0.001213
      dxy     :     0.001473
      f0      :    -0.000014  f :    -0.000576
      f+1     :     0.000032
      f-1     :     0.000078
      f+2     :     0.000071
      f-2     :     0.000124
      f+3     :    -0.000304
      f-3     :    -0.000563

  2 C s       :    -0.007912  s :    -0.007912
      pz      :     0.276605  p :     0.298851
      px      :     0.004803
      py      :     0.017443
      dz2     :    -0.001977  d :    -0.000162
      dxz     :     0.001432
      dyz     :    -0.001406
      dx2y2   :     0.001055
      dxy     :     0.000734
      f0      :    -0.000732  f :    -0.002194
      f+1     :    -0.000442
      f-1     :    -0.000338
      f+2     :     0.000205
      f-2     :    -0.000137
      f+3     :    -0.000238
      f-3     :    -0.000513

  3 C s       :    -0.016888  s :    -0.016888
      pz      :    -0.077541  p :    -0.100844
      px      :    -0.021560
      py      :    -0.001744
      dz2     :     0.000059  d :     0.001799
      dxz     :    -0.000140
      dyz     :    -0.001185
      dx2y2   :     0.003364
      dxy     :    -0.000299
      f0      :     0.000068  f :    -0.000393
      f+1     :     0.000089
      f-1     :     0.000160
      f+2     :     0.000118
      f-2     :     0.000351
      f+3     :    -0.000747
      f-3     :    -0.000432

  4 C s       :     0.012336  s :     0.012336
      pz      :     0.128070  p :     0.120022
      px      :    -0.010623
      py      :     0.002576
      dz2     :    -0.000315  d :     0.003406
      dxz     :    -0.002706
      dyz     :     0.002926
      dx2y2   :     0.004302
      dxy     :    -0.000801
      f0      :    -0.000386  f :    -0.001204
      f+1     :    -0.000140
      f-1     :    -0.000124
      f+2     :    -0.000004
      f-2     :    -0.000238
      f+3     :     0.000046
      f-3     :    -0.000359

  5 C s       :     0.025432  s :     0.025432
      pz      :     0.149220  p :     0.175455
      px      :     0.002344
      py      :     0.023891
      dz2     :    -0.001156  d :     0.014763
      dxz     :     0.012176
      dyz     :     0.004533
      dx2y2   :    -0.006328
      dxy     :     0.005538
      f0      :    -0.000780  f :    -0.002516
      f+1     :    -0.000132
      f-1     :    -0.000186
      f+2     :    -0.000364
      f-2     :    -0.000123
      f+3     :    -0.000084
      f-3     :    -0.000846

  6 C s       :    -0.002814  s :    -0.002814
      pz      :    -0.044563  p :    -0.076481
      px      :    -0.022393
      py      :    -0.009525
      dz2     :     0.000054  d :     0.006735
      dxz     :     0.004568
      dyz     :    -0.000187
      dx2y2   :     0.002763
      dxy     :    -0.000463
      f0      :     0.000394  f :     0.000547
      f+1     :    -0.000044
      f-1     :     0.000030
      f+2     :     0.001104
      f-2     :     0.000241
      f+3     :     0.000311
      f-3     :    -0.001489

  7 N s       :     0.003108  s :     0.003108
      pz      :     0.314812  p :     0.309877
      px      :    -0.004267
      py      :    -0.000668
      dz2     :    -0.000034  d :     0.001294
      dxz     :     0.001169
      dyz     :     0.001424
      dx2y2   :    -0.000730
      dxy     :    -0.000536
      f0      :    -0.000699  f :     0.000142
      f+1     :    -0.000250
      f-1     :    -0.000134
      f+2     :     0.000378
      f-2     :     0.000734
      f+3     :     0.000070
      f-3     :     0.000043

  8 O s       :     0.020424  s :     0.020424
      pz      :     0.187456  p :     0.202051
      px      :     0.008821
      py      :     0.005774
      dz2     :     0.000141  d :    -0.000672
      dxz     :    -0.000148
      dyz     :    -0.000290
      dx2y2   :    -0.000697
      dxy     :     0.000322
      f0      :    -0.000119  f :    -0.000248
      f+1     :    -0.000030
      f-1     :    -0.000053
      f+2     :    -0.000135
      f-2     :     0.000157
      f+3     :     0.000021
      f-3     :    -0.000088

  9 H s       :    -0.016749  s :    -0.016749
      pz      :     0.002239  p :     0.002237
      px      :     0.000432
      py      :    -0.000434
      dz2     :     0.000072  d :     0.000726
      dxz     :     0.000243
      dyz     :     0.000512
      dx2y2   :    -0.000314
      dxy     :     0.000214

 10 H s       :    -0.002049  s :    -0.002049
      pz      :    -0.002793  p :    -0.003139
      px      :    -0.002638
      py      :     0.002292
      dz2     :     0.000014  d :    -0.000753
      dxz     :    -0.000218
      dyz     :    -0.000331
      dx2y2   :    -0.000040
      dxy     :    -0.000178

 11 H s       :     0.008875  s :     0.008875
      pz      :     0.002024  p :     0.003818
      px      :     0.000359
      py      :     0.001435
      dz2     :     0.000086  d :     0.000561
      dxz     :     0.000123
      dyz     :     0.000332
      dx2y2   :    -0.000065
      dxy     :     0.000086

 12 H s       :    -0.005344  s :    -0.005344
      pz      :    -0.003293  p :    -0.002535
      px      :    -0.000363
      py      :     0.001121
      dz2     :     0.000007  d :    -0.000109
      dxz     :    -0.000074
      dyz     :    -0.000211
      dx2y2   :     0.000054
      dxy     :     0.000116

 13 H s       :     0.011572  s :     0.011572
      pz      :     0.006254  p :     0.007983
      px      :     0.002395
      py      :    -0.000666
      dz2     :     0.000106  d :     0.001138
      dxz     :     0.001211
      dyz     :     0.000051
      dx2y2   :    -0.000105
      dxy     :    -0.000124

 14 H s       :    -0.001086  s :    -0.001086
      pz      :    -0.002390  p :    -0.001122
      px      :    -0.000319
      py      :     0.001587
      dz2     :     0.000027  d :    -0.000058
      dxz     :    -0.000157
      dyz     :    -0.000074
      dx2y2   :     0.000036
      dxy     :     0.000110

 15 H s       :     0.009579  s :     0.009579
      pz      :     0.000649  p :     0.000725
      px      :    -0.000455
      py      :     0.000531
      dz2     :     0.000018  d :     0.000328
      dxz     :    -0.000117
      dyz     :     0.000358
      dx2y2   :    -0.000005
      dxy     :     0.000076



                     *******************************
                     * LOEWDIN POPULATION ANALYSIS *
                     *******************************

-------------------------------------------
LOEWDIN ATOMIC CHARGES AND SPIN POPULATIONS
-------------------------------------------
   0 C :    0.266990    0.060625
   1 C :    0.267037    0.033848
   2 C :    0.280294    0.143297
   3 C :    0.263394    0.023385
   4 C :    0.258978    0.078945
   5 C :   -0.105712    0.113850
   6 C :    0.093162    0.052216
   7 N :    0.195215    0.240722
   8 O :    0.747684    0.203315
   9 H :   -0.397592    0.012158
  10 H :   -0.139392   -0.005736
  11 H :   -0.164281    0.011519
  12 H :   -0.147757   -0.006711
  13 H :   -0.133869    0.033090
  14 H :   -0.145615   -0.003018
  15 H :   -0.138534    0.008492

----------------------------------------------------
LOEWDIN REDUCED ORBITAL CHARGES AND SPIN POPULATIONS
----------------------------------------------------
CHARGE
  0 C s       :     2.488735  s :     2.488735
      pz      :     0.551688  p :     2.236953
      px      :     0.857909
      py      :     0.827356
      dz2     :     0.068943  d :     0.675914
      dxz     :     0.105845
      dyz     :     0.042915
      dx2y2   :     0.238921
      dxy     :     0.219290
      f0      :     0.021581  f :     0.331408
      f+1     :     0.030915
      f-1     :     0.020639
      f+2     :     0.024573
      f-2     :     0.037629
      f+3     :     0.084243
      f-3     :     0.111829

  1 C s       :     2.495117  s :     2.495117
      pz      :     0.576386  p :     2.267775
      px      :     0.853925
      py      :     0.837464
      dz2     :     0.067318  d :     0.648398
      dxz     :     0.060618
      dyz     :     0.060012
      dx2y2   :     0.175037
      dxy     :     0.285413
      f0      :     0.020390  f :     0.321674
      f+1     :     0.026600
      f-1     :     0.024662
      f+2     :     0.043933
      f-2     :     0.010758
      f+3     :     0.081663
      f-3     :     0.113668

  2 C s       :     2.501816  s :     2.501816
      pz      :     0.501653  p :     2.208559
      px      :     0.848464
      py      :     0.858443
      dz2     :     0.067910  d :     0.679048
      dxz     :     0.039697
      dyz     :     0.112997
      dx2y2   :     0.270643
      dxy     :     0.187803
      f0      :     0.020103  f :     0.330282
      f+1     :     0.019985
      f-1     :     0.030299
      f+2     :     0.015399
      f-2     :     0.051687
      f+3     :     0.080107
      f-3     :     0.112702

  3 C s       :     2.494480  s :     2.494480
      pz      :     0.583732  p :     2.273567
      px      :     0.853143
      py      :     0.836693
      dz2     :     0.067281  d :     0.647100
      dxz     :     0.073890
      dyz     :     0.044413
      dx2y2   :     0.237877
      dxy     :     0.223638
      f0      :     0.020471  f :     0.321460
      f+1     :     0.030291
      f-1     :     0.021053
      f+2     :     0.026150
      f-2     :     0.027624
      f+3     :     0.080079
      f-3     :     0.115792

  4 C s       :     2.488469  s :     2.488469
      pz      :     0.544891  p :     2.236298
      px      :     0.867423
      py      :     0.823983
      dz2     :     0.069647  d :     0.684596
      dxz     :     0.088139
      dyz     :     0.065390
      dx2y2   :     0.190200
      dxy     :     0.271220
      f0      :     0.021808  f :     0.331660
      f+1     :     0.027842
      f-1     :     0.023931
      f+2     :     0.047075
      f-2     :     0.016708
      f+3     :     0.081210
      f-3     :     0.113086

  5 C s       :     2.475294  s :     2.475294
      pz      :     0.562092  p :     2.242524
      px      :     0.838988
      py      :     0.841443
      dz2     :     0.091136  d :     0.900906
      dxz     :     0.116903
      dyz     :     0.115799
      dx2y2   :     0.298397
      dxy     :     0.278671
      f0      :     0.031250  f :     0.486989
      f+1     :     0.036700
      f-1     :     0.033960
      f+2     :     0.036927
      f-2     :     0.053816
      f+3     :     0.118807
      f-3     :     0.175529

  6 C s       :     2.512124  s :     2.512124
      pz      :     0.543084  p :     2.218210
      px      :     0.839953
      py      :     0.835172
      dz2     :     0.081146  d :     0.767421
      dxz     :     0.119930
      dyz     :     0.043461
      dx2y2   :     0.263273
      dxy     :     0.259610
      f0      :     0.029703  f :     0.409083
      f+1     :     0.038368
      f-1     :     0.024910
      f+2     :     0.024554
      f-2     :     0.043609
      f+3     :     0.136270
      f-3     :     0.111669

  7 N s       :     2.839027  s :     2.839027
      pz      :     0.778941  p :     2.889812
      px      :     0.885318
      py      :     1.225553
      dz2     :     0.074317  d :     0.735177
      dxz     :     0.166089
      dyz     :     0.021185
      dx2y2   :     0.233576
      dxy     :     0.240008
      f0      :     0.024849  f :     0.340770
      f+1     :     0.030719
      f-1     :     0.014833
      f+2     :     0.025535
      f-2     :     0.046323
      f+3     :     0.093239
      f-3     :     0.105271

  8 O s       :     3.020178  s :     3.020178
      pz      :     1.281448  p :     3.729683
      px      :     1.110055
      py      :     1.338180
      dz2     :     0.038776  d :     0.380552
      dxz     :     0.068869
      dyz     :     0.004742
      dx2y2   :     0.088870
      dxy     :     0.179294
      f0      :     0.010281  f :     0.121902
      f+1     :     0.012183
      f-1     :     0.004601
      f+2     :     0.012418
      f-2     :     0.006650
      f+3     :     0.045330
      f-3     :     0.030439

  9 H s       :     0.562526  s :     0.562526
      pz      :     0.121831  p :     0.478176
      px      :     0.149861
      py      :     0.206484
      dz2     :     0.036412  d :     0.356891
      dxz     :     0.045826
      dyz     :     0.064362
      dx2y2   :     0.127333
      dxy     :     0.082958

 10 H s       :     0.641213  s :     0.641213
      pz      :     0.056921  p :     0.284193
      px      :     0.085165
      py      :     0.142107
      dz2     :     0.025995  d :     0.213986
      dxz     :     0.009357
      dyz     :     0.048424
      dx2y2   :     0.059895
      dxy     :     0.070315

 11 H s       :     0.639330  s :     0.639330
      pz      :     0.067197  p :     0.304175
      px      :     0.123808
      py      :     0.113170
      dz2     :     0.026264  d :     0.220777
      dxz     :     0.029264
      dyz     :     0.029385
      dx2y2   :     0.082819
      dxy     :     0.053045

 12 H s       :     0.651584  s :     0.651584
      pz      :     0.072398  p :     0.287748
      px      :     0.080601
      py      :     0.134749
      dz2     :     0.022563  d :     0.208425
      dxz     :     0.009736
      dyz     :     0.050345
      dx2y2   :     0.059072
      dxy     :     0.066708

 13 H s       :     0.650891  s :     0.650891
      pz      :     0.060054  p :     0.281050
      px      :     0.143067
      py      :     0.077928
      dz2     :     0.022802  d :     0.201928
      dxz     :     0.046691
      dyz     :     0.004605
      dx2y2   :     0.050825
      dxy     :     0.077006

 14 H s       :     0.651164  s :     0.651164
      pz      :     0.071268  p :     0.286833
      px      :     0.103734
      py      :     0.111831
      dz2     :     0.022552  d :     0.207618
      dxz     :     0.028543
      dyz     :     0.030755
      dx2y2   :     0.080061
      dxy     :     0.045707

 15 H s       :     0.638970  s :     0.638970
      pz      :     0.068224  p :     0.289396
      px      :     0.086758
      py      :     0.134414
      dz2     :     0.023578  d :     0.210167
      dxz     :     0.010038
      dyz     :     0.048161
      dx2y2   :     0.060010
      dxy     :     0.068381


SPIN
  0 C s       :     0.001458  s :     0.001458
      pz      :     0.043646  p :     0.043249
      px      :     0.000042
      py      :    -0.000439
      dz2     :    -0.000468  d :     0.006436
      dxz     :     0.003378
      dyz     :     0.003783
      dx2y2   :    -0.000445
      dxy     :     0.000188
      f0      :    -0.000258  f :     0.009483
      f+1     :    -0.000071
      f-1     :    -0.000183
      f+2     :     0.002087
      f-2     :     0.008140
      f+3     :     0.000084
      f-3     :    -0.000317

  1 C s       :    -0.001157  s :    -0.001157
      pz      :    -0.017125  p :    -0.021251
      px      :    -0.001142
      py      :    -0.002984
      dz2     :     0.000146  d :     0.035320
      dxz     :     0.018322
      dyz     :     0.015012
      dx2y2   :     0.001154
      dxy     :     0.000686
      f0      :     0.002185  f :     0.020935
      f+1     :    -0.000112
      f-1     :    -0.000112
      f+2     :     0.015043
      f-2     :     0.003042
      f+3     :     0.000473
      f-3     :     0.000415

  2 C s       :     0.005878  s :     0.005878
      pz      :     0.149871  p :     0.155255
      px      :     0.002731
      py      :     0.002653
      dz2     :    -0.001663  d :    -0.011650
      dxz     :    -0.001597
      dyz     :    -0.006819
      dx2y2   :    -0.000855
      dxy     :    -0.000716
      f0      :    -0.003152  f :    -0.006187
      f+1     :    -0.000351
      f-1     :    -0.000192
      f+2     :     0.001181
      f-2     :    -0.002833
      f+3     :    -0.000461
      f-3     :    -0.000379

  3 C s       :    -0.001815  s :    -0.001815
      pz      :    -0.033968  p :    -0.038920
      px      :    -0.002716
      py      :    -0.002236
      dz2     :     0.000332  d :     0.040264
      dxz     :     0.032118
      dyz     :     0.005690
      dx2y2   :     0.000751
      dxy     :     0.001373
      f0      :     0.002760  f :     0.023856
      f+1     :    -0.000171
      f-1     :    -0.000007
      f+2     :     0.005205
      f-2     :     0.015033
      f+3     :     0.000668
      f-3     :     0.000369

  4 C s       :     0.002438  s :     0.002438
      pz      :     0.067741  p :     0.068200
      px      :     0.001146
      py      :    -0.000688
      dz2     :    -0.000778  d :     0.000624
      dxz     :    -0.004165
      dyz     :     0.006242
      dx2y2   :    -0.000071
      dxy     :    -0.000605
      f0      :    -0.000898  f :     0.007683
      f+1     :    -0.000098
      f-1     :    -0.000232
      f+2     :     0.009370
      f-2     :    -0.000055
      f+3     :    -0.000298
      f-3     :    -0.000107

  5 C s       :     0.003029  s :     0.003029
      pz      :     0.085297  p :     0.085337
      px      :     0.000811
      py      :    -0.000770
      dz2     :    -0.000750  d :     0.011569
      dxz     :     0.003650
      dyz     :     0.008359
      dx2y2   :     0.000247
      dxy     :     0.000063
      f0      :    -0.001241  f :     0.013915
      f+1     :    -0.000135
      f-1     :    -0.000285
      f+2     :     0.013711
      f-2     :     0.001867
      f+3     :     0.000091
      f-3     :    -0.000094

  6 C s       :    -0.001305  s :    -0.001305
      pz      :    -0.013375  p :    -0.018369
      px      :    -0.002788
      py      :    -0.002207
      dz2     :    -0.000016  d :     0.040909
      dxz     :     0.030258
      dyz     :     0.010245
      dx2y2   :    -0.000874
      dxy     :     0.001296
      f0      :     0.002915  f :     0.030981
      f+1     :    -0.000142
      f-1     :    -0.000088
      f+2     :     0.012823
      f-2     :     0.014817
      f+3     :     0.000851
      f-3     :    -0.000194

  7 N s       :     0.006887  s :     0.006887
      pz      :     0.209618  p :     0.208490
      px      :    -0.001312
      py      :     0.000184
      dz2     :     0.000550  d :     0.011359
      dxz     :     0.014882
      dyz     :    -0.002851
      dx2y2   :    -0.000395
      dxy     :    -0.000828
      f0      :     0.000862  f :     0.013985
      f+1     :    -0.000070
      f-1     :    -0.000044
      f+2     :     0.007838
      f-2     :     0.005064
      f+3     :     0.000100
      f-3     :     0.000235

  8 O s       :     0.003827  s :     0.003827
      pz      :     0.153417  p :     0.156765
      px      :     0.000931
      py      :     0.002416
      dz2     :     0.000171  d :     0.030440
      dxz     :     0.027697
      dyz     :     0.002686
      dx2y2   :     0.000306
      dxy     :    -0.000421
      f0      :     0.004851  f :     0.012283
      f+1     :    -0.000058
      f-1     :    -0.000041
      f+2     :     0.005024
      f-2     :     0.002107
      f+3     :    -0.000054
      f-3     :     0.000454

  9 H s       :    -0.004051  s :    -0.004051
      pz      :     0.007923  p :     0.007487
      px      :    -0.000370
      py      :    -0.000065
      dz2     :    -0.000031  d :     0.008722
      dxz     :     0.000189
      dyz     :     0.008477
      dx2y2   :    -0.000318
      dxy     :     0.000406

 10 H s       :     0.000191  s :     0.000191
      pz      :    -0.003922  p :    -0.004701
      px      :    -0.000462
      py      :    -0.000317
      dz2     :    -0.000003  d :    -0.001225
      dxz     :    -0.001092
      dyz     :     0.000404
      dx2y2   :    -0.000187
      dxy     :    -0.000347

 11 H s       :    -0.002213  s :    -0.002213
      pz      :     0.006323  p :     0.006578
      px      :    -0.000199
      py      :     0.000453
      dz2     :    -0.000103  d :     0.007154
      dxz     :     0.002446
      dyz     :     0.004762
      dx2y2   :    -0.000154
      dxy     :     0.000202

 12 H s       :     0.001191  s :     0.001191
      pz      :    -0.004371  p :    -0.005249
      px      :    -0.000388
      py      :    -0.000490
      dz2     :     0.000009  d :    -0.002653
      dxz     :    -0.000250
      dyz     :    -0.001846
      dx2y2   :    -0.000290
      dxy     :    -0.000276

 13 H s       :    -0.004637  s :    -0.004637
      pz      :     0.018959  p :     0.021093
      px      :     0.001999
      py      :     0.000135
      dz2     :    -0.000085  d :     0.016634
      dxz     :     0.015176
      dyz     :     0.000489
      dx2y2   :     0.000707
      dxy     :     0.000347

 14 H s       :     0.000666  s :     0.000666
      pz      :    -0.002163  p :    -0.002783
      px      :    -0.000358
      py      :    -0.000261
      dz2     :     0.000001  d :    -0.000901
      dxz     :    -0.002003
      dyz     :     0.001534
      dx2y2   :    -0.000305
      dxy     :    -0.000127

 15 H s       :    -0.001475  s :    -0.001475
      pz      :     0.004734  p :     0.005139
      px      :    -0.000118
      py      :     0.000523
      dz2     :    -0.000026  d :     0.004829
      dxz     :    -0.000691
      dyz     :     0.005418
      dx2y2   :     0.000080
      dxy     :     0.000047



                      *****************************
                      * MAYER POPULATION ANALYSIS *
                      *****************************

  NA   - Mulliken gross atomic population
  ZA   - Total nuclear charge
  QA   - Mulliken gross atomic charge
  VA   - Mayer's total valence
  BVA  - Mayer's bonded valence
  FA   - Mayer's free valence

  ATOM       NA         ZA         QA         VA         BVA        FA
  0 C      6.7899     6.0000    -0.7899     2.5577     2.5501     0.0076
  1 C      6.5239     6.0000    -0.5239     2.9087     2.9043     0.0043
  2 C      6.0807     6.0000    -0.0807     2.7307     2.6551     0.0756
  3 C      6.7082     6.0000    -0.7082     2.8379     2.8307     0.0072
  4 C      6.5928     6.0000    -0.5928     2.6100     2.5917     0.0183
  5 C      4.1891     6.0000     1.8109     0.4602     0.4296     0.0306
  6 C      5.8424     6.0000     0.1576     1.8700     1.8623     0.0077
  7 N      7.3789     7.0000    -0.3789     1.7482     1.6373     0.1109
  8 O      8.1858     8.0000    -0.1858     1.9757     1.9314     0.0444
  9 H      0.7791     1.0000     0.2209     0.9970     0.9967     0.0003
 10 H      0.5454     1.0000     0.4546     0.5135     0.5135     0.0000
 11 H      0.9394     1.0000     0.0606     1.2034     1.2033     0.0001
 12 H      0.4501     1.0000     0.5499     0.5647     0.5646     0.0000
 13 H      0.5552     1.0000     0.4448     0.7002     0.6999     0.0003
 14 H      0.4501     1.0000     0.5499     0.5094     0.5094    -0.0000
 15 H      0.9891     1.0000     0.0109     1.2651     1.2649     0.0001

  Mayer bond orders larger than 0.100000
B(  0-C ,  1-C ) :   1.2861 B(  0-C ,  2-C ) :  -0.1205 B(  0-C ,  4-C ) :  -0.4366 
B(  0-C , 11-H ) :   0.1330 B(  0-C , 14-H ) :  -0.1601 B(  0-C , 15-H ) :   1.6644 
B(  1-C ,  2-C ) :   1.0797 B(  1-C ,  3-C ) :   0.1289 B(  1-C , 11-H ) :  -0.1058 
B(  1-C , 14-H ) :   0.4687 B(  1-C , 15-H ) :  -0.1201 B(  2-C ,  3-C ) :   1.0417 
B(  2-C ,  4-C ) :  -0.1428 B(  2-C ,  5-C ) :  -0.2083 B(  2-C ,  6-C ) :   0.1616 
B(  2-C , 13-H ) :   0.6720 B(  3-C ,  4-C ) :   1.2672 B(  3-C ,  5-C ) :   0.1117 
B(  3-C , 12-H ) :   0.4678 B(  4-C ,  5-C ) :   0.2810 B(  4-C ,  6-C ) :   0.1903 
B(  4-C , 11-H ) :   1.3089 B(  4-C , 15-H ) :   0.1421 B(  5-C ,  6-C ) :   0.2864 
B(  5-C ,  8-O ) :   0.1258 B(  5-C , 11-H ) :  -0.1312 B(  5-C , 14-H ) :   0.1045 
B(  5-C , 15-H ) :  -0.1740 B(  6-C ,  7-N ) :   0.7521 B(  6-C , 10-H ) :   0.5558 
B(  6-C , 11-H ) :  -0.1191 B(  6-C , 12-H ) :   0.1052 B(  6-C , 15-H ) :  -0.1695 
B(  7-N ,  8-O ) :   0.8312 B(  7-N , 10-H ) :  -0.1039 B(  7-N , 11-H ) :   0.1033 
B(  8-O ,  9-H ) :   0.9832 B( 11-H , 15-H ) :   0.1543 

-------
TIMINGS
-------

Total SCF time: 0 days 0 hours 5 min 24 sec 

Total time                  ....     324.130 sec
Sum of individual times     ....     323.322 sec  ( 99.8%)

SCF preparation             ....       0.953 sec  (  0.3%)
Fock matrix formation       ....     306.892 sec  ( 94.7%)
  Startup                   ....       1.860 sec  (  0.6% of F)
  Split-RI-J                ....      12.948 sec  (  4.2% of F)
  Chain of spheres X        ....     155.022 sec  ( 50.5% of F)
  XC integration            ....     126.995 sec  ( 41.4% of F)
    XC Preparation          ....       0.000 sec  (  0.0% of XC)
    Basis function eval.    ....       7.003 sec  (  5.5% of XC)
    Density eval.           ....      37.990 sec  ( 29.9% of XC)
    XC-Functional eval.     ....       1.308 sec  (  1.0% of XC)
    XC-Potential eval.      ....      76.867 sec  ( 60.5% of XC)
  CPCM terms                ....       5.466 sec  (  1.8% of F)
Diagonalization             ....       0.000 sec  (  0.0%)
Density matrix formation    ....       3.600 sec  (  1.1%)
Total Energy calculation    ....       1.980 sec  (  0.6%)
Population analysis         ....       0.354 sec  (  0.1%)
Orbital Transformation      ....       0.906 sec  (  0.3%)
Orbital Orthonormalization  ....       0.000 sec  (  0.0%)
DIIS solution               ....       5.756 sec  (  1.8%)
SOSCF solution              ....       2.880 sec  (  0.9%)
Finished LeanSCF after 324.4 sec

Maximum memory used throughout the entire LEANSCF-calculation: 87.0 MB


-------------------------------------------------------------------------------
                          DFT DISPERSION CORRECTION                            
                                                                               
                              DFTD3 V3.1  Rev 1                                
                          USING Becke-Johnson damping                          
-------------------------------------------------------------------------------
The R2SCANh functional is recognized
Active option DFTDOPT                   ...         4   

molecular C6(AA) [au] = 3025.262318 


            DFT-D V3
 parameters
 s6 scaling factor         :     1.0000 
 a1 scaling factor         :     0.4709 
 s8 scaling factor         :     1.1236 
 a2 scaling factor         :     5.9157 
 ad hoc parameters k1-k3   :    16.0000     1.3333    -4.0000 

 Edisp/kcal,au: -3.069970854304  -0.004892309445 
 E6   /kcal   :  -2.207863517 
 E8   /kcal   :  -0.862107338 
 % E8         :  28.081938843 

-------------------------   ----------------
Dispersion correction           -0.004892309
-------------------------   ----------------


-------------------------   --------------------
FINAL SINGLE POINT ENERGY      -400.570081626253
-------------------------   --------------------



           ************************************************************
           *        Program running with 4 parallel MPI-processes     *
           *              working on a common directory               *
           ************************************************************

------------------------------------------------------------------------------
                              ORCA PROPERTY CALCULATIONS
------------------------------------------------------------------------------

GBWName                                 ... cs_rporg_140_ox_solv_04.gbw
Number of atoms                         ...     16
Number of basis functions               ...    629
Max core memory                         ...   3000 MB

Electric properties:
Dipole moment                           ... YES
Quadrupole moment                       ...  NO
Static polarizability (Dipole/Dipole)   ...  NO
Static polarizability (Dipole/Quad.)    ...  NO
Static polarizability (Quad./Quad.)     ...  NO
Static polarizability (Velocity)        ...  NO

Atomic electric properties:
Dipole moment                           ...  NO
Quadrupole moment                       ...  NO
Static polarizability                   ...  NO

Choice of electric origin               ... Center of mass
Position of electric origin             ...     0.014956     0.006418     0.000030

General magnetic properties:
Magnetizability                         ...  NO

EPR properties:
g-Tensor (aka g-matrix)                 ...  NO
Zero-Field splitting spin-orbit         ...  NO
Zero-field splitting spin-spin          ...  NO
Hyperfine couplings                     ...  NO (   0 nuclei)
Quadrupole couplings                    ...  NO (   0 nuclei)
Contact density                         ...  NO (   0 nuclei)

NMR properties:
Chemical shifts                         ...  NO (   0 nuclei)
Spin-rotation constants                 ...  NO (   0 nuclei)
Spin-spin couplings                     ...  NO (   0 nuclei,    0 pairs)

Choice of magnetic origin               ... GIAO
Position of magnetic origin             ...     0.000000     0.000000     0.000000

Properties with geometric perturbations:
SCF Hessian                             ...  NO
IR spectrum                             ...  NO
VCD spectrum                            ...  NO
X-ray spectroscopy properties:
SCF XES/XAS/RIXS spectra                ...  NO


-------------
DIPOLE MOMENT
-------------

Method             : SCF
Type of density    : Electron Density
Multiplicity       :   2
Irrep              :   0
Energy             :  -400.5651893168076754 Eh
Relativity type    : 
Basis              : AO
                                X                 Y                 Z
Electronic contribution:     -3.420374743       0.168003583       0.000430604
Nuclear contribution   :      3.309117951      -0.259125904      -0.000059906
                        -----------------------------------------
Total Dipole Moment    :     -0.111256792      -0.091122321       0.000370697
                        -----------------------------------------
Magnitude (a.u.)       :      0.143810600
Magnitude (Debye)      :      0.365537494



--------------------
Rotational spectrum 
--------------------
 
Rotational constants in cm-1:             0.166470             0.031016             0.026145 
Rotational constants in MHz :          4990.645062           929.841763           783.805511 

Dipole components along the rotational axes: 
x,y,z [a.u.] :    -0.110761     0.091724     0.000370 
x,y,z [Debye]:    -0.281533     0.233144     0.000940 

 

Dipole moment calculation done in   0.1 sec 

Maximum memory used throughout the entire PROP-calculation: 48.9 MB

--------------------------------
SUGGESTED CITATIONS FOR THIS RUN
--------------------------------

Below you find a list of papers that are relevant to this ORCA run
We neither can nor want to force you to cite these papers, but we appreciate if you do
You receive ORCA, which is the product of decades of hard work by many enthusiastic individuals, for free
The only thing we kindly ask in return is that you cite our papers,
We deeply appreciate it, if you show your appreciation for ORCA by not just citing the generic ORCA reference.

Please note that relegating all ORCA citations to the supporting information does *not* help us.
SI sections are not indexed - citations you put there will not count into any citation statistics
But we need these citations in order to attract the funding resources that allow us to do what we are doing

Therefore, if you are a happy ORCA user, please consider citing a few of the papers listed below in the main body of your paper

In addition to the list printed below, the program has created the file cs_rporg_140_ox_solv_04.bibtex that contains the list in bibtex format
You can import this file easily into all common literature databanks and citation aid programs


List of essential papers. We consider these as the minimum necessary citations

  1. Neese,F.
     Software update: the ORCA program system, version 5.0
     WIRES Comput. Molec. Sci., 2022 12(1)e1606
     doi.org/10.1002/wcms.1606

List of papers to cite with high priority. The work reported in these papers was absolutely
necessary for this run to complete.
Our perspective: the developers of density functionals and basis sets usually get cited in chemistry papers
Good! But without the algorithms to do something with them, the functionals or basis sets would not do anything.
Hence, in our opinion, the algorithm design and method developments papers are equally worthy of getting cited

  1. Neese,F.
     An improvement of the resolution of the identity approximation for the formation of the Coulomb matrix
     J. Comp. Chem., 2003 24(14)1740-1747
     doi.org/10.1002/jcc.10318
  2. Neese,F.; Wennmohs,F.; Hansen,A.; Becker,U.
     Efficient, approximate and parallel Hartree-Fock and hybrid DFT calculations. A 'chain-of-spheres' algorithm for the Hartree-Fock exchange
     Chem. Phys., 2009 356(1-3)98-109
     doi.org/10.1016/j.chemphys.2008.10.036
  3. Garcia-Rates,M.; Neese,F.
     Effect of the Solute Cavity on the Solvation Energy and its Derivatives within the Framework of the Gaussian Charge Scheme
     J. Comput. Chem., 2020 41 922-939
     doi.org/10.1002/jcc.26139
  4. Helmich-Paris,B.; de Souza,B.; Neese,F.; Izsák,R.
     An improved chain of spheres for exchange algorithm
     J. Chem. Phys., 2021 155 104109
     doi.org/doi: 10.1063/5.0058766.
  5. Neese,F.
     The SHARK Integral Generation and Digestion System
     J. Comp. Chem., 2022  1-16
     doi.org/10.1002/jcc.26942
  6. Lehtola,S.; Steigemann,C.; Oliveira,M.; Marques,M.
     Recent developments in Libxc - A comprehensive library of functionals for density functional theory
     Software X, 2018 7 
     doi.org/10.1016/j.softx.2017.11.002
  7. Grimme,S.; Antony,J.; Ehrlich,S.; Krieg,H.
     A consistent and accurate ab initio parametrization of density functional dispersion correction (DFT-D) for the 94 elements H-Pu
     J. Chem. Phys., 2010 132 154104-XXXX
     doi.org/10.1063/1.3382344
  8. Grimme,S.; Ehrlich,S.; Goerigk,L.
     Effect of the damping function in dispersion corrected density functional theory
     J. Comput. Chem., 2011 32(7)1456-1465
     doi.org/10.1002/jcc.21759
  9. Bursch,M.; Neugebauer,H.; Ehlert,S.; Grimme,S.
     Dispersion corrected r2SCAN based global hybrid functionals: r2SCANh, r2SCAN0, and r2SCAN50
     J. Phys. Chem., 2022 156(13)134105
     doi.org/10.1063/5.0086040

List of suggested additional citations. These are papers that are important in the 'surrounding' of 
of this run, or papers that preceded the highly important papers. If you like your results we are grateful for a citation.

  1. Izsak,R.; Neese,F.
     An overlap fitted chain of spheres exchange method
     J. Chem. Phys., 2011 135 144105
     doi.org/10.1063/1.3646921
  2. Izsak,R.; Hansen,A.; Neese,F.
     The resolution of identity and chain of spheres approximations for the LPNO-CCSD singles Fock term
     Molec. Phys., 2012 110 2413-2417
     doi.org/10.1080/00268976.2012.687466
  3. Neese,F.
     The ORCA program system
     WIRES Comput. Molec. Sci., 2012 2(1)73-78
     doi.org/10.1002/wcms.81
  4. Izsak,R.; Neese,F.; Klopper,W.
     Robust fitting techniques in the chain of spheres approximation to the Fock exchange: The role of the complementary space
     J. Chem. Phys., 2013 139 
     doi.org/10.1063/1.4819264
  5. Neese,F.
     Software update: the ORCA program system, version 4.0
     WIRES Comput. Molec. Sci., 2018 8(1)1-6
     doi.org/10.1002/wcms.1327
  6. Neese,F.; Wennmohs,F.; Becker,U.; Riplinger,C.
     The ORCA quantum chemistry program package
     J. Chem. Phys., 2020 152 Art. No. L224108
     doi.org/10.1063/5.0004608
  7. Wittmann,L.; Neugebauer,H.; Grimme,S.; Bursch,M.
     Dispersion-corrected r2SCAN based double-hybrid functionals
     J. Chem. Phys., 2023 159(22)224103
     doi.org/10.1063/5.0174988

List of optional additional citations

  1. Neese,F.
     Approximate second-order SCF convergence for spin unrestricted wavefunctions
     Chem. Phys. Lett., 2000 325(1-3)93-98
     doi.org/10.1016/s0009-2614(00)00662-x

Timings for individual modules:

Sum of individual times          ...      339.450 sec (=   5.658 min)
Startup calculation              ...        8.205 sec (=   0.137 min)   2.4 %
SCF iterations                   ...      329.457 sec (=   5.491 min)  97.1 %
Property calculations            ...        1.788 sec (=   0.030 min)   0.5 %
                             ****ORCA TERMINATED NORMALLY****
TOTAL RUN TIME: 0 days 0 hours 5 minutes 42 seconds 17 msec
