
                                 *****************
                                 * O   R   C   A *
                                 *****************

                                            #,                                       
                                            ###                                      
                                            ####                                     
                                            #####                                    
                                            ######                                   
                                           ########,                                 
                                     ,,################,,,,,                         
                               ,,#################################,,                 
                          ,,##########################################,,             
                       ,#########################################, ''#####,          
                    ,#############################################,,   '####,        
                  ,##################################################,,,,####,       
                ,###########''''           ''''###############################       
              ,#####''   ,,,,##########,,,,          '''####'''          '####       
            ,##' ,,,,###########################,,,                        '##       
           ' ,,###''''                  '''############,,,                           
         ,,##''                                '''############,,,,        ,,,,,,###''
      ,#''                                            '''#######################'''  
     '                                                          ''''####''''         
             ,#######,   #######,   ,#######,      ##                                
            ,#'     '#,  ##    ##  ,#'     '#,    #''#        ,####,   ,####,        
            ##       ##  ##   ,#'  ##            #'  '#       #'       #'  '#        
            ##       ##  #######   ##           ,######,      #####,   #    #        
            '#,     ,#'  ##    ##  '#,     ,#' ,#      #,     #,   #   #,  ,#        
             '#######'   ##     ##  '#######'  #'      '#     '####' # '####'        



                #########################################################
                #                        -***-                          #
                #          Department of theory and spectroscopy        #
                #                                                       #
                #                      Frank Neese                      #
                #                                                       #
                #     Directorship, Architecture, Infrastructure        #
                #                    SHARK, DRIVERS                     #
                #        Core code/Algorithms in most modules           #
                #                                                       #
                #        Max Planck Institute fuer Kohlenforschung      #
                #                Kaiser Wilhelm Platz 1                 #
                #                 D-45470 Muelheim/Ruhr                 #
                #                      Germany                          #
                #                                                       #
                #                  All rights reserved                  #
                #                        -***-                          #
                #########################################################


                         Program Version 6.0.0  -   RELEASE  -


 With contributions from (in alphabetic order):
   Daniel Aravena         : Magnetic Suceptibility
   Michael Atanasov       : Ab Initio Ligand Field Theory (pilot matlab implementation)
   Alexander A. Auer      : GIAO ZORA, VPT2 properties, NMR spectrum
   Ute Becker             : All parallelization in ORCA, NUMFREQ, NUMCALC
   Giovanni Bistoni       : ED, misc. LED, open-shell LED, HFLD
   Martin Brehm           : Molecular dynamics
   Dmytro Bykov           : pre 5.0 version of the SCF Hessian
   Marcos Casanova-Páez   : Triplet and SCS-CIS(D). UHF-(DLPNO)-IP/EA/STEOM-CCSD. UHF-CVS-IP/STEOM-CCSD
   Vijay G. Chilkuri      : MRCI spin determinant printing, contributions to CSF-ICE
   Pauline Colinet        : FMM embedding
   Dipayan Datta          : RHF DLPNO-CCSD density
   Achintya Kumar Dutta   : EOM-CC, STEOM-CC
   Nicolas Foglia         : Exact transition moments, OPA infrastructure, MCD improvements
   Dmitry Ganyushin       : Spin-Orbit,Spin-Spin,Magnetic field MRCI
   Miquel Garcia          : C-PCM and meta-GGA Hessian, CCSD/C-PCM, Gaussian charge scheme
   Tiago L. C. Gouveia    : GS-ROHF, GS-ROCIS
   Yang Guo               : DLPNO-NEVPT2, F12-NEVPT2, CIM, IAO-localization
   Andreas Hansen         : Spin unrestricted coupled pair/coupled cluster methods
   Ingolf Harden          : AUTO-CI MPn and infrastructure 
   Benjamin Helmich-Paris : MC-RPA, TRAH-(SCF,CASSCF), AVAS, COSX integrals, SCF dyn. polar.
   Lee Huntington         : MR-EOM, pCC
   Robert Izsak           : Overlap fitted RIJCOSX, COSX-SCS-MP3, EOM
   Riya Kayal             : Wick's Theorem for AUTO-CI, AUTO-CI UHF-CCSDT
   Emily Kempfer          : AUTO-CI, RHF CISDT and CCSDT
   Christian Kollmar      : KDIIS, OOCD, Brueckner-CCSD(T), CCSD density, CASPT2, CASPT2-K, improved NEVPT2
   Axel Koslowski         : Symmetry handling
   Simone Kossmann        : Meta GGA functionals, TD-DFT gradient, OOMP2, (MP2 Hessian; deprecated post 5.0)
   Lucas Lang             : DCDCAS
   Marvin Lechner         : AUTO-CI (C++ implementation), FIC-MRCC
   Spencer Leger          : CASSCF response
   Dagmar Lenk            : GEPOL surface, SMD, ORCA-2-JSON
   Dimitrios Liakos       : Extrapolation schemes; Compound Job, initial MDCI parallelization
   Dimitrios Manganas     : Further ROCIS development; embedding schemes. LFT, Crystal Embedding
   Dimitrios Pantazis     : SARC Basis sets
   Anastasios Papadopoulos: AUTO-CI, single reference methods and gradients
   Taras Petrenko         : pre 6.0 DFT Hessian and TD-DFT gradient, (ASA, deprecated), ECA, 1-Electron XAS/XES, NRVS
   Peter Pinski           : DLPNO-MP2, DLPNO-MP2 Gradient
   Christoph Reimann      : Effective Core Potentials
   Marius Retegan         : Local ZFS, SOC
   Christoph Riplinger    : Optimizer, TS searches, QM/MM, DLPNO-CCSD(T), (RO)-DLPNO pert. Triples
   Michael Roemelt        : Original ROCIS implementation
   Masaaki Saitow         : Open-shell DLPNO-CCSD energy and density
   Barbara Sandhoefer     : DKH picture change effects
   Kantharuban Sivalingam : CASSCF convergence/infrastructure, NEVPT2 and variants, FIC-MRCI
   Bernardo de Souza      : ESD, SOC TD-DFT
   Georgi Stoychev        : AutoAux, RI-MP2 NMR, DLPNO-MP2 response, X2C
   Van Anh Tran           : RI-MP2 g-tensors
   Willem Van den Heuvel  : Paramagnetic NMR
   Zikuan Wang            : NOTCH, Electric field optimization 
   Frank Wennmohs         : Technical directorship and infrastructure
   Hang Xu                : AUTO-CI-Response properties 


 We gratefully acknowledge several colleagues who have allowed us to
 interface, adapt or use parts of their codes:
   Stefan Grimme, W. Hujo, H. Kruse, P. Pracht,  : VdW corrections, initial TS optimization,
                  C. Bannwarth, S. Ehlert,         DFT functionals, gCP, sTDA/sTD-DF
                  L. Wittmann, M. Mueller
   Ed Valeev, F. Pavosevic, A. Kumar             : LibInt (2-el integral package), F12 methods
   Garnet Chan, S. Sharma, J. Yang, R. Olivares  : DMRG
   Ulf Ekstrom                                   : XCFun DFT Library
   Mihaly Kallay                                 : mrcc  (arbitrary order and MRCC methods)
   Frank Weinhold                                : gennbo (NPA and NBO analysis)
   Simon Mueller                                 : openCOSMO-RS
   Christopher J. Cramer and Donald G. Truhlar   : smd solvation model
   Lars Goerigk                                  : TD-DFT with DH, B97 family of functionals
   V. Asgeirsson, H. Jonsson                     : NEB implementation
   FAccTs GmbH                                   : IRC, NEB, NEB-TS, DLPNO-Multilevel, CI-OPT
                                                   MM, QMMM, 2- and 3-layer-ONIOM, Crystal-QMMM,
                                                   LR-CPCM, SF, NACMEs, symmetry and pop. for TD-DFT,
                                                   nearIR, NL-DFT gradient (VV10), updates on ESD,
                                                   ML-optimized integration grids, MBIS, APM,
                                                   GOAT, DOCKER, SOLVATOR, interface openCOSMO-RS
   S Lehtola, MJT Oliveira, MAL Marques          : LibXC Library
   Liviu Ungur et al                             : ANISO software


 Your calculation uses the libint2 library for the computation of 2-el integrals
 For citations please refer to: http://libint.valeyev.net

 Your ORCA version has been built with support for libXC version: 6.2.2
 For citations please refer to: https://libxc.gitlab.io

 This ORCA versions uses:
   CBLAS   interface :  Fast vector & matrix operations
   LAPACKE interface :  Fast linear algebra routines
   SCALAPACK package :  Parallel linear algebra routines
   Shared memory     :  Shared parallel matrices
   BLAS/LAPACK       :  OpenBLAS 0.3.27  USE64BITINT DYNAMIC_ARCH NO_AFFINITY Sandybridge SINGLE_THREADED
        Core in use  :  Sandybridge
   Copyright (c) 2011-2014, The OpenBLAS Project


NOTE: MaxCore=3500 MB was set to SCF,MP2,MDCI,CIPSI,MRCI and CIS
      => If you want to overwrite this, your respective input block should be placed after the MaxCore statement
Your calculation utilizes the atom-pairwise dispersion correction
with the Becke-Johnson damping scheme (D3BJ)


Your calculation utilizes the SMD solvation module
Please cite in your paper:
A.V. Marenich, C.J. Cramer, D.G. Truhlar J. Phys. Chem. B, 113, (2009), 6378 

Warning: RI is on but no J-basis has been assigned. Assigning Def2/J (nothing to worry about!)
================================================================================

----- Orbital basis set information -----
Your calculation utilizes the basis: aug-cc-pVTZ 
    H, B-Ne : Obtained from the ccRepo (grant-hill.group.shef.ac.uk/ccrepo) Feb. 2017
              R. A. Kendall, T. H. Dunning, Jr., R. J. Harrison, J. Chem. Phys. 96, 6796 (1992)
         He : Obtained from the ccRepo (grant-hill.group.shef.ac.uk/ccrepo) Feb. 2017
              D. E. Woon, T. H. Dunning, Jr., J. Chem. Phys. 100, 2975 (1994)
  Li-Be, Na : Obtained from the ccRepo (grant-hill.group.shef.ac.uk/ccrepo) Feb. 2017
              B. P. Prascher, D. E. Woon, K. A. Peterson, T. H. Dunning, Jr., A. K. Wilson, Theor. Chem. Acc. 128, 69 (2011)
         Mg : Obtained from the Peterson Research Group Website (tyr0.chem.wsu.edu/~kipeters) Feb. 2017
              B. P. Prascher, D. E. Woon, K. A. Peterson, T. H. Dunning, Jr., A. K. Wilson, Theor. Chem. Acc. 128, 69 (2011)
      Al-Ar : Obtained from the ccRepo (grant-hill.group.shef.ac.uk/ccrepo) Feb. 2017
              D. E. Woon, T. H. Dunning, Jr., J. Chem. Phys. 98, 1358 (1993)
      Sc-Zn : Obtained from the ccRepo (grant-hill.group.shef.ac.uk/ccrepo) Feb. 2017
              N. B. Balabanov, K. A. Peterson, J. Chem. Phys. 123, 064107 (2005)
              N. B. Balabanov, K. A. Peterson, J. Chem. Phys. 125, 074110 (2006)
      Ga-Kr : Obtained from the ccRepo (grant-hill.group.shef.ac.uk/ccrepo) Feb. 2017
              A. K. Wilson, D. E. Woon, K. A. Peterson, T. H. Dunning, Jr., J. Chem. Phys. 110, 7667 (1999)
     Ag, Au : Obtained from the Peterson Research Group Website (tyr0.chem.wsu.edu/~kipeters) Feb. 2017
              K. A. Peterson, C. Puzzarini, Theor. Chem. Acc. 114, 283 (2005)

----- AuxJ basis set information -----
Your calculation utilizes the auxiliary basis: def2/J
   F. Weigend, Phys. Chem. Chem. Phys. 8, 1057 (2006).

================================================================================
                                        WARNINGS
                       Please study these warnings very carefully!
================================================================================


WARNING: your system is open-shell and RHF/RKS was chosen
  ===> : WILL SWITCH to UHF/UKS


================================================================================
                                       INPUT FILE
================================================================================
NAME = cs_rporg_w07_red_solv_02.inp
|  1> !B3LYP aug-cc-pVTZ d3 TightSCF SlowConv RIJCOSX defgrid2
|  2> 
|  3> %pal
|  4> nprocs 15
|  5> end
|  6> 
|  7> %scf
|  8> MaxIter 1500
|  9> end
| 10> 
| 11> %maxcore 3500
| 12> 
| 13> !CPCM
| 14> %cpcm smd true
| 15> SMDsolvent "WATER"
| 16> surfacetype gepol_ses
| 17> rsolv 1.40
| 18> end
| 19> 
| 20> * xyz -1 2
| 21> C           0.00000004903308      0.00000285676658     -0.07927677165041
| 22> C          -1.16509262301003     -0.35747694639887      0.71050337241250
| 23> C           1.16509408020432      0.35747595685912      0.71050209383188
| 24> H          -2.06362612463752     -0.63312787458135      0.14412716721423
| 25> H           2.06363121454948      0.63312802636862      0.14412668715351
| 26> C          -1.16509507944368     -0.35747268029138      2.08215495800193
| 27> C           1.16509160172280      0.35747686687021      2.08215370735606
| 28> H          -2.06363192155032     -0.63312031850306      2.64853168475760
| 29> H           2.06362610689310      0.63313254757272      2.64853030477196
| 30> C           0.00000131049034     -0.00000637822162      2.87193489848665
| 31> O           0.00000216772010     -0.00000733437022      4.12586654778909
| 32> O          -0.00000078197165     -0.00000472207076     -1.33320665012500
| 33> *
| 34> 
| 35>                          ****END OF INPUT****
================================================================================

                       ****************************
                       * Single Point Calculation *
                       ****************************

---------------------------------
CARTESIAN COORDINATES (ANGSTROEM)
---------------------------------
  C      0.000000    0.000003   -0.079277
  C     -1.165093   -0.357477    0.710503
  C      1.165094    0.357476    0.710502
  H     -2.063626   -0.633128    0.144127
  H      2.063631    0.633128    0.144127
  C     -1.165095   -0.357473    2.082155
  C      1.165092    0.357477    2.082154
  H     -2.063632   -0.633120    2.648532
  H      2.063626    0.633133    2.648530
  C      0.000001   -0.000006    2.871935
  O      0.000002   -0.000007    4.125867
  O     -0.000001   -0.000005   -1.333207

----------------------------
CARTESIAN COORDINATES (A.U.)
----------------------------
  NO LB      ZA    FRAG     MASS         X           Y           Z
   0 C     6.0000    0    12.011    0.000000    0.000005   -0.149811
   1 C     6.0000    0    12.011   -2.201706   -0.675534    1.342657
   2 C     6.0000    0    12.011    2.201709    0.675532    1.342654
   3 H     1.0000    0     1.008   -3.899688   -1.196438    0.272361
   4 H     1.0000    0     1.008    3.899698    1.196439    0.272360
   5 C     6.0000    0    12.011   -2.201711   -0.675525    3.934703
   6 C     6.0000    0    12.011    2.201704    0.675533    3.934700
   7 H     1.0000    0     1.008   -3.899699   -1.196424    5.005000
   8 H     1.0000    0     1.008    3.899688    1.196447    5.004997
   9 C     6.0000    0    12.011    0.000002   -0.000012    5.427170
  10 O     8.0000    0    15.999    0.000004   -0.000014    7.796758
  11 O     8.0000    0    15.999   -0.000001   -0.000009   -2.519395

--------------------------------
INTERNAL COORDINATES (ANGSTROEM)
--------------------------------
 C      0   0   0     0.000000000000     0.00000000     0.00000000
 C      1   0   0     1.452234629829     0.00000000     0.00000000
 C      1   2   0     1.452233374883   114.10946522     0.00000000
 H      2   1   3     1.097327614512   115.98094061   179.99797302
 H      3   1   2     1.097330463676   115.98110698   179.99769098
 C      2   1   3     1.371651585598   122.94532723     0.00000000
 C      3   1   2     1.371651613527   122.94516555     0.00000000
 H      6   2   1     1.097329792581   121.07378704   179.99730322
 H      7   3   1     1.097329832542   121.07364423   179.99814588
 C      7   3   1     1.452234136463   122.94543107     0.00000000
 O     10   7   3     1.253931649303   122.94531861   179.99985705
 O      1   2   3     1.253929878498   122.94514352   179.99932454

---------------------------
INTERNAL COORDINATES (A.U.)
---------------------------
 C      0   0   0     0.000000000000     0.00000000     0.00000000
 C      1   0   0     2.744325732574     0.00000000     0.00000000
 C      1   2   0     2.744323361068   114.10946522     0.00000000
 H      2   1   3     2.073648670616   115.98094061   179.99797302
 H      3   1   2     2.073654054757   115.98110698   179.99769098
 C      2   1   3     2.592045847940   122.94532723     0.00000000
 C      3   1   2     2.592045900717   122.94516555     0.00000000
 H      6   2   1     2.073652786570   121.07378704   179.99730322
 H      7   3   1     2.073652862085   121.07364423   179.99814588
 C      7   3   1     2.744324800247   122.94543107     0.00000000
 O     10   7   3     2.369587407839   122.94531861   179.99985705
 O      1   2   3     2.369584061502   122.94514352   179.99932454

---------------------
BASIS SET INFORMATION
---------------------
There are 3 groups of distinct atoms

 Group   1 Type C   : 19s6p3d2f contracted to 5s4p3d2f pattern {88111/3111/111/11}
 Group   2 Type H   : 6s3p2d contracted to 4s3p2d pattern {3111/111/11}
 Group   3 Type O   : 19s6p3d2f contracted to 5s4p3d2f pattern {88111/3111/111/11}

Atom   0C    basis set group =>   1
Atom   1C    basis set group =>   1
Atom   2C    basis set group =>   1
Atom   3H    basis set group =>   2
Atom   4H    basis set group =>   2
Atom   5C    basis set group =>   1
Atom   6C    basis set group =>   1
Atom   7H    basis set group =>   2
Atom   8H    basis set group =>   2
Atom   9C    basis set group =>   1
Atom  10O    basis set group =>   3
Atom  11O    basis set group =>   3
---------------------------------
AUXILIARY/J BASIS SET INFORMATION
---------------------------------
There are 3 groups of distinct atoms

 Group   1 Type C   : 12s5p4d2f1g contracted to 6s4p3d1f1g pattern {711111/2111/211/2/1}
 Group   2 Type H   : 5s2p1d contracted to 3s1p1d pattern {311/2/1}
 Group   3 Type O   : 12s5p4d2f1g contracted to 6s4p3d1f1g pattern {711111/2111/211/2/1}

Atom   0C    basis set group =>   1
Atom   1C    basis set group =>   1
Atom   2C    basis set group =>   1
Atom   3H    basis set group =>   2
Atom   4H    basis set group =>   2
Atom   5C    basis set group =>   1
Atom   6C    basis set group =>   1
Atom   7H    basis set group =>   2
Atom   8H    basis set group =>   2
Atom   9C    basis set group =>   1
Atom  10O    basis set group =>   3
Atom  11O    basis set group =>   3


           ************************************************************
           *        Program running with 15 parallel MPI-processes    *
           *              working on a common directory               *
           ************************************************************
------------------------------------------------------------------------------
                             ORCA STARTUP CALCULATIONS
                           -- RI-GTO INTEGRALS CHOSEN --
------------------------------------------------------------------------------
------------------------------------------------------------------------------
                   ___                                                        
                  /   \      - P O W E R E D   B Y -                         
                 /     \                                                     
                 |  |  |   _    _      __       _____    __    __             
                 |  |  |  | |  | |    /  \     |  _  \  |  |  /  |          
                  \  \/   | |  | |   /    \    | | | |  |  | /  /          
                 / \  \   | |__| |  /  /\  \   | |_| |  |  |/  /          
                |  |  |   |  __  | /  /__\  \  |    /   |      \           
                |  |  |   | |  | | |   __   |  |    \   |  |\   \          
                \     /   | |  | | |  |  |  |  | |\  \  |  | \   \       
                 \___/    |_|  |_| |__|  |__|  |_| \__\ |__|  \__/        
                                                                              
                      - O R C A' S   B I G   F R I E N D -                    
                                      &                                       
                       - I N T E G R A L  F E E D E R -                       
                                                                              
 v1 FN, 2020, v2 2021, v3 2022-2024                                           
------------------------------------------------------------------------------


----------------------
SHARK INTEGRAL PACKAGE
----------------------

Number of atoms                             ...     12
Number of basis functions                   ...    508
Number of shells                            ...    196
Maximum angular momentum                    ...      3
Integral batch strategy                     ... SHARK/LIBINT Hybrid
RI-J (if used) integral strategy            ... SPLIT-RIJ (Revised 2003 algorithm where possible)
Printlevel                                  ...      1
Contraction scheme used                     ... PARTIAL GENERAL contraction
Prescreening option                         ... SCHWARTZ
   Thresh                                   ... 2.500e-11
   Tcut                                     ... 2.500e-12
   Tpresel                                  ... 2.500e-12 
Coulomb Range Separation                    ... NOT USED
Exchange Range Separation                   ... NOT USED
Multipole approximations                    ... NOT USED
Finite Nucleus Model                        ... NOT USED
CABS basis                                  ... NOT available
Auxiliary Coulomb fitting basis             ... AVAILABLE
   # of basis functions in Aux-J            ...    436
   # of shells in Aux-J                     ...    140
   Maximum angular momentum in Aux-J        ...      4
Auxiliary J/K fitting basis                 ... NOT available
Auxiliary Correlation fitting basis         ... NOT available
Auxiliary 'external' fitting basis          ... NOT available

Checking pre-screening integrals            ... done (  0.1 sec) Dimension = 196
Save PGC pre-screening integrals            ... done (  0.1 sec) Dimension = 196
Calculate PGC overlap integrals             ... done (  0.2 sec) Dimension = 148
Calculating pre-screening integrals (ORCA)  ... done (  0.3 sec) Dimension = 148
Check shell pair data                       ... done (  0.1 sec)
Shell pair information
Shell pair cut-off parameter TPreSel        ...   2.5e-12
Total number of shell pairs                 ...     19306
Shell pairs after pre-screening             ...     16587
Total number of primitive shell pairs       ...     24346
Primitive shell pairs kept                  ...     19789
          la=0 lb=0:   3788 shell pairs
          la=1 lb=0:   4134 shell pairs
          la=1 lb=1:    964 shell pairs
          la=2 lb=0:   2976 shell pairs
          la=2 lb=1:   1364 shell pairs
          la=2 lb=2:    510 shell pairs
          la=3 lb=0:   1530 shell pairs
          la=3 lb=1:    690 shell pairs
          la=3 lb=2:    498 shell pairs
          la=3 lb=3:    133 shell pairs

Calculating one electron integrals          ... done (  0.0 sec)
Calculating RI/J V-Matrix + Cholesky decomp.... done (  0.0 sec)
Calculating Nuclear repulsion               ... done (  0.0 sec) ENN=    321.220245513539 Eh

Diagonalization of the overlap matrix:
Smallest eigenvalue                        ... 1.302e-06
Time for diagonalization                   ...    0.061 sec
Threshold for overlap eigenvalues          ... 1.000e-07
Number of eigenvalues below threshold      ... 0
Time for construction of square roots      ...    0.046 sec
Total time needed                          ...    0.178 sec

-------------------
DFT GRID GENERATION
-------------------

General Integration Accuracy     IntAcc      ... 4.388
Radial Grid Type                 RadialGrid  ... OptM3 with GC (2021)
Angular Grid (max. ang.)         AngularGrid ... 4 (Lebedev-302)
Angular grid pruning method      GridPruning ... 4 (adaptive)
Weight generation scheme         WeightScheme... mBecke (2022)
Basis function cutoff            BFCut       ... 1.0000e-11
Integration weight cutoff        WCut        ... 1.0000e-14
Partially contracted basis set               ... off
Rotationally invariant grid construction     ... off
Angular grids for H and He will be reduced by one unit
Diffuse basis detected: some atoms will have their outermost
                        angular grid increased by 1.

Total number of grid points                  ...    64236
Total number of batches                      ...     1012
Average number of points per batch           ...       63
Average number of grid points per atom       ...     5353

---------------------
SHARK GRID GENERATION
---------------------

General Integration Accuracy     IntAcc      ... 4.388
Radial Grid Type                 RadialGrid  ... OptM3 with GC (2021)
Angular Grid (max. ang.)         AngularGrid ... 4 (Lebedev-302)
Angular grid pruning method      GridPruning ... 4 (adaptive)
Weight generation scheme         WeightScheme... mBecke (2022)
Basis function cutoff            BFCut       ... 1.0000e-11
Integration weight cutoff        WCut        ... 1.0000e-14
Partially contracted basis set               ... off
Rotationally invariant grid construction     ... off
Angular grids for H and He will be reduced by one unit
Diffuse basis detected: some atoms will have their outermost
                        angular grid increased by 1.
Steep s-basis detected: some atoms will have their radial
                        grid points doubled.

Total number of grid points                  ...   115304
Total number of batches                      ...     1808
Average number of points per batch           ...       63
Average number of grid points per atom       ...     9609

--------------------
COSX GRID GENERATION
--------------------

GRIDX 1
-------
General Integration Accuracy     IntAcc      ... 3.816
Radial Grid Type                 RadialGrid  ... OptM3 with GC (2021)
Angular Grid (max. ang.)         AngularGrid ... 1 (Lebedev-50)
Angular grid pruning method      GridPruning ... 4 (adaptive)
Weight generation scheme         WeightScheme... mBecke (2022)
Basis function cutoff            BFCut       ... 1.0000e-11
Integration weight cutoff        WCut        ... 1.0000e-14
Partially contracted basis set               ... on
Rotationally invariant grid construction     ... off
Angular grids for H and He will be reduced by one unit
Diffuse basis detected: some atoms will have their outermost
                        angular grid increased by 1.

Total number of grid points                  ...     8094
Total number of batches                      ...       72
Average number of points per batch           ...      112
Average number of grid points per atom       ...      674
UseSFitting                                  ... on

GRIDX 2
-------
General Integration Accuracy     IntAcc      ... 4.020
Radial Grid Type                 RadialGrid  ... OptM3 with GC (2021)
Angular Grid (max. ang.)         AngularGrid ... 2 (Lebedev-110)
Angular grid pruning method      GridPruning ... 4 (adaptive)
Weight generation scheme         WeightScheme... mBecke (2022)
Basis function cutoff            BFCut       ... 1.0000e-11
Integration weight cutoff        WCut        ... 1.0000e-14
Partially contracted basis set               ... on
Rotationally invariant grid construction     ... off
Angular grids for H and He will be reduced by one unit
Diffuse basis detected: some atoms will have their outermost
                        angular grid increased by 1.

Total number of grid points                  ...    20642
Total number of batches                      ...      170
Average number of points per batch           ...      121
Average number of grid points per atom       ...     1720
UseSFitting                                  ... on

GRIDX 3
-------
General Integration Accuracy     IntAcc      ... 4.338
Radial Grid Type                 RadialGrid  ... OptM3 with GC (2021)
Angular Grid (max. ang.)         AngularGrid ... 3 (Lebedev-194)
Angular grid pruning method      GridPruning ... 4 (adaptive)
Weight generation scheme         WeightScheme... mBecke (2022)
Basis function cutoff            BFCut       ... 1.0000e-11
Integration weight cutoff        WCut        ... 1.0000e-14
Partially contracted basis set               ... on
Rotationally invariant grid construction     ... off
Angular grids for H and He will be reduced by one unit
Diffuse basis detected: some atoms will have their outermost
                        angular grid increased by 1.

Total number of grid points                  ...    45400
Total number of batches                      ...      360
Average number of points per batch           ...      126
Average number of grid points per atom       ...     3783
UseSFitting                                  ... on
Initializing property integral containers    ... done (  0.2 sec)

SHARK setup successfully completed in   5.5 seconds

Maximum memory used throughout the entire STARTUP-calculation: 43.4 MB


           ************************************************************
           *        Program running with 15 parallel MPI-processes    *
           *              working on a common directory               *
           ************************************************************
-------------------------------------------------------------------------------
                                 ORCA GUESS
                   Start orbitals & Density for SCF / CASSCF
-------------------------------------------------------------------------------

------------
SCF SETTINGS
------------
Hamiltonian:
 Density Functional     Method          .... DFT(GTOs)
 Exchange Functional    Exchange        .... B88
   X-Alpha parameter    XAlpha          ....  0.666667
   Becke's b parameter  XBeta           ....  0.004200
 Correlation Functional Correlation     .... LYP
 LDA part of GGA corr.  LDAOpt          .... VWN-5
 Gradients option       PostSCFGGA      .... off
 Hybrid DFT is turned on
   Fraction HF Exchange ScalHFX         ....  0.200000
   Scaling of DF-GGA-X  ScalDFX         ....  0.720000
   Scaling of DF-GGA-C  ScalDFC         ....  0.810000
   Scaling of DF-LDA-C  ScalLDAC        ....  1.000000
   Perturbative correction              ....  0.000000
   NL short-range parameter             ....  4.800000
 RI-approximation to the Coulomb term is turned on
   Number of AuxJ basis functions       .... 436
   RIJ-COSX (HFX calculated with COS-X)).... on


General Settings:
 Integral files         IntName         .... cs_rporg_w07_red_solv_02
 Hartree-Fock type      HFTyp           .... UHF
 Total Charge           Charge          ....   -1
 Multiplicity           Mult            ....    2
 Number of Electrons    NEL             ....   57
 Basis Dimension        Dim             ....  460
 Nuclear Repulsion      ENuc            ....    321.2202455135 Eh

Convergence Acceleration:
 AO-DIIS                CNVDIIS         .... on
   Start iteration      DIISMaxIt       ....     0
   Startup error        DIISStart       ....  0.200000
   # of expansion vecs  DIISMaxEq       ....     5
   Bias factor          DIISBfac        ....   1.050
   Max. coefficient     DIISMaxC        ....  10.000
 MO-DIIS                CNVKDIIS        .... off
 Trust-Rad. Augm. Hess. CNVTRAH         .... auto
   Auto Start mean grad. ratio tolernc. ....  1.125000
   Auto Start start iteration           ....    50
   Auto Start num. interpolation iter.  ....    10
   Max. Number of Micro iterations      ....    24
   Max. Number of Macro iterations      .... Maxiter - #DIIS iter
   Number of Davidson start vectors     ....     2
   Converg. threshold    (grad. norm)   ....   1.000e-05
   Grad. Scal. Fac. for Micro threshold ....   0.100
   Minimum threshold for Micro iter.    ....   1.000e-02
   NR start threshold (gradient norm)   ....   1.000e-04
   Initial trust radius                 ....   0.400
   Minimum AH scaling param. (alpha)    ....   1.000
   Maximum AH scaling param. (alpha)    .... 1000.000
   Quad. conv. algorithm                .... NR
   White noise on init. David. guess    .... on
   Maximum white noise                  ....   0.010
   Pseudo random numbers                .... off
   Inactive MOs                         .... canonical
   Orbital update algorithm             .... Taylor
   Preconditioner                       .... Diag
   Full preconditioner red. dimension   ....   250
 SOSCF                  CNVSOSCF        .... on
   Start iteration      SOSCFMaxIt      ....   150
   Startup grad/error   SOSCFStart      ....  0.001000
   Hessian update       SOSCFHessUp     .... L-BFGS
 Level Shifting         CNVShift        .... on
   Level shift para.    LevelShift      ....    0.2500
   Turn off err/grad.   ShiftErr        ....    0.0000
 Zerner damping         CNVZerner       .... off
 Static damping         CNVDamp         .... on
   Fraction old density DampFac         ....    0.8500
   Max. Damping (<1)    DampMax         ....    0.9800
   Min. Damping (>=0)   DampMin         ....    0.0000
   Turn off err/grad.   DampErr         ....    0.0300

SCF Procedure:
 Maximum # iterations   MaxIter         ....  1500
 SCF integral mode      SCFMode         .... Direct
   Integral package                     .... SHARK and LIBINT hybrid scheme
 Reset frequency        DirectResetFreq ....    20
 Integral Threshold     Thresh          ....  2.500e-11 Eh
 Primitive CutOff       TCut            ....  2.500e-12 Eh

Convergence Tolerance:
 Convergence Check Mode ConvCheckMode   .... Total+1el-Energy
 Convergence forced     ConvForced      .... 0
 Energy Change          TolE            ....  1.000e-08 Eh
 1-El. energy change                    ....  1.000e-05 Eh
 Orbital Gradient       TolG            ....  1.000e-05
 Orbital Rotation angle TolX            ....  1.000e-05
 DIIS Error             TolErr          ....  5.000e-07

------------------------------
INITIAL GUESS: MODEL POTENTIAL
------------------------------
Loading Hartree-Fock densities                     ... done
Calculating cut-offs                               ... done
Initializing the effective Hamiltonian             ... done
Setting up the integral package (SHARK)            ... done
Starting the Coulomb interaction                   ... done (   0.3 sec)
Making the grid                                    ... done (   0.3 sec)
Mapping shells                                     ... done
Starting the XC term evaluation                    ... done (   0.2 sec)
  promolecular density results
     # of electrons  =     55.999170715
     EX              =    -48.345593126
     EC              =     -1.923111955
     EX+EC           =    -50.268705081
Transforming the Hamiltonian                       ... done (   0.1 sec)
Diagonalizing the Hamiltonian                      ... done (   0.1 sec)
Back transforming the eigenvectors                 ... done (   0.2 sec)
Now organizing SCF variables                       ... done
                      ------------------
                      INITIAL GUESS DONE (   2.1 sec)
                      ------------------
             **** ENERGY FILE WAS UPDATED (cs_rporg_w07_red_solv_02.en.tmp) ****
Finished Guess after   5.1 sec
Maximum memory used throughout the entire GUESS-calculation: 28.1 MB


           ************************************************************
           *        Program running with 15 parallel MPI-processes    *
           *              working on a common directory               *
           ************************************************************

-------------------------------------------------------------------------------------------
                                      ORCA LEAN-SCF
                              memory conserving SCF solver
-------------------------------------------------------------------------------------------

--------------------
CPCM SOLVATION MODEL
--------------------
CPCM parameters:
  Epsilon                                         ...      78.3550
  Refrac                                          ...       1.3328
  Rsolv                                           ...       1.4000
  Surface type                                    ...    GEPOL SES
  Discretization scheme                           ... Constant num. charges
  Epsilon function type                           ...         CPCM
Solvent:                                          ... WATER
SMD-CDS solvent descriptors:
  Soln                                            ...       1.3328
  Soln25                                          ...       1.3323
  Sola                                            ...       0.0000
  Solb                                            ...       0.0000
  Solg                                            ...       0.0000
  Solc                                            ...       0.0000
  Solh                                            ...       0.0000
Radii:
  Scheme                                          ... Element-dependent radii
  Radius for C  used is    3.4960 Bohr (=   1.8500 Ang.)
  Radius for H  used is    2.2677 Bohr (=   1.2000 Ang.)
  Radius for O  used is    2.8724 Bohr (=   1.5200 Ang.)
Calculating surface                               ...        done! (  0.0s)
Cavity surface points                             ...          406
Cavity Volume                                     ...     707.7368
Cavity Surface-area                               ...     446.8775
Calculating surface distance matrix               ...        done! (  0.0s)
Performing Cholesky decomposition & store         ...        done! (  0.0s)
Overall time for CPCM initialization              ...                 0.0s

----------------------------------------D-I-I-S--------------------------------------------
Iteration    Energy (Eh)           Delta-E    RMSDP     MaxDP     DIISErr   Damp  Time(sec)
-------------------------------------------------------------------------------------------
               ***  Starting incremental Fock matrix formation  ***
    1    -381.2732223064220989     0.00e+00  8.85e-04  3.67e-02  1.66e-01  0.850   8.7
Warning: op=0 Small HOMO/LUMO gap (   0.085) - skipping pre-diagonalization
         Will do a full diagonalization
    2    -381.3519262583408818    -7.87e-02  9.15e-04  4.30e-02  1.16e-01  0.850   8.5
                               ***Turning on AO-DIIS***
    3    -381.4008561093706930    -4.89e-02  5.19e-04  2.36e-02  7.40e-02  0.850   7.6
    4    -381.4313978242804524    -3.05e-02  3.63e-04  1.44e-02  6.00e-02  0.850   8.8
    5    -381.4534896661756420    -2.21e-02  2.97e-04  1.17e-02  5.19e-02  0.850   9.1
    6    -381.4711551146233433    -1.77e-02  2.59e-04  1.08e-02  4.49e-02  0.850   7.3
    7    -381.4858465498922442    -1.47e-02  2.26e-04  1.02e-02  3.78e-02  0.850   7.5
    8    -381.4980503100244960    -1.22e-02  1.88e-04  8.84e-03  3.10e-02  0.850   8.1
    9    -381.5080254718540118    -9.98e-03  1.57e-04  7.42e-03  2.60e-02  0.850   7.1
   10    -381.5162514743669817    -8.23e-03  8.94e-04  4.30e-02  2.22e-02  0.000   6.9
   11    -381.5598446655998259    -4.36e-02  3.25e-05  1.28e-03  1.01e-03  0.000   7.9
   12    -381.5598616243109973    -1.70e-05  2.05e-05  1.06e-03  2.02e-03  0.000   8.3
                              *** Initializing SOSCF ***
---------------------------------------S-O-S-C-F--------------------------------------
Iteration    Energy (Eh)           Delta-E    RMSDP     MaxDP     MaxGrad    Time(sec)
--------------------------------------------------------------------------------------
   13    -381.5598870394105688    -2.54e-05  2.30e-05  1.89e-03  3.63e-04     8.4
               *** Restarting incremental Fock matrix formation ***
   14    -381.5598860080316399     1.03e-06  1.82e-04  9.58e-03  2.13e-04     7.8
   15    -381.5598871789834448    -1.17e-06  1.06e-04  5.86e-03  1.63e-04     7.3
   16    -381.5598871405907175     3.84e-08  8.52e-05  4.55e-03  2.05e-04     7.9
   17    -381.5598875142788984    -3.74e-07  1.19e-05  1.05e-03  1.39e-05     7.5
   18    -381.5598875157348857    -1.46e-09  8.98e-06  6.78e-04  1.08e-05     7.1
                 **** Energy Check signals convergence ****

               *****************************************************
               *                     SUCCESS                       *
               *           SCF CONVERGED AFTER  18 CYCLES          *
               *****************************************************

Recomputing exchange energy using gridx3       ... done (    5.055 sec)
Old exchange energy                            :     -9.829758897 Eh
New exchange energy                            :     -9.829779591 Eh
Exchange energy change after final integration :     -0.000020694 Eh
Total energy after final integration           :   -381.559908210 Eh

SMD CDS free energy correction energy :                 4.34086     Kcal/mol
Total Energy after SMD CDS correction =              -381.552990607 Eh
             **** ENERGY FILE WAS UPDATED (cs_rporg_w07_red_solv_02.en.tmp) ****

----------------
TOTAL SCF ENERGY
----------------

Total Energy       :       -381.55299060742078 Eh          -10382.58471 eV

Components:
Nuclear Repulsion  :        321.22024551353945 Eh            8740.84726 eV
Electronic Energy  :       -702.67811083495383 Eh          -19120.84348 eV
One Electron Energy:      -1165.86506064914215 Eh          -31724.80116 eV
Two Electron Energy:        463.18694981418832 Eh           12603.95768 eV
CPCM Dielectric    :         -0.10202219432057 Eh              -2.77617 eV
SMD CDS (Gcds)     :          0.00691760227551 Eh               0.18824 eV

Virial components:
Potential Energy   :       -760.90773203428296 Eh          -20705.35203 eV
Kinetic Energy     :        379.35474142686218 Eh           10322.76731 eV
Virial Ratio       :          2.00579470595857

DFT components:
N(Alpha)           :       29.000048982444 electrons
N(Beta)            :       28.000048162624 electrons
N(Total)           :       57.000097145068 electrons
E(X)               :      -39.129231161689 Eh       
E(C)               :       -2.305445678786 Eh       
E(XC)              :      -41.434676840475 Eh       

CPCM Solvation Model Properties:
Surface-charge          :          0.93414992931680
Corrected charge        :          1.00000000000000
Outlying charge corr.   :          0.00036641159634 Eh               0.00997 eV
Free-energy (cav+disp)  :          0.00691760227551 Eh               0.18824 eV

---------------
SCF CONVERGENCE
---------------

  Last Energy change         ...    1.4560e-09  Tolerance :   1.0000e-08
  Last MAX-Density change    ...    6.7785e-04  Tolerance :   1.0000e-07
  Last RMS-Density change    ...    8.9833e-06  Tolerance :   5.0000e-09
  Last DIIS Error            ...    3.6334e-04  Tolerance :   5.0000e-07
  Last Orbital Gradient      ...    1.0769e-05  Tolerance :   1.0000e-05
  Last Orbital Rotation      ...    1.4854e-05  Tolerance :   1.0000e-05


----------------------
UHF SPIN CONTAMINATION
----------------------

Warning: in a DFT calculation there is little theoretical justification to 
         calculate <S**2> as in Hartree-Fock theory. We will do it anyways
         but you should keep in mind that the values have only limited relevance

Expectation value of <S**2>     :     0.758442
Ideal value S*(S+1) for S=0.5   :     0.750000
Deviation                       :     0.008442

----------------
ORBITAL ENERGIES
----------------
                 SPIN UP ORBITALS
  NO   OCC          E(Eh)            E(eV) 
   0   1.0000     -19.093640      -519.5644 
   1   1.0000     -19.093638      -519.5643 
   2   1.0000     -10.227921      -278.3159 
   3   1.0000     -10.227886      -278.3149 
   4   1.0000     -10.169578      -276.7283 
   5   1.0000     -10.169547      -276.7274 
   6   1.0000     -10.168869      -276.7090 
   7   1.0000     -10.168833      -276.7080 
   8   1.0000      -1.012776       -27.5590 
   9   1.0000      -1.010872       -27.5072 
  10   1.0000      -0.821476       -22.3535 
  11   1.0000      -0.741236       -20.1701 
  12   1.0000      -0.685240       -18.6463 
  13   1.0000      -0.601882       -16.3780 
  14   1.0000      -0.565542       -15.3892 
  15   1.0000      -0.476706       -12.9718 
  16   1.0000      -0.472463       -12.8564 
  17   1.0000      -0.449094       -12.2205 
  18   1.0000      -0.415244       -11.2994 
  19   1.0000      -0.412154       -11.2153 
  20   1.0000      -0.408631       -11.1194 
  21   1.0000      -0.387511       -10.5447 
  22   1.0000      -0.384421       -10.4606 
  23   1.0000      -0.356968        -9.7136 
  24   1.0000      -0.291622        -7.9354 
  25   1.0000      -0.261909        -7.1269 
  26   1.0000      -0.255708        -6.9582 
  27   1.0000      -0.247989        -6.7481 
  28   1.0000      -0.170304        -4.6342 
  29   0.0000      -0.012975        -0.3531 
  30   0.0000       0.003237         0.0881 
  31   0.0000       0.017090         0.4650 
  32   0.0000       0.018141         0.4936 
  33   0.0000       0.019145         0.5210 
  34   0.0000       0.040337         1.0976 
  35   0.0000       0.041782         1.1370 
  36   0.0000       0.052890         1.4392 
  37   0.0000       0.061977         1.6865 
  38   0.0000       0.069893         1.9019 
  39   0.0000       0.071712         1.9514 

                 SPIN DOWN ORBITALS
  NO   OCC          E(Eh)            E(eV) 
   0   1.0000     -19.087075      -519.3857 
   1   1.0000     -19.087073      -519.3857 
   2   1.0000     -10.226266      -278.2708 
   3   1.0000     -10.226233      -278.2699 
   4   1.0000     -10.168474      -276.6982 
   5   1.0000     -10.168443      -276.6974 
   6   1.0000     -10.167751      -276.6786 
   7   1.0000     -10.167719      -276.6777 
   8   1.0000      -1.001112       -27.2416 
   9   1.0000      -0.999021       -27.1847 
  10   1.0000      -0.814953       -22.1760 
  11   1.0000      -0.738175       -20.0868 
  12   1.0000      -0.673673       -18.3316 
  13   1.0000      -0.597210       -16.2509 
  14   1.0000      -0.560970       -15.2648 
  15   1.0000      -0.471926       -12.8418 
  16   1.0000      -0.470220       -12.7953 
  17   1.0000      -0.444324       -12.0907 
  18   1.0000      -0.407624       -11.0920 
  19   1.0000      -0.407016       -11.0755 
  20   1.0000      -0.393442       -10.7061 
  21   1.0000      -0.380762       -10.3611 
  22   1.0000      -0.357536        -9.7290 
  23   1.0000      -0.354374        -9.6430 
  24   1.0000      -0.259647        -7.0654 
  25   1.0000      -0.253279        -6.8921 
  26   1.0000      -0.249727        -6.7954 
  27   1.0000      -0.242426        -6.5967 
  28   0.0000      -0.096819        -2.6346 
  29   0.0000       0.001910         0.0520 
  30   0.0000       0.003520         0.0958 
  31   0.0000       0.017136         0.4663 
  32   0.0000       0.018518         0.5039 
  33   0.0000       0.035767         0.9733 
  34   0.0000       0.040451         1.1007 
  35   0.0000       0.042254         1.1498 
  36   0.0000       0.061094         1.6625 
  37   0.0000       0.062751         1.7075 
  38   0.0000       0.071389         1.9426 
*Only the first 10 virtual orbitals were printed.

                    ********************************
                    * MULLIKEN POPULATION ANALYSIS *
                    ********************************

--------------------------------------------
MULLIKEN ATOMIC CHARGES AND SPIN POPULATIONS
--------------------------------------------
   0 C :    0.973516    0.114898
   1 C :   -0.617818    0.076120
   2 C :   -0.617933    0.076238
   3 H :    0.449064    0.000035
   4 H :    0.448790    0.000036
   5 C :   -0.617243    0.076115
   6 C :   -0.616977    0.076184
   7 H :    0.448613    0.000073
   8 H :    0.448651    0.000097
   9 C :    0.973494    0.115029
  10 O :   -1.136221    0.232574
  11 O :   -1.135937    0.232603
Sum of atomic charges         :   -1.0000000
Sum of atomic spin populations:    1.0000000

-----------------------------------------------------
MULLIKEN REDUCED ORBITAL CHARGES AND SPIN POPULATIONS
-----------------------------------------------------
CHARGE
  0 C s       :     3.151141  s :     3.151141
      pz      :     0.490789  p :     1.758233
      px      :     0.516701
      py      :     0.750743
      dz2     :    -0.035211  d :     0.131787
      dxz     :     0.079870
      dyz     :     0.064799
      dx2y2   :     0.010101
      dxy     :     0.012228
      f0      :    -0.004528  f :    -0.014678
      f+1     :    -0.012708
      f-1     :     0.002116
      f+2     :    -0.001885
      f-2     :     0.000738
      f+3     :     0.001017
      f-3     :     0.000573

  1 C s       :     3.572643  s :     3.572643
      pz      :     1.021432  p :     2.957116
      px      :     0.969181
      py      :     0.966503
      dz2     :     0.081380  d :     0.105516
      dxz     :    -0.041453
      dyz     :     0.028179
      dx2y2   :     0.020895
      dxy     :     0.016515
      f0      :    -0.002133  f :    -0.017457
      f+1     :    -0.015984
      f-1     :    -0.001187
      f+2     :     0.001466
      f-2     :    -0.000134
      f+3     :     0.000387
      f-3     :     0.000128

  2 C s       :     3.572068  s :     3.572068
      pz      :     1.021909  p :     2.957638
      px      :     0.969024
      py      :     0.966706
      dz2     :     0.081616  d :     0.105608
      dxz     :    -0.041803
      dyz     :     0.028421
      dx2y2   :     0.020805
      dxy     :     0.016570
      f0      :    -0.002127  f :    -0.017381
      f+1     :    -0.015900
      f-1     :    -0.001201
      f+2     :     0.001481
      f-2     :    -0.000147
      f+3     :     0.000388
      f-3     :     0.000125

  3 H s       :     0.565397  s :     0.565397
      pz      :    -0.007494  p :    -0.018981
      px      :    -0.023144
      py      :     0.011657
      dz2     :     0.001256  d :     0.004519
      dxz     :     0.000632
      dyz     :     0.000954
      dx2y2   :     0.000216
      dxy     :     0.001462

  4 H s       :     0.565689  s :     0.565689
      pz      :    -0.007569  p :    -0.018995
      px      :    -0.022982
      py      :     0.011556
      dz2     :     0.001258  d :     0.004516
      dxz     :     0.000617
      dyz     :     0.000961
      dx2y2   :     0.000215
      dxy     :     0.001465

  5 C s       :     3.572243  s :     3.572243
      pz      :     1.021106  p :     2.956665
      px      :     0.968851
      py      :     0.966707
      dz2     :     0.081658  d :     0.105778
      dxz     :    -0.041713
      dyz     :     0.028461
      dx2y2   :     0.020793
      dxy     :     0.016578
      f0      :    -0.002119  f :    -0.017443
      f+1     :    -0.015968
      f-1     :    -0.001207
      f+2     :     0.001487
      f-2     :    -0.000147
      f+3     :     0.000388
      f-3     :     0.000123

  6 C s       :     3.571682  s :     3.571682
      pz      :     1.021642  p :     2.957146
      px      :     0.969014
      py      :     0.966491
      dz2     :     0.081529  d :     0.105577
      dxz     :    -0.041533
      dyz     :     0.028177
      dx2y2   :     0.020877
      dxy     :     0.016526
      f0      :    -0.002138  f :    -0.017428
      f+1     :    -0.015945
      f-1     :    -0.001183
      f+2     :     0.001462
      f-2     :    -0.000137
      f+3     :     0.000388
      f-3     :     0.000124

  7 H s       :     0.565868  s :     0.565868
      pz      :    -0.007568  p :    -0.018998
      px      :    -0.022994
      py      :     0.011564
      dz2     :     0.001258  d :     0.004517
      dxz     :     0.000621
      dyz     :     0.000960
      dx2y2   :     0.000214
      dxy     :     0.001465

  8 H s       :     0.565810  s :     0.565810
      pz      :    -0.007516  p :    -0.018978
      px      :    -0.023121
      py      :     0.011660
      dz2     :     0.001258  d :     0.004517
      dxz     :     0.000628
      dyz     :     0.000954
      dx2y2   :     0.000215
      dxy     :     0.001462

  9 C s       :     3.151233  s :     3.151233
      pz      :     0.490988  p :     1.758565
      px      :     0.516733
      py      :     0.750844
      dz2     :    -0.035372  d :     0.131423
      dxz     :     0.079676
      dyz     :     0.064762
      dx2y2   :     0.010126
      dxy     :     0.012231
      f0      :    -0.004538  f :    -0.014714
      f+1     :    -0.012733
      f-1     :     0.002115
      f+2     :    -0.001892
      f-2     :     0.000738
      f+3     :     0.001021
      f-3     :     0.000574

 10 O s       :     4.179081  s :     4.179081
      pz      :     1.401678  p :     4.900903
      px      :     1.916014
      py      :     1.583211
      dz2     :     0.006359  d :     0.051410
      dxz     :     0.019535
      dyz     :     0.023776
      dx2y2   :     0.000972
      dxy     :     0.000768
      f0      :     0.000014  f :     0.004827
      f+1     :     0.002391
      f-1     :     0.001988
      f+2     :     0.000221
      f-2     :     0.000154
      f+3     :     0.000025
      f-3     :     0.000033

 11 O s       :     4.178817  s :     4.178817
      pz      :     1.401693  p :     4.900886
      px      :     1.915967
      py      :     1.583226
      dz2     :     0.006357  d :     0.051407
      dxz     :     0.019533
      dyz     :     0.023777
      dx2y2   :     0.000972
      dxy     :     0.000768
      f0      :     0.000014  f :     0.004827
      f+1     :     0.002391
      f-1     :     0.001988
      f+2     :     0.000221
      f-2     :     0.000155
      f+3     :     0.000026
      f-3     :     0.000033


SPIN
  0 C s       :     0.003611  s :     0.003611
      pz      :    -0.008003  p :     0.104519
      px      :     0.010376
      py      :     0.102147
      dz2     :    -0.002146  d :     0.007544
      dxz     :    -0.001193
      dyz     :     0.013893
      dx2y2   :    -0.001809
      dxy     :    -0.001200
      f0      :    -0.000021  f :    -0.000777
      f+1     :    -0.002001
      f-1     :     0.001755
      f+2     :    -0.000135
      f-2     :     0.000011
      f+3     :    -0.000199
      f-3     :    -0.000186

  1 C s       :    -0.002981  s :    -0.002981
      pz      :     0.002107  p :     0.069704
      px      :     0.005780
      py      :     0.061816
      dz2     :     0.001951  d :     0.010334
      dxz     :     0.001521
      dyz     :     0.006883
      dx2y2   :    -0.000601
      dxy     :     0.000581
      f0      :    -0.000321  f :    -0.000936
      f+1     :    -0.000016
      f-1     :     0.000229
      f+2     :    -0.000408
      f-2     :    -0.000296
      f+3     :    -0.000084
      f-3     :    -0.000040

  2 C s       :    -0.003012  s :    -0.003012
      pz      :     0.002199  p :     0.069831
      px      :     0.005829
      py      :     0.061803
      dz2     :     0.001950  d :     0.010357
      dxz     :     0.001528
      dyz     :     0.006889
      dx2y2   :    -0.000593
      dxy     :     0.000583
      f0      :    -0.000321  f :    -0.000938
      f+1     :    -0.000022
      f-1     :     0.000232
      f+2     :    -0.000411
      f-2     :    -0.000293
      f+3     :    -0.000083
      f-3     :    -0.000040

  3 H s       :    -0.001118  s :    -0.001118
      pz      :    -0.000680  p :     0.000879
      px      :     0.000776
      py      :     0.000783
      dz2     :     0.000039  d :     0.000274
      dxz     :    -0.000002
      dyz     :     0.000009
      dx2y2   :     0.000121
      dxy     :     0.000107

  4 H s       :    -0.001126  s :    -0.001126
      pz      :    -0.000678  p :     0.000888
      px      :     0.000778
      py      :     0.000788
      dz2     :     0.000039  d :     0.000274
      dxz     :    -0.000002
      dyz     :     0.000009
      dx2y2   :     0.000122
      dxy     :     0.000106

  5 C s       :    -0.003058  s :    -0.003058
      pz      :     0.002166  p :     0.069783
      px      :     0.005820
      py      :     0.061797
      dz2     :     0.001947  d :     0.010326
      dxz     :     0.001525
      dyz     :     0.006864
      dx2y2   :    -0.000595
      dxy     :     0.000585
      f0      :    -0.000321  f :    -0.000937
      f+1     :    -0.000019
      f-1     :     0.000230
      f+2     :    -0.000411
      f-2     :    -0.000292
      f+3     :    -0.000084
      f-3     :    -0.000040

  6 C s       :    -0.003058  s :    -0.003058
      pz      :     0.002246  p :     0.069856
      px      :     0.005803
      py      :     0.061808
      dz2     :     0.001946  d :     0.010321
      dxz     :     0.001497
      dyz     :     0.006901
      dx2y2   :    -0.000600
      dxy     :     0.000577
      f0      :    -0.000320  f :    -0.000935
      f+1     :    -0.000019
      f-1     :     0.000231
      f+2     :    -0.000408
      f-2     :    -0.000296
      f+3     :    -0.000083
      f-3     :    -0.000039

  7 H s       :    -0.001100  s :    -0.001100
      pz      :    -0.000670  p :     0.000899
      px      :     0.000784
      py      :     0.000785
      dz2     :     0.000039  d :     0.000274
      dxz     :    -0.000002
      dyz     :     0.000009
      dx2y2   :     0.000122
      dxy     :     0.000106

  8 H s       :    -0.001063  s :    -0.001063
      pz      :    -0.000675  p :     0.000886
      px      :     0.000775
      py      :     0.000785
      dz2     :     0.000039  d :     0.000274
      dxz     :    -0.000003
      dyz     :     0.000009
      dx2y2   :     0.000121
      dxy     :     0.000107

  9 C s       :     0.003673  s :     0.003673
      pz      :    -0.007978  p :     0.104567
      px      :     0.010394
      py      :     0.102150
      dz2     :    -0.002132  d :     0.007566
      dxz     :    -0.001175
      dyz     :     0.013893
      dx2y2   :    -0.001816
      dxy     :    -0.001204
      f0      :    -0.000020  f :    -0.000777
      f+1     :    -0.002001
      f-1     :     0.001753
      f+2     :    -0.000135
      f-2     :     0.000011
      f+3     :    -0.000199
      f-3     :    -0.000187

 10 O s       :     0.004920  s :     0.004920
      pz      :     0.006678  p :     0.222779
      px      :     0.022424
      py      :     0.193677
      dz2     :    -0.000092  d :     0.004788
      dxz     :     0.000307
      dyz     :     0.004552
      dx2y2   :     0.000024
      dxy     :    -0.000003
      f0      :    -0.000079  f :     0.000086
      f+1     :     0.000096
      f-1     :     0.000042
      f+2     :     0.000004
      f-2     :     0.000003
      f+3     :     0.000011
      f-3     :     0.000010

 11 O s       :     0.004946  s :     0.004946
      pz      :     0.006683  p :     0.222782
      px      :     0.022422
      py      :     0.193676
      dz2     :    -0.000092  d :     0.004789
      dxz     :     0.000307
      dyz     :     0.004553
      dx2y2   :     0.000024
      dxy     :    -0.000004
      f0      :    -0.000079  f :     0.000086
      f+1     :     0.000096
      f-1     :     0.000042
      f+2     :     0.000004
      f-2     :     0.000003
      f+3     :     0.000011
      f-3     :     0.000010



                     *******************************
                     * LOEWDIN POPULATION ANALYSIS *
                     *******************************

-------------------------------------------
LOEWDIN ATOMIC CHARGES AND SPIN POPULATIONS
-------------------------------------------
   0 C :   -0.703989    0.125097
   1 C :    0.140625    0.074767
   2 C :    0.140628    0.074774
   3 H :   -0.192263    0.007462
   4 H :   -0.192256    0.007464
   5 C :    0.140629    0.074773
   6 C :    0.140626    0.074767
   7 H :   -0.192257    0.007464
   8 H :   -0.192261    0.007462
   9 C :   -0.703988    0.125097
  10 O :    0.307252    0.210437
  11 O :    0.307254    0.210436

----------------------------------------------------
LOEWDIN REDUCED ORBITAL CHARGES AND SPIN POPULATIONS
----------------------------------------------------
CHARGE
  0 C s       :     2.499802  s :     2.499802
      pz      :     0.857649  p :     2.299068
      px      :     0.828135
      py      :     0.613283
      dz2     :     0.350881  d :     1.257239
      dxz     :     0.402288
      dyz     :     0.259066
      dx2y2   :     0.127854
      dxy     :     0.117150
      f0      :     0.129473  f :     0.647880
      f+1     :     0.243697
      f-1     :     0.106520
      f+2     :     0.047093
      f-2     :     0.053011
      f+3     :     0.032355
      f-3     :     0.035732

  1 C s       :     2.509228  s :     2.509228
      pz      :     0.878401  p :     2.325445
      px      :     0.808880
      py      :     0.638164
      dz2     :     0.187106  d :     0.696319
      dxz     :     0.245332
      dyz     :     0.125867
      dx2y2   :     0.074714
      dxy     :     0.063299
      f0      :     0.059164  f :     0.328384
      f+1     :     0.117201
      f-1     :     0.049092
      f+2     :     0.031765
      f-2     :     0.029498
      f+3     :     0.020170
      f-3     :     0.021493

  2 C s       :     2.509228  s :     2.509228
      pz      :     0.878402  p :     2.325435
      px      :     0.808883
      py      :     0.638150
      dz2     :     0.187106  d :     0.696322
      dxz     :     0.245336
      dyz     :     0.125867
      dx2y2   :     0.074723
      dxy     :     0.063291
      f0      :     0.059164  f :     0.328386
      f+1     :     0.117201
      f-1     :     0.049094
      f+2     :     0.031767
      f-2     :     0.029497
      f+3     :     0.020171
      f-3     :     0.021493

  3 H s       :     0.670288  s :     0.670288
      pz      :     0.096557  p :     0.305258
      px      :     0.122185
      py      :     0.086517
      dz2     :     0.050940  d :     0.216717
      dxz     :     0.053568
      dyz     :     0.025134
      dx2y2   :     0.044596
      dxy     :     0.042480

  4 H s       :     0.670288  s :     0.670288
      pz      :     0.096555  p :     0.305253
      px      :     0.122182
      py      :     0.086515
      dz2     :     0.050939  d :     0.216715
      dxz     :     0.053569
      dyz     :     0.025133
      dx2y2   :     0.044601
      dxy     :     0.042474

  5 C s       :     2.509228  s :     2.509228
      pz      :     0.878402  p :     2.325434
      px      :     0.808883
      py      :     0.638149
      dz2     :     0.187106  d :     0.696322
      dxz     :     0.245336
      dyz     :     0.125867
      dx2y2   :     0.074723
      dxy     :     0.063291
      f0      :     0.059164  f :     0.328386
      f+1     :     0.117201
      f-1     :     0.049093
      f+2     :     0.031767
      f-2     :     0.029497
      f+3     :     0.020171
      f-3     :     0.021493

  6 C s       :     2.509226  s :     2.509226
      pz      :     0.878401  p :     2.325445
      px      :     0.808880
      py      :     0.638164
      dz2     :     0.187106  d :     0.696319
      dxz     :     0.245332
      dyz     :     0.125868
      dx2y2   :     0.074714
      dxy     :     0.063299
      f0      :     0.059164  f :     0.328384
      f+1     :     0.117201
      f-1     :     0.049092
      f+2     :     0.031765
      f-2     :     0.029499
      f+3     :     0.020170
      f-3     :     0.021493

  7 H s       :     0.670288  s :     0.670288
      pz      :     0.096556  p :     0.305253
      px      :     0.122182
      py      :     0.086515
      dz2     :     0.050939  d :     0.216716
      dxz     :     0.053569
      dyz     :     0.025133
      dx2y2   :     0.044601
      dxy     :     0.042473

  8 H s       :     0.670288  s :     0.670288
      pz      :     0.096556  p :     0.305257
      px      :     0.122184
      py      :     0.086516
      dz2     :     0.050940  d :     0.216717
      dxz     :     0.053568
      dyz     :     0.025134
      dx2y2   :     0.044596
      dxy     :     0.042480

  9 C s       :     2.499802  s :     2.499802
      pz      :     0.857649  p :     2.299068
      px      :     0.828135
      py      :     0.613284
      dz2     :     0.350881  d :     1.257237
      dxz     :     0.402287
      dyz     :     0.259065
      dx2y2   :     0.127854
      dxy     :     0.117150
      f0      :     0.129473  f :     0.647880
      f+1     :     0.243697
      f-1     :     0.106520
      f+2     :     0.047093
      f-2     :     0.053011
      f+3     :     0.032355
      f-3     :     0.035732

 10 O s       :     3.217889  s :     3.217889
      pz      :     1.413323  p :     4.165619
      px      :     1.470008
      py      :     1.282289
      dz2     :     0.076756  d :     0.235078
      dxz     :     0.093281
      dyz     :     0.058786
      dx2y2   :     0.003335
      dxy     :     0.002920
      f0      :     0.023318  f :     0.074163
      f+1     :     0.029928
      f-1     :     0.019203
      f+2     :     0.000837
      f-2     :     0.000761
      f+3     :     0.000059
      f-3     :     0.000056

 11 O s       :     3.217887  s :     3.217887
      pz      :     1.413323  p :     4.165617
      px      :     1.470007
      py      :     1.282288
      dz2     :     0.076756  d :     0.235079
      dxz     :     0.093282
      dyz     :     0.058786
      dx2y2   :     0.003335
      dxy     :     0.002921
      f0      :     0.023318  f :     0.074163
      f+1     :     0.029928
      f-1     :     0.019203
      f+2     :     0.000837
      f-2     :     0.000761
      f+3     :     0.000059
      f-3     :     0.000056


SPIN
  0 C s       :     0.000706  s :     0.000706
      pz      :    -0.002192  p :     0.054587
      px      :     0.004288
      py      :     0.052492
      dz2     :     0.000451  d :     0.035811
      dxz     :     0.002344
      dyz     :     0.033341
      dx2y2   :    -0.000315
      dxy     :    -0.000010
      f0      :     0.000825  f :     0.033992
      f+1     :     0.002458
      f-1     :     0.025148
      f+2     :     0.000058
      f-2     :     0.000285
      f+3     :     0.003206
      f-3     :     0.002013

  1 C s       :     0.000636  s :     0.000636
      pz      :    -0.000478  p :     0.039209
      px      :     0.003080
      py      :     0.036607
      dz2     :    -0.000080  d :     0.018733
      dxz     :     0.001285
      dyz     :     0.014120
      dx2y2   :     0.000916
      dxy     :     0.002491
      f0      :     0.000155  f :     0.016189
      f+1     :     0.000809
      f-1     :     0.010083
      f+2     :     0.000566
      f-2     :     0.001435
      f+3     :     0.001936
      f-3     :     0.001205

  2 C s       :     0.000636  s :     0.000636
      pz      :    -0.000478  p :     0.039219
      px      :     0.003080
      py      :     0.036618
      dz2     :    -0.000080  d :     0.018730
      dxz     :     0.001286
      dyz     :     0.014117
      dx2y2   :     0.000916
      dxy     :     0.002491
      f0      :     0.000155  f :     0.016188
      f+1     :     0.000809
      f-1     :     0.010082
      f+2     :     0.000566
      f-2     :     0.001436
      f+3     :     0.001935
      f-3     :     0.001205

  3 H s       :    -0.001306  s :    -0.001306
      pz      :    -0.000200  p :     0.004832
      px      :     0.000652
      py      :     0.004380
      dz2     :    -0.000037  d :     0.003937
      dxz     :    -0.000055
      dyz     :    -0.000585
      dx2y2   :     0.001440
      dxy     :     0.003175

  4 H s       :    -0.001307  s :    -0.001307
      pz      :    -0.000200  p :     0.004833
      px      :     0.000653
      py      :     0.004380
      dz2     :    -0.000037  d :     0.003938
      dxz     :    -0.000055
      dyz     :    -0.000585
      dx2y2   :     0.001441
      dxy     :     0.003175

  5 C s       :     0.000636  s :     0.000636
      pz      :    -0.000478  p :     0.039219
      px      :     0.003079
      py      :     0.036617
      dz2     :    -0.000080  d :     0.018730
      dxz     :     0.001286
      dyz     :     0.014117
      dx2y2   :     0.000916
      dxy     :     0.002491
      f0      :     0.000155  f :     0.016188
      f+1     :     0.000809
      f-1     :     0.010081
      f+2     :     0.000566
      f-2     :     0.001436
      f+3     :     0.001935
      f-3     :     0.001205

  6 C s       :     0.000636  s :     0.000636
      pz      :    -0.000478  p :     0.039209
      px      :     0.003081
      py      :     0.036607
      dz2     :    -0.000080  d :     0.018733
      dxz     :     0.001285
      dyz     :     0.014121
      dx2y2   :     0.000916
      dxy     :     0.002491
      f0      :     0.000155  f :     0.016189
      f+1     :     0.000809
      f-1     :     0.010083
      f+2     :     0.000566
      f-2     :     0.001435
      f+3     :     0.001936
      f-3     :     0.001205

  7 H s       :    -0.001307  s :    -0.001307
      pz      :    -0.000200  p :     0.004833
      px      :     0.000653
      py      :     0.004380
      dz2     :    -0.000037  d :     0.003938
      dxz     :    -0.000055
      dyz     :    -0.000585
      dx2y2   :     0.001441
      dxy     :     0.003175

  8 H s       :    -0.001306  s :    -0.001306
      pz      :    -0.000200  p :     0.004831
      px      :     0.000652
      py      :     0.004380
      dz2     :    -0.000037  d :     0.003937
      dxz     :    -0.000055
      dyz     :    -0.000585
      dx2y2   :     0.001440
      dxy     :     0.003175

  9 C s       :     0.000706  s :     0.000706
      pz      :    -0.002192  p :     0.054588
      px      :     0.004288
      py      :     0.052492
      dz2     :     0.000451  d :     0.035811
      dxz     :     0.002344
      dyz     :     0.033341
      dx2y2   :    -0.000315
      dxy     :    -0.000010
      f0      :     0.000825  f :     0.033992
      f+1     :     0.002458
      f-1     :     0.025148
      f+2     :     0.000058
      f-2     :     0.000285
      f+3     :     0.003206
      f-3     :     0.002013

 10 O s       :     0.003122  s :     0.003122
      pz      :     0.001441  p :     0.178987
      px      :     0.017904
      py      :     0.159642
      dz2     :     0.000208  d :     0.024170
      dxz     :     0.001709
      dyz     :     0.022245
      dx2y2   :     0.000005
      dxy     :     0.000003
      f0      :    -0.000043  f :     0.004158
      f+1     :     0.000305
      f-1     :     0.003879
      f+2     :    -0.000001
      f-2     :     0.000004
      f+3     :     0.000007
      f-3     :     0.000007

 11 O s       :     0.003122  s :     0.003122
      pz      :     0.001441  p :     0.178986
      px      :     0.017904
      py      :     0.159642
      dz2     :     0.000208  d :     0.024170
      dxz     :     0.001709
      dyz     :     0.022245
      dx2y2   :     0.000005
      dxy     :     0.000003
      f0      :    -0.000043  f :     0.004158
      f+1     :     0.000305
      f-1     :     0.003879
      f+2     :    -0.000001
      f-2     :     0.000004
      f+3     :     0.000007
      f-3     :     0.000007



                      *****************************
                      * MAYER POPULATION ANALYSIS *
                      *****************************

  NA   - Mulliken gross atomic population
  ZA   - Total nuclear charge
  QA   - Mulliken gross atomic charge
  VA   - Mayer's total valence
  BVA  - Mayer's bonded valence
  FA   - Mayer's free valence

  ATOM       NA         ZA         QA         VA         BVA        FA
  0 C      5.0265     6.0000     0.9735     2.6702     2.6454     0.0248
  1 C      6.6178     6.0000    -0.6178     3.4546     3.4456     0.0090
  2 C      6.6179     6.0000    -0.6179     3.4548     3.4458     0.0090
  3 H      0.5509     1.0000     0.4491     0.6377     0.6377    -0.0000
  4 H      0.5512     1.0000     0.4488     0.6384     0.6384    -0.0000
  5 C      6.6172     6.0000    -0.6172     3.4537     3.4447     0.0090
  6 C      6.6170     6.0000    -0.6170     3.4550     3.4460     0.0090
  7 H      0.5514     1.0000     0.4486     0.6386     0.6386    -0.0000
  8 H      0.5513     1.0000     0.4487     0.6385     0.6385    -0.0000
  9 C      5.0265     6.0000     0.9735     2.6699     2.6451     0.0248
 10 O      9.1362     8.0000    -1.1362     1.2377     1.1868     0.0510
 11 O      9.1359     8.0000    -1.1359     1.2387     1.1878     0.0510

  Mayer bond orders larger than 0.100000
B(  0-C ,  1-C ) :   1.0555 B(  0-C ,  2-C ) :   1.0556 B(  0-C ,  5-C ) :  -0.1271 
B(  0-C ,  6-C ) :  -0.1277 B(  0-C ,  9-C ) :   0.1902 B(  0-C , 11-O ) :   0.5197 
B(  1-C ,  2-C ) :   0.4091 B(  1-C ,  3-H ) :   0.4817 B(  1-C ,  5-C ) :   1.4828 
B(  1-C ,  6-C ) :  -0.1125 B(  1-C ,  9-C ) :  -0.1270 B(  1-C , 11-O ) :   0.1709 
B(  2-C ,  4-H ) :   0.4815 B(  2-C ,  5-C ) :  -0.1134 B(  2-C ,  6-C ) :   1.4831 
B(  2-C ,  9-C ) :  -0.1274 B(  2-C , 11-O ) :   0.1726 B(  5-C ,  6-C ) :   0.4082 
B(  5-C ,  7-H ) :   0.4821 B(  5-C ,  9-C ) :   1.0551 B(  5-C , 10-O ) :   0.1720 
B(  6-C ,  8-H ) :   0.4821 B(  6-C ,  9-C ) :   1.0565 B(  6-C , 10-O ) :   0.1713 
B(  9-C , 10-O ) :   0.5188 

-------
TIMINGS
-------

Total SCF time: 0 days 0 hours 2 min 33 sec 

Total time                  ....     153.485 sec
Sum of individual times     ....     149.400 sec  ( 97.3%)

SCF preparation             ....       1.965 sec  (  1.3%)
Fock matrix formation       ....      97.491 sec  ( 63.5%)
  Startup                   ....       9.268 sec  (  9.5% of F)
  Split-RI-J                ....      11.714 sec  ( 12.0% of F)
  Chain of spheres X        ....      42.166 sec  ( 43.3% of F)
  XC integration            ....      18.594 sec  ( 19.1% of F)
    XC Preparation          ....       0.000 sec  (  0.0% of XC)
    Basis function eval.    ....       1.412 sec  (  7.6% of XC)
    Density eval.           ....       3.545 sec  ( 19.1% of XC)
    XC-Functional eval.     ....       0.139 sec  (  0.7% of XC)
    XC-Potential eval.      ....       6.040 sec  ( 32.5% of XC)
  CPCM terms                ....       3.977 sec  (  4.1% of F)
Diagonalization             ....       0.000 sec  (  0.0%)
Density matrix formation    ....      17.611 sec  ( 11.5%)
Total Energy calculation    ....       8.212 sec  (  5.4%)
Population analysis         ....       1.592 sec  (  1.0%)
Orbital Transformation      ....       1.639 sec  (  1.1%)
Orbital Orthonormalization  ....       0.000 sec  (  0.0%)
DIIS solution               ....      16.812 sec  ( 11.0%)
SOSCF solution              ....       4.078 sec  (  2.7%)
Finished LeanSCF after 154.3 sec

Maximum memory used throughout the entire LEANSCF-calculation: 56.1 MB


-------------------------------------------------------------------------------
                          DFT DISPERSION CORRECTION                            
                                                                               
                              DFTD3 V3.1  Rev 1                                
                          USING Becke-Johnson damping                          
-------------------------------------------------------------------------------
The B3LYP functional is recognized
Active option DFTDOPT                   ...         4   

molecular C6(AA) [au] = 1959.563254 


            DFT-D V3
 parameters
 s6 scaling factor         :     1.0000 
 a1 scaling factor         :     0.3981 
 s8 scaling factor         :     1.9889 
 a2 scaling factor         :     4.4211 
 ad hoc parameters k1-k3   :    16.0000     1.3333    -4.0000 

 Edisp/kcal,au: -13.076217607473  -0.020838276955 
 E6   /kcal   :  -5.957021167 
 E8   /kcal   :  -7.119196440 
 % E8         :  54.443851075 

-------------------------   ----------------
Dispersion correction           -0.020838277
-------------------------   ----------------


-------------------------   --------------------
FINAL SINGLE POINT ENERGY      -381.573828884376
-------------------------   --------------------



           ************************************************************
           *        Program running with 15 parallel MPI-processes    *
           *              working on a common directory               *
           ************************************************************

------------------------------------------------------------------------------
                              ORCA PROPERTY CALCULATIONS
------------------------------------------------------------------------------

GBWName                                 ... cs_rporg_w07_red_solv_02.gbw
Number of atoms                         ...     12
Number of basis functions               ...    508
Max core memory                         ...   3500 MB

Electric properties:
Dipole moment                           ... YES
Quadrupole moment                       ...  NO
Static polarizability (Dipole/Dipole)   ...  NO
Static polarizability (Dipole/Quad.)    ...  NO
Static polarizability (Quad./Quad.)     ...  NO
Static polarizability (Velocity)        ...  NO

Atomic electric properties:
Dipole moment                           ...  NO
Quadrupole moment                       ...  NO
Static polarizability                   ...  NO

Choice of electric origin               ... Center of mass
Position of electric origin             ...     0.000000    -0.000003     2.638680

General magnetic properties:
Magnetizability                         ...  NO

EPR properties:
g-Tensor (aka g-matrix)                 ...  NO
Zero-Field splitting spin-orbit         ...  NO
Zero-field splitting spin-spin          ...  NO
Hyperfine couplings                     ...  NO (   0 nuclei)
Quadrupole couplings                    ...  NO (   0 nuclei)
Contact density                         ...  NO (   0 nuclei)

NMR properties:
Chemical shifts                         ...  NO (   0 nuclei)
Spin-rotation constants                 ...  NO (   0 nuclei)
Spin-spin couplings                     ...  NO (   0 nuclei,    0 pairs)

Choice of magnetic origin               ... GIAO
Position of magnetic origin             ...     0.000000     0.000000     0.000000

Properties with geometric perturbations:
SCF Hessian                             ...  NO
IR spectrum                             ...  NO
VCD spectrum                            ...  NO
X-ray spectroscopy properties:
SCF XES/XAS/RIXS spectra                ...  NO


-------------
DIPOLE MOMENT
-------------

Method             : SCF
Type of density    : Electron Density
Multiplicity       :   2
Irrep              :   0
Energy             :  -381.5529906074207815 Eh
Relativity type    : 
Basis              : AO
                                X                 Y                 Z
Electronic contribution:     -0.000003490      -0.000005797      -0.000009459
Nuclear contribution   :     -0.000001132       0.000017886      -0.000000443
                        -----------------------------------------
Total Dipole Moment    :     -0.000004622       0.000012089      -0.000009903
                        -----------------------------------------
Magnitude (a.u.)       :      0.000016296
Magnitude (Debye)      :      0.000041422



--------------------
Rotational spectrum 
--------------------
 
Rotational constants in cm-1:             0.187010             0.052742             0.041140 
Rotational constants in MHz :          5606.406459          1581.174709          1233.336765 

Dipole components along the rotational axes: 
x,y,z [a.u.] :    -0.000010     0.000001    -0.000013 
x,y,z [Debye]:    -0.000025     0.000002    -0.000033 

 

Dipole moment calculation done in   0.2 sec 

Maximum memory used throughout the entire PROP-calculation: 28.8 MB

--------------------------------
SUGGESTED CITATIONS FOR THIS RUN
--------------------------------

Below you find a list of papers that are relevant to this ORCA run
We neither can nor want to force you to cite these papers, but we appreciate if you do
You receive ORCA, which is the product of decades of hard work by many enthusiastic individuals, for free
The only thing we kindly ask in return is that you cite our papers,
We deeply appreciate it, if you show your appreciation for ORCA by not just citing the generic ORCA reference.

Please note that relegating all ORCA citations to the supporting information does *not* help us.
SI sections are not indexed - citations you put there will not count into any citation statistics
But we need these citations in order to attract the funding resources that allow us to do what we are doing

Therefore, if you are a happy ORCA user, please consider citing a few of the papers listed below in the main body of your paper

In addition to the list printed below, the program has created the file cs_rporg_w07_red_solv_02.bibtex that contains the list in bibtex format
You can import this file easily into all common literature databanks and citation aid programs


List of essential papers. We consider these as the minimum necessary citations

  1. Neese,F.
     Software update: the ORCA program system, version 5.0
     WIRES Comput. Molec. Sci., 2022 12(1)e1606
     doi.org/10.1002/wcms.1606

List of papers to cite with high priority. The work reported in these papers was absolutely
necessary for this run to complete.
Our perspective: the developers of density functionals and basis sets usually get cited in chemistry papers
Good! But without the algorithms to do something with them, the functionals or basis sets would not do anything.
Hence, in our opinion, the algorithm design and method developments papers are equally worthy of getting cited

  1. Neese,F.
     An improvement of the resolution of the identity approximation for the formation of the Coulomb matrix
     J. Comp. Chem., 2003 24(14)1740-1747
     doi.org/10.1002/jcc.10318
  2. Neese,F.; Wennmohs,F.; Hansen,A.; Becker,U.
     Efficient, approximate and parallel Hartree-Fock and hybrid DFT calculations. A 'chain-of-spheres' algorithm for the Hartree-Fock exchange
     Chem. Phys., 2009 356(1-3)98-109
     doi.org/10.1016/j.chemphys.2008.10.036
  3. Garcia-Rates,M.; Neese,F.
     Effect of the Solute Cavity on the Solvation Energy and its Derivatives within the Framework of the Gaussian Charge Scheme
     J. Comput. Chem., 2020 41 922-939
     doi.org/10.1002/jcc.26139
  4. Helmich-Paris,B.; de Souza,B.; Neese,F.; Izsák,R.
     An improved chain of spheres for exchange algorithm
     J. Chem. Phys., 2021 155 104109
     doi.org/doi: 10.1063/5.0058766.
  5. Neese,F.
     The SHARK Integral Generation and Digestion System
     J. Comp. Chem., 2022  1-16
     doi.org/10.1002/jcc.26942
  6. Grimme,S.; Antony,J.; Ehrlich,S.; Krieg,H.
     A consistent and accurate ab initio parametrization of density functional dispersion correction (DFT-D) for the 94 elements H-Pu
     J. Chem. Phys., 2010 132 154104-XXXX
     doi.org/10.1063/1.3382344
  7. Grimme,S.; Ehrlich,S.; Goerigk,L.
     Effect of the damping function in dispersion corrected density functional theory
     J. Comput. Chem., 2011 32(7)1456-1465
     doi.org/10.1002/jcc.21759

List of suggested additional citations. These are papers that are important in the 'surrounding' of 
of this run, or papers that preceded the highly important papers. If you like your results we are grateful for a citation.

  1. Izsak,R.; Neese,F.
     An overlap fitted chain of spheres exchange method
     J. Chem. Phys., 2011 135 144105
     doi.org/10.1063/1.3646921
  2. Izsak,R.; Hansen,A.; Neese,F.
     The resolution of identity and chain of spheres approximations for the LPNO-CCSD singles Fock term
     Molec. Phys., 2012 110 2413-2417
     doi.org/10.1080/00268976.2012.687466
  3. Neese,F.
     The ORCA program system
     WIRES Comput. Molec. Sci., 2012 2(1)73-78
     doi.org/10.1002/wcms.81
  4. Izsak,R.; Neese,F.; Klopper,W.
     Robust fitting techniques in the chain of spheres approximation to the Fock exchange: The role of the complementary space
     J. Chem. Phys., 2013 139 
     doi.org/10.1063/1.4819264
  5. Neese,F.
     Software update: the ORCA program system, version 4.0
     WIRES Comput. Molec. Sci., 2018 8(1)1-6
     doi.org/10.1002/wcms.1327
  6. Neese,F.; Wennmohs,F.; Becker,U.; Riplinger,C.
     The ORCA quantum chemistry program package
     J. Chem. Phys., 2020 152 Art. No. L224108
     doi.org/10.1063/5.0004608

List of optional additional citations

  1. Neese,F.
     Approximate second-order SCF convergence for spin unrestricted wavefunctions
     Chem. Phys. Lett., 2000 325(1-3)93-98
     doi.org/10.1016/s0009-2614(00)00662-x

Timings for individual modules:

Sum of individual times          ...      171.489 sec (=   2.858 min)
Startup calculation              ...        7.121 sec (=   0.119 min)   4.2 %
SCF iterations                   ...      162.121 sec (=   2.702 min)  94.5 %
Property calculations            ...        2.246 sec (=   0.037 min)   1.3 %
                             ****ORCA TERMINATED NORMALLY****
TOTAL RUN TIME: 0 days 0 hours 2 minutes 55 seconds 538 msec
