
                                 *****************
                                 * O   R   C   A *
                                 *****************

                                            #,                                       
                                            ###                                      
                                            ####                                     
                                            #####                                    
                                            ######                                   
                                           ########,                                 
                                     ,,################,,,,,                         
                               ,,#################################,,                 
                          ,,##########################################,,             
                       ,#########################################, ''#####,          
                    ,#############################################,,   '####,        
                  ,##################################################,,,,####,       
                ,###########''''           ''''###############################       
              ,#####''   ,,,,##########,,,,          '''####'''          '####       
            ,##' ,,,,###########################,,,                        '##       
           ' ,,###''''                  '''############,,,                           
         ,,##''                                '''############,,,,        ,,,,,,###''
      ,#''                                            '''#######################'''  
     '                                                          ''''####''''         
             ,#######,   #######,   ,#######,      ##                                
            ,#'     '#,  ##    ##  ,#'     '#,    #''#        ,####,   ,####,        
            ##       ##  ##   ,#'  ##            #'  '#       #'       #'  '#        
            ##       ##  #######   ##           ,######,      #####,   #    #        
            '#,     ,#'  ##    ##  '#,     ,#' ,#      #,     #,   #   #,  ,#        
             '#######'   ##     ##  '#######'  #'      '#     '####' # '####'        



                #########################################################
                #                        -***-                          #
                #          Department of theory and spectroscopy        #
                #                                                       #
                #                      Frank Neese                      #
                #                                                       #
                #     Directorship, Architecture, Infrastructure        #
                #                    SHARK, DRIVERS                     #
                #        Core code/Algorithms in most modules           #
                #                                                       #
                #        Max Planck Institute fuer Kohlenforschung      #
                #                Kaiser Wilhelm Platz 1                 #
                #                 D-45470 Muelheim/Ruhr                 #
                #                      Germany                          #
                #                                                       #
                #                  All rights reserved                  #
                #                        -***-                          #
                #########################################################


                         Program Version 6.0.0  -   RELEASE  -


 With contributions from (in alphabetic order):
   Daniel Aravena         : Magnetic Suceptibility
   Michael Atanasov       : Ab Initio Ligand Field Theory (pilot matlab implementation)
   Alexander A. Auer      : GIAO ZORA, VPT2 properties, NMR spectrum
   Ute Becker             : All parallelization in ORCA, NUMFREQ, NUMCALC
   Giovanni Bistoni       : ED, misc. LED, open-shell LED, HFLD
   Martin Brehm           : Molecular dynamics
   Dmytro Bykov           : pre 5.0 version of the SCF Hessian
   Marcos Casanova-Páez   : Triplet and SCS-CIS(D). UHF-(DLPNO)-IP/EA/STEOM-CCSD. UHF-CVS-IP/STEOM-CCSD
   Vijay G. Chilkuri      : MRCI spin determinant printing, contributions to CSF-ICE
   Pauline Colinet        : FMM embedding
   Dipayan Datta          : RHF DLPNO-CCSD density
   Achintya Kumar Dutta   : EOM-CC, STEOM-CC
   Nicolas Foglia         : Exact transition moments, OPA infrastructure, MCD improvements
   Dmitry Ganyushin       : Spin-Orbit,Spin-Spin,Magnetic field MRCI
   Miquel Garcia          : C-PCM and meta-GGA Hessian, CCSD/C-PCM, Gaussian charge scheme
   Tiago L. C. Gouveia    : GS-ROHF, GS-ROCIS
   Yang Guo               : DLPNO-NEVPT2, F12-NEVPT2, CIM, IAO-localization
   Andreas Hansen         : Spin unrestricted coupled pair/coupled cluster methods
   Ingolf Harden          : AUTO-CI MPn and infrastructure 
   Benjamin Helmich-Paris : MC-RPA, TRAH-(SCF,CASSCF), AVAS, COSX integrals, SCF dyn. polar.
   Lee Huntington         : MR-EOM, pCC
   Robert Izsak           : Overlap fitted RIJCOSX, COSX-SCS-MP3, EOM
   Riya Kayal             : Wick's Theorem for AUTO-CI, AUTO-CI UHF-CCSDT
   Emily Kempfer          : AUTO-CI, RHF CISDT and CCSDT
   Christian Kollmar      : KDIIS, OOCD, Brueckner-CCSD(T), CCSD density, CASPT2, CASPT2-K, improved NEVPT2
   Axel Koslowski         : Symmetry handling
   Simone Kossmann        : Meta GGA functionals, TD-DFT gradient, OOMP2, (MP2 Hessian; deprecated post 5.0)
   Lucas Lang             : DCDCAS
   Marvin Lechner         : AUTO-CI (C++ implementation), FIC-MRCC
   Spencer Leger          : CASSCF response
   Dagmar Lenk            : GEPOL surface, SMD, ORCA-2-JSON
   Dimitrios Liakos       : Extrapolation schemes; Compound Job, initial MDCI parallelization
   Dimitrios Manganas     : Further ROCIS development; embedding schemes. LFT, Crystal Embedding
   Dimitrios Pantazis     : SARC Basis sets
   Anastasios Papadopoulos: AUTO-CI, single reference methods and gradients
   Taras Petrenko         : pre 6.0 DFT Hessian and TD-DFT gradient, (ASA, deprecated), ECA, 1-Electron XAS/XES, NRVS
   Peter Pinski           : DLPNO-MP2, DLPNO-MP2 Gradient
   Christoph Reimann      : Effective Core Potentials
   Marius Retegan         : Local ZFS, SOC
   Christoph Riplinger    : Optimizer, TS searches, QM/MM, DLPNO-CCSD(T), (RO)-DLPNO pert. Triples
   Michael Roemelt        : Original ROCIS implementation
   Masaaki Saitow         : Open-shell DLPNO-CCSD energy and density
   Barbara Sandhoefer     : DKH picture change effects
   Kantharuban Sivalingam : CASSCF convergence/infrastructure, NEVPT2 and variants, FIC-MRCI
   Bernardo de Souza      : ESD, SOC TD-DFT
   Georgi Stoychev        : AutoAux, RI-MP2 NMR, DLPNO-MP2 response, X2C
   Van Anh Tran           : RI-MP2 g-tensors
   Willem Van den Heuvel  : Paramagnetic NMR
   Zikuan Wang            : NOTCH, Electric field optimization 
   Frank Wennmohs         : Technical directorship and infrastructure
   Hang Xu                : AUTO-CI-Response properties 


 We gratefully acknowledge several colleagues who have allowed us to
 interface, adapt or use parts of their codes:
   Stefan Grimme, W. Hujo, H. Kruse, P. Pracht,  : VdW corrections, initial TS optimization,
                  C. Bannwarth, S. Ehlert,         DFT functionals, gCP, sTDA/sTD-DF
                  L. Wittmann, M. Mueller
   Ed Valeev, F. Pavosevic, A. Kumar             : LibInt (2-el integral package), F12 methods
   Garnet Chan, S. Sharma, J. Yang, R. Olivares  : DMRG
   Ulf Ekstrom                                   : XCFun DFT Library
   Mihaly Kallay                                 : mrcc  (arbitrary order and MRCC methods)
   Frank Weinhold                                : gennbo (NPA and NBO analysis)
   Simon Mueller                                 : openCOSMO-RS
   Christopher J. Cramer and Donald G. Truhlar   : smd solvation model
   Lars Goerigk                                  : TD-DFT with DH, B97 family of functionals
   V. Asgeirsson, H. Jonsson                     : NEB implementation
   FAccTs GmbH                                   : IRC, NEB, NEB-TS, DLPNO-Multilevel, CI-OPT
                                                   MM, QMMM, 2- and 3-layer-ONIOM, Crystal-QMMM,
                                                   LR-CPCM, SF, NACMEs, symmetry and pop. for TD-DFT,
                                                   nearIR, NL-DFT gradient (VV10), updates on ESD,
                                                   ML-optimized integration grids, MBIS, APM,
                                                   GOAT, DOCKER, SOLVATOR, interface openCOSMO-RS
   S Lehtola, MJT Oliveira, MAL Marques          : LibXC Library
   Liviu Ungur et al                             : ANISO software


 Your calculation uses the libint2 library for the computation of 2-el integrals
 For citations please refer to: http://libint.valeyev.net

 Your ORCA version has been built with support for libXC version: 6.2.2
 For citations please refer to: https://libxc.gitlab.io

 This ORCA versions uses:
   CBLAS   interface :  Fast vector & matrix operations
   LAPACKE interface :  Fast linear algebra routines
   SCALAPACK package :  Parallel linear algebra routines
   Shared memory     :  Shared parallel matrices
   BLAS/LAPACK       :  OpenBLAS 0.3.27  USE64BITINT DYNAMIC_ARCH NO_AFFINITY Sandybridge SINGLE_THREADED
        Core in use  :  Sandybridge
   Copyright (c) 2011-2014, The OpenBLAS Project


NOTE: MaxCore=3500 MB was set to SCF,MP2,MDCI,CIPSI,MRCI and CIS
      => If you want to overwrite this, your respective input block should be placed after the MaxCore statement
Your calculation utilizes the atom-pairwise dispersion correction
with the Becke-Johnson damping scheme (D3BJ)


Warning: RI is on but no J-basis has been assigned. Assigning Def2/J (nothing to worry about!)
================================================================================

----- Orbital basis set information -----
Your calculation utilizes the basis: def2-SV(P)
   F. Weigend and R. Ahlrichs, Phys. Chem. Chem. Phys. 7, 3297 (2005).

----- AuxJ basis set information -----
Your calculation utilizes the auxiliary basis: def2/J
   F. Weigend, Phys. Chem. Chem. Phys. 8, 1057 (2006).

================================================================================
                                        WARNINGS
                       Please study these warnings very carefully!
================================================================================


WARNING: your system is open-shell and RHF/RKS was chosen
  ===> : WILL SWITCH to UHF/UKS


WARNING: Geometry Optimization
  ===> : Switching off AutoStart
         For restart on a previous wavefunction, please use MOREAD

================================================================================
                                       INPUT FILE
================================================================================
NAME = cs_rporg_w02_red_opt_01.inp
|  1> !PBE0 def2-SV(p) Opt Freq d3 TightSCF SlowConv RIJCOSX defgrid2
|  2> 
|  3> %pal
|  4> nprocs 15
|  5> end
|  6> 
|  7> %scf
|  8> MaxIter 1500
|  9> end
| 10> 
| 11> %maxcore 3500
| 12> 
| 13>  
| 14> 
| 15> * xyz -1 2
| 16> C       -0.732160608     -1.291623195     -1.661890015
| 17> C       -0.792828387     -1.333318251      2.562615786
| 18> C        0.160299413     -0.678263464      3.347467158
| 19> C        0.065726999     -0.743260113      4.731544090
| 20> C       -0.978864165     -1.461174788      5.304178757
| 21> C       -1.889009513     -2.086689084      4.458057262
| 22> N       -1.804062846     -2.028307911      3.121030400
| 23> H        0.804889995     -0.235256620      5.357380294
| 24> H       -1.086623813     -1.535234607      6.389744429
| 25> H       -2.727217774     -2.662763282      4.862187961
| 26> C       -0.740637806     -1.297449312      1.088931368
| 27> C        0.264464924     -0.606673791      0.406187817
| 28> C        0.268094697     -0.604179159     -0.982631125
| 29> C       -1.698771103     -1.955944214     -0.913628019
| 30> N       -1.708664721     -1.962743787      0.427312325
| 31> H        1.048779105     -0.067639310     -1.529218082
| 32> H       -0.762774045     -1.312662858     -2.754670872
| 33> H       -2.505317479     -2.510258193     -1.403520998
| 34> C        1.204991735      0.039720729      2.666785686
| 35> C        1.257182160      0.075589567      1.193105738
| 36> H        1.958874646      0.557840755      3.240904310
| 37> H        2.048875802      0.619695725      0.699577962
| 38> *
| 39> 
| 40>                          ****END OF INPUT****
================================================================================

                       *****************************
                       * Geometry Optimization Run *
                       *****************************

Geometry optimization settings:
Update method            Update   .... BFGS
Choice of coordinates    CoordSys .... (2022) Redundant Internals
Initial Hessian          InHess   .... Almloef's Model
Max. no of cycles        MaxIter  .... 66

Convergence Tolerances:
Energy Change            TolE     ....  5.0000e-06 Eh
Max. Gradient            TolMAXG  ....  3.0000e-04 Eh/bohr
RMS Gradient             TolRMSG  ....  1.0000e-04 Eh/bohr
Max. Displacement        TolMAXD  ....  4.0000e-03 bohr
RMS Displacement         TolRMSD  ....  2.0000e-03 bohr
Strict Convergence                .... False

------------------------------------------------------------------------------
                        ORCA OPTIMIZATION COORDINATE SETUP
------------------------------------------------------------------------------

The optimization will be done in redundant internal coordinates (2022)
Making redundant internal coordinates   ...  (2022 redundants) done
Evaluating the initial hessian          ...  (Almloef) done
Evaluating the coordinates              ...  done
Calculating the B-matrix                .... done
Calculating the G-matrix                .... done
Diagonalizing the G-matrix              .... done
The first mode is                       ....   58
The number of degrees of freedom        ....   60

    -----------------------------------------------------------------
                    Redundant Internal Coordinates


    -----------------------------------------------------------------
         Definition                    Initial Value    Approx d2E/dq
    -----------------------------------------------------------------
      1. B(C   2,C   1)                  1.3977         0.607390   
      2. B(C   3,C   2)                  1.3888         0.627497   
      3. B(C   4,C   3)                  1.3909         0.622833   
      4. B(C   5,C   4)                  1.3912         0.621952   
      5. B(N   6,C   5)                  1.3410         0.669979   
      6. B(N   6,C   1)                  1.3481         0.652663   
      7. B(H   7,C   3)                  1.0937         0.355286   
      8. B(H   8,C   4)                  1.0934         0.355615   
      9. B(H   9,C   5)                  1.0944         0.354288   
     10. B(C  10,C   1)                  1.4750         0.457147   
     11. B(C  11,C  10)                  1.3977         0.607390   
     12. B(C  12,C  11)                  1.3888         0.627497   
     13. B(C  12,C   0)                  1.3909         0.622833   
     14. B(C  13,C   0)                  1.3912         0.621952   
     15. B(N  14,C  10)                  1.3481         0.652664   
     16. B(N  14,C  13)                  1.3410         0.669979   
     17. B(H  15,C  12)                  1.0937         0.355286   
     18. B(H  16,C   0)                  1.0934         0.355614   
     19. B(H  17,C  13)                  1.0944         0.354288   
     20. B(C  18,C   2)                  1.4388         0.522210   
     21. B(C  19,C  18)                  1.4750         0.457154   
     22. B(C  19,C  11)                  1.4388         0.522210   
     23. B(H  20,C  18)                  1.0800         0.373575   
     24. B(H  21,C  19)                  1.0800         0.373575   
     25. A(C  13,C   0,H  16)          120.5897         0.352349   
     26. A(C  12,C   0,H  16)          121.1807         0.352433   
     27. A(C  12,C   0,C  13)          118.2297         0.434668   
     28. A(N   6,C   1,C  10)          116.9306         0.412153   
     29. A(C   2,C   1,N   6)          121.3680         0.433620   
     30. A(C   2,C   1,C  10)          121.7013         0.409575   
     31. A(C   1,C   2,C  18)          117.6035         0.419377   
     32. A(C   3,C   2,C  18)          122.9741         0.421821   
     33. A(C   1,C   2,C   3)          119.4224         0.433401   
     34. A(C   2,C   3,H   7)          120.1669         0.352823   
     35. A(C   4,C   3,H   7)          120.7810         0.352378   
     36. A(C   2,C   3,C   4)          119.0521         0.435363   
     37. A(C   3,C   4,C   5)          118.2297         0.434668   
     38. A(C   5,C   4,H   8)          120.5897         0.352349   
     39. A(C   3,C   4,H   8)          121.1807         0.352433   
     40. A(N   6,C   5,H   9)          116.0784         0.354391   
     41. A(C   4,C   5,H   9)          120.8721         0.352126   
     42. A(C   4,C   5,N   6)          123.0495         0.437533   
     43. A(C   1,N   6,C   5)          118.8783         0.438456   
     44. A(C   1,C  10,C  11)          121.7013         0.409575   
     45. A(C  11,C  10,N  14)          121.3680         0.433620   
     46. A(C   1,C  10,N  14)          116.9306         0.412153   
     47. A(C  10,C  11,C  19)          117.6035         0.419377   
     48. A(C  10,C  11,C  12)          119.4224         0.433401   
     49. A(C  12,C  11,C  19)          122.9741         0.421821   
     50. A(C  11,C  12,H  15)          120.1669         0.352823   
     51. A(C   0,C  12,H  15)          120.7810         0.352378   
     52. A(C   0,C  12,C  11)          119.0521         0.435363   
     53. A(N  14,C  13,H  17)          116.0784         0.354391   
     54. A(C   0,C  13,H  17)          120.8721         0.352126   
     55. A(C   0,C  13,N  14)          123.0495         0.437533   
     56. A(C  10,N  14,C  13)          118.8783         0.438456   
     57. A(C  19,C  18,H  20)          119.6524         0.337379   
     58. A(C   2,C  18,H  20)          119.6524         0.344972   
     59. A(C   2,C  18,C  19)          120.6952         0.398798   
     60. A(C  18,C  19,H  21)          119.6524         0.337379   
     61. A(C  11,C  19,H  21)          119.6524         0.344972   
     62. A(C  11,C  19,C  18)          120.6952         0.398798   
     63. D(C  18,C   2,C   1,C  10)     -0.0000         0.025467   
     64. D(C   3,C   2,C   1,N   6)      0.0000         0.025467   
     65. D(C   3,C   2,C   1,C  10)   -180.0000         0.025467   
     66. D(C  18,C   2,C   1,N   6)    180.0000         0.025467   
     67. D(C   4,C   3,C   2,C  18)   -180.0000         0.027287   
     68. D(H   7,C   3,C   2,C   1)    180.0000         0.027287   
     69. D(C   4,C   3,C   2,C   1)     -0.0000         0.027287   
     70. D(H   7,C   3,C   2,C  18)      0.0000         0.027287   
     71. D(H   8,C   4,C   3,H   7)      0.0000         0.026858   
     72. D(H   8,C   4,C   3,C   2)   -180.0000         0.026858   
     73. D(C   5,C   4,C   3,C   2)      0.0000         0.026858   
     74. D(C   5,C   4,C   3,H   7)   -180.0000         0.026858   
     75. D(H   9,C   5,C   4,C   3)    180.0000         0.026777   
     76. D(N   6,C   5,C   4,C   3)     -0.0000         0.026777   
     77. D(N   6,C   5,C   4,H   8)   -180.0000         0.026777   
     78. D(H   9,C   5,C   4,H   8)     -0.0000         0.026777   
     79. D(C   1,N   6,C   5,H   9)   -180.0000         0.033345   
     80. D(C   1,N   6,C   5,C   4)      0.0000         0.033345   
     81. D(C   5,N   6,C   1,C  10)    180.0000         0.031502   
     82. D(C   5,N   6,C   1,C   2)     -0.0000         0.031502   
     83. D(N  14,C  10,C   1,N   6)      0.0000         0.014238   
     84. D(N  14,C  10,C   1,C   2)   -180.0000         0.014238   
     85. D(C  11,C  10,C   1,N   6)    180.0000         0.014238   
     86. D(C  11,C  10,C   1,C   2)     -0.0000         0.014238   
     87. D(C  19,C  11,C  10,N  14)    180.0000         0.025467   
     88. D(C  19,C  11,C  10,C   1)      0.0000         0.025467   
     89. D(C  12,C  11,C  10,N  14)     -0.0000         0.025467   
     90. D(C  12,C  11,C  10,C   1)   -180.0000         0.025467   
     91. D(H  15,C  12,C   0,C  13)    180.0000         0.026858   
     92. D(C  11,C  12,C   0,H  16)   -180.0000         0.026858   
     93. D(C  11,C  12,C   0,C  13)     -0.0000         0.026858   
     94. D(H  15,C  12,C  11,C  19)      0.0000         0.027287   
     95. D(H  15,C  12,C  11,C  10)   -180.0000         0.027287   
     96. D(C   0,C  12,C  11,C  19)   -180.0000         0.027287   
     97. D(C   0,C  12,C  11,C  10)     -0.0000         0.027287   
     98. D(H  15,C  12,C   0,H  16)     -0.0000         0.026858   
     99. D(H  17,C  13,C   0,H  16)     -0.0000         0.026777   
    100. D(H  17,C  13,C   0,C  12)   -180.0000         0.026777   
    101. D(N  14,C  13,C   0,H  16)    180.0000         0.026777   
    102. D(N  14,C  13,C   0,C  12)      0.0000         0.026777   
    103. D(C  10,N  14,C  13,H  17)    180.0000         0.033345   
    104. D(C  10,N  14,C  13,C   0)     -0.0000         0.033345   
    105. D(C  13,N  14,C  10,C  11)      0.0000         0.031502   
    106. D(C  13,N  14,C  10,C   1)    180.0000         0.031502   
    107. D(H  20,C  18,C   2,C   3)     -0.0000         0.018601   
    108. D(H  20,C  18,C   2,C   1)   -180.0000         0.018601   
    109. D(C  19,C  18,C   2,C   3)    180.0000         0.018601   
    110. D(C  19,C  18,C   2,C   1)      0.0000         0.018601   
    111. D(H  21,C  19,C  18,H  20)     -0.0000         0.014239   
    112. D(C  11,C  19,C  18,H  20)    180.0000         0.014239   
    113. D(C  11,C  19,C  18,C   2)     -0.0000         0.014239   
    114. D(H  21,C  19,C  11,C  12)     -0.0000         0.018601   
    115. D(H  21,C  19,C  11,C  10)    180.0000         0.018601   
    116. D(H  21,C  19,C  18,C   2)    180.0000         0.014239   
    117. D(C  18,C  19,C  11,C  12)    180.0000         0.018601   
    118. D(C  18,C  19,C  11,C  10)     -0.0000         0.018601   
    -----------------------------------------------------------------

Number of atoms                         .... 22
Number of degrees of freedom            .... 118


         *************************************************************
         *                GEOMETRY OPTIMIZATION CYCLE   1            *
         *************************************************************
---------------------------------
CARTESIAN COORDINATES (ANGSTROEM)
---------------------------------
  C     -0.732161   -1.291623   -1.661890
  C     -0.792828   -1.333318    2.562616
  C      0.160299   -0.678263    3.347467
  C      0.065727   -0.743260    4.731544
  C     -0.978864   -1.461175    5.304179
  C     -1.889010   -2.086689    4.458057
  N     -1.804063   -2.028308    3.121030
  H      0.804890   -0.235257    5.357380
  H     -1.086624   -1.535235    6.389744
  H     -2.727218   -2.662763    4.862188
  C     -0.740638   -1.297449    1.088931
  C      0.264465   -0.606674    0.406188
  C      0.268095   -0.604179   -0.982631
  C     -1.698771   -1.955944   -0.913628
  N     -1.708665   -1.962744    0.427312
  H      1.048779   -0.067639   -1.529218
  H     -0.762774   -1.312663   -2.754671
  H     -2.505317   -2.510258   -1.403521
  C      1.204992    0.039721    2.666786
  C      1.257182    0.075590    1.193106
  H      1.958875    0.557841    3.240904
  H      2.048876    0.619696    0.699578

----------------------------
CARTESIAN COORDINATES (A.U.)
----------------------------
  NO LB      ZA    FRAG     MASS         X           Y           Z
   0 C     6.0000    0    12.011   -1.383583   -2.440814   -3.140517
   1 C     6.0000    0    12.011   -1.498229   -2.519606    4.842642
   2 C     6.0000    0    12.011    0.302922   -1.281732    6.325796
   3 C     6.0000    0    12.011    0.124206   -1.404558    8.941323
   4 C     6.0000    0    12.011   -1.849785   -2.761220   10.023445
   5 C     6.0000    0    12.011   -3.569711   -3.943271    8.424507
   6 N     7.0000    0    14.007   -3.409185   -3.832946    5.897893
   7 H     1.0000    0     1.008    1.521022   -0.444571   10.123982
   8 H     1.0000    0     1.008   -2.053421   -2.901173   12.074867
   9 H     1.0000    0     1.008   -5.153695   -5.031893    9.188204
  10 C     6.0000    0    12.011   -1.399603   -2.451824    2.057782
  11 C     6.0000    0    12.011    0.499766   -1.146447    0.767584
  12 C     6.0000    0    12.011    0.506626   -1.141733   -1.856904
  13 C     6.0000    0    12.011   -3.210212   -3.696199   -1.726507
  14 N     7.0000    0    14.007   -3.228908   -3.709048    0.807503
  15 H     1.0000    0     1.008    1.981905   -0.127820   -2.889803
  16 H     1.0000    0     1.008   -1.441434   -2.480573   -5.205574
  17 H     1.0000    0     1.008   -4.734364   -4.743701   -2.652270
  18 C     6.0000    0    12.011    2.277104    0.075061    5.039495
  19 C     6.0000    0    12.011    2.375730    0.142844    2.254643
  20 H     1.0000    0     1.008    3.701737    1.054166    6.124422
  21 H     1.0000    0     1.008    3.871814    1.171055    1.322011

--------------------------------
INTERNAL COORDINATES (ANGSTROEM)
--------------------------------
 C      0   0   0     0.000000000000     0.00000000     0.00000000
 C      1   0   0     4.225147135874     0.00000000     0.00000000
 C      2   1   0     1.397691329742   123.16365076     0.00000000
 C      3   2   1     1.388825928461   119.42239403   180.00000000
 C      4   3   2     1.390856801521   119.05209122     0.00000000
 C      5   4   3     1.391241989478   118.22966311     0.00000000
 N      6   5   4     1.340994081756   123.04947696     0.00000000
 H      4   3   2     1.093663768163   120.16688641   179.99999915
 H      5   4   3     1.093412011436   121.18066895   180.00000085
 H      6   5   4     1.094429619612   120.87211146   180.00000000
 C      2   1   7     1.475044474376     1.46232515   179.99999204
 C     11   2   7     1.397691337420   121.70132508   180.00000000
 C     12  11   2     1.388825925773   119.42239342   180.00000000
 C      1   2   3     1.391241991886    56.46514853   179.99999915
 N     14   1   2     1.340994080538   123.04947611     0.00000000
 H     13  12  11     1.093663776497   120.16688606   180.00000121
 H      1   2   3     1.093412022693   177.05481580   179.99999222
 H     14   1   2     1.094429611637   120.87211149   180.00000000
 C      3   2   1     1.438822649032   117.60348154     0.00000000
 C     12  11   2     1.438822648804   117.60348154     0.00000000
 H     19   3   2     1.079999999659   119.65240349   180.00000000
 H     20  12  11     1.079999999833   119.65240347   180.00000000

---------------------------
INTERNAL COORDINATES (A.U.)
---------------------------
 C      0   0   0     0.000000000000     0.00000000     0.00000000
 C      1   0   0     7.984370962324     0.00000000     0.00000000
 C      2   1   0     2.641253832968   123.16365076     0.00000000
 C      3   2   1     2.624500652480   119.42239403   180.00000000
 C      4   3   2     2.628338446376   119.05209122     0.00000000
 C      5   4   3     2.629066346126   118.22966311     0.00000000
 N      6   5   4     2.534111561728   123.04947696     0.00000000
 H      4   3   2     2.066725004421   120.16688641   179.99999915
 H      5   4   3     2.066249253154   121.18066895   180.00000085
 H      6   5   4     2.068172253918   120.87211146   180.00000000
 C      2   1   7     2.787430091924     1.46232515   179.99999204
 C     11   2   7     2.641253847478   121.70132508   180.00000000
 C     12  11   2     2.624500647400   119.42239342   180.00000000
 C      1   2   3     2.629066350676    56.46514853   179.99999915
 N     14   1   2     2.534111559426   123.04947611     0.00000000
 H     13  12  11     2.066725020169   120.16688606   180.00000121
 H      1   2   3     2.066249274427   177.05481580   179.99999222
 H     14   1   2     2.068172238847   120.87211149   180.00000000
 C      3   2   1     2.718980761954   117.60348154     0.00000000
 C     12  11   2     2.718980761523   117.60348154     0.00000000
 H     19   3   2     2.040904223991   119.65240349   180.00000000
 H     20  12  11     2.040904224320   119.65240347   180.00000000

---------------------
BASIS SET INFORMATION
---------------------
There are 3 groups of distinct atoms

 Group   1 Type C   : 7s4p1d contracted to 3s2p1d pattern {511/31/1}
 Group   2 Type N   : 7s4p1d contracted to 3s2p1d pattern {511/31/1}
 Group   3 Type H   : 4s contracted to 2s pattern {31}

Atom   0C    basis set group =>   1
Atom   1C    basis set group =>   1
Atom   2C    basis set group =>   1
Atom   3C    basis set group =>   1
Atom   4C    basis set group =>   1
Atom   5C    basis set group =>   1
Atom   6N    basis set group =>   2
Atom   7H    basis set group =>   3
Atom   8H    basis set group =>   3
Atom   9H    basis set group =>   3
Atom  10C    basis set group =>   1
Atom  11C    basis set group =>   1
Atom  12C    basis set group =>   1
Atom  13C    basis set group =>   1
Atom  14N    basis set group =>   2
Atom  15H    basis set group =>   3
Atom  16H    basis set group =>   3
Atom  17H    basis set group =>   3
Atom  18C    basis set group =>   1
Atom  19C    basis set group =>   1
Atom  20H    basis set group =>   3
Atom  21H    basis set group =>   3
---------------------------------
AUXILIARY/J BASIS SET INFORMATION
---------------------------------
There are 3 groups of distinct atoms

 Group   1 Type C   : 12s5p4d2f1g contracted to 6s4p3d1f1g pattern {711111/2111/211/2/1}
 Group   2 Type N   : 12s5p4d2f1g contracted to 6s4p3d1f1g pattern {711111/2111/211/2/1}
 Group   3 Type H   : 5s2p1d contracted to 3s1p1d pattern {311/2/1}

Atom   0C    basis set group =>   1
Atom   1C    basis set group =>   1
Atom   2C    basis set group =>   1
Atom   3C    basis set group =>   1
Atom   4C    basis set group =>   1
Atom   5C    basis set group =>   1
Atom   6N    basis set group =>   2
Atom   7H    basis set group =>   3
Atom   8H    basis set group =>   3
Atom   9H    basis set group =>   3
Atom  10C    basis set group =>   1
Atom  11C    basis set group =>   1
Atom  12C    basis set group =>   1
Atom  13C    basis set group =>   1
Atom  14N    basis set group =>   2
Atom  15H    basis set group =>   3
Atom  16H    basis set group =>   3
Atom  17H    basis set group =>   3
Atom  18C    basis set group =>   1
Atom  19C    basis set group =>   1
Atom  20H    basis set group =>   3
Atom  21H    basis set group =>   3


           ************************************************************
           *        Program running with 15 parallel MPI-processes    *
           *              working on a common directory               *
           ************************************************************
------------------------------------------------------------------------------
                             ORCA STARTUP CALCULATIONS
                           -- RI-GTO INTEGRALS CHOSEN --
------------------------------------------------------------------------------
------------------------------------------------------------------------------
                   ___                                                        
                  /   \      - P O W E R E D   B Y -                         
                 /     \                                                     
                 |  |  |   _    _      __       _____    __    __             
                 |  |  |  | |  | |    /  \     |  _  \  |  |  /  |          
                  \  \/   | |  | |   /    \    | | | |  |  | /  /          
                 / \  \   | |__| |  /  /\  \   | |_| |  |  |/  /          
                |  |  |   |  __  | /  /__\  \  |    /   |      \           
                |  |  |   | |  | | |   __   |  |    \   |  |\   \          
                \     /   | |  | | |  |  |  |  | |\  \  |  | \   \       
                 \___/    |_|  |_| |__|  |__|  |_| \__\ |__|  \__/        
                                                                              
                      - O R C A' S   B I G   F R I E N D -                    
                                      &                                       
                       - I N T E G R A L  F E E D E R -                       
                                                                              
 v1 FN, 2020, v2 2021, v3 2022-2024                                           
------------------------------------------------------------------------------


----------------------
SHARK INTEGRAL PACKAGE
----------------------

Number of atoms                             ...     22
Number of basis functions                   ...    212
Number of shells                            ...    100
Maximum angular momentum                    ...      2
Integral batch strategy                     ... SHARK/LIBINT Hybrid
RI-J (if used) integral strategy            ... SPLIT-RIJ (Revised 2003 algorithm where possible)
Printlevel                                  ...      1
Contraction scheme used                     ... SEGMENTED contraction
Prescreening option                         ... SCHWARTZ
   Thresh                                   ... 2.500e-11
   Tcut                                     ... 2.500e-12
   Tpresel                                  ... 2.500e-12 
Coulomb Range Separation                    ... NOT USED
Exchange Range Separation                   ... NOT USED
Multipole approximations                    ... NOT USED
Finite Nucleus Model                        ... NOT USED
CABS basis                                  ... NOT available
Auxiliary Coulomb fitting basis             ... AVAILABLE
   # of basis functions in Aux-J            ...    774
   # of shells in Aux-J                     ...    250
   Maximum angular momentum in Aux-J        ...      4
Auxiliary J/K fitting basis                 ... NOT available
Auxiliary Correlation fitting basis         ... NOT available
Auxiliary 'external' fitting basis          ... NOT available

Checking pre-screening integrals            ... done (  0.2 sec) Dimension = 100
Check shell pair data                       ... done (  0.1 sec)
Shell pair information
Shell pair cut-off parameter TPreSel        ...   2.5e-12
Total number of shell pairs                 ...      5050
Shell pairs after pre-screening             ...      4516
Total number of primitive shell pairs       ...     20306
Primitive shell pairs kept                  ...     12260
          la=0 lb=0:   1482 shell pairs
          la=1 lb=0:   1508 shell pairs
          la=1 lb=1:    398 shell pairs
          la=2 lb=0:    674 shell pairs
          la=2 lb=1:    370 shell pairs
          la=2 lb=2:     84 shell pairs

Calculating one electron integrals          ... done (  0.0 sec)
Calculating RI/J V-Matrix + Cholesky decomp.... done (  0.1 sec)
Calculating Nuclear repulsion               ... done (  0.0 sec) ENN=    784.913846783157 Eh

Diagonalization of the overlap matrix:
Smallest eigenvalue                        ... 1.873e-04
Time for diagonalization                   ...    0.008 sec
Threshold for overlap eigenvalues          ... 1.000e-07
Number of eigenvalues below threshold      ... 0
Time for construction of square roots      ...    0.033 sec
Total time needed                          ...    0.188 sec

-------------------
DFT GRID GENERATION
-------------------

General Integration Accuracy     IntAcc      ... 4.388
Radial Grid Type                 RadialGrid  ... OptM3 with GC (2021)
Angular Grid (max. ang.)         AngularGrid ... 4 (Lebedev-302)
Angular grid pruning method      GridPruning ... 4 (adaptive)
Weight generation scheme         WeightScheme... mBecke (2022)
Basis function cutoff            BFCut       ... 1.0000e-11
Integration weight cutoff        WCut        ... 1.0000e-14
Partially contracted basis set               ... off
Rotationally invariant grid construction     ... off
Angular grids for H and He will be reduced by one unit

Total number of grid points                  ...   109615
Total number of batches                      ...     1721
Average number of points per batch           ...       63
Average number of grid points per atom       ...     4982

--------------------
COSX GRID GENERATION
--------------------

GRIDX 1
-------
General Integration Accuracy     IntAcc      ... 3.816
Radial Grid Type                 RadialGrid  ... OptM3 with GC (2021)
Angular Grid (max. ang.)         AngularGrid ... 1 (Lebedev-50)
Angular grid pruning method      GridPruning ... 4 (adaptive)
Weight generation scheme         WeightScheme... mBecke (2022)
Basis function cutoff            BFCut       ... 1.0000e-11
Integration weight cutoff        WCut        ... 1.0000e-14
Partially contracted basis set               ... on
Rotationally invariant grid construction     ... off
Angular grids for H and He will be reduced by one unit

Total number of grid points                  ...    13900
Total number of batches                      ...      119
Average number of points per batch           ...      116
Average number of grid points per atom       ...      632
UseSFitting                                  ... on

GRIDX 2
-------
General Integration Accuracy     IntAcc      ... 4.020
Radial Grid Type                 RadialGrid  ... OptM3 with GC (2021)
Angular Grid (max. ang.)         AngularGrid ... 2 (Lebedev-110)
Angular grid pruning method      GridPruning ... 4 (adaptive)
Weight generation scheme         WeightScheme... mBecke (2022)
Basis function cutoff            BFCut       ... 1.0000e-11
Integration weight cutoff        WCut        ... 1.0000e-14
Partially contracted basis set               ... on
Rotationally invariant grid construction     ... off
Angular grids for H and He will be reduced by one unit

Total number of grid points                  ...    30961
Total number of batches                      ...      252
Average number of points per batch           ...      122
Average number of grid points per atom       ...     1407
UseSFitting                                  ... on

GRIDX 3
-------
General Integration Accuracy     IntAcc      ... 4.338
Radial Grid Type                 RadialGrid  ... OptM3 with GC (2021)
Angular Grid (max. ang.)         AngularGrid ... 3 (Lebedev-194)
Angular grid pruning method      GridPruning ... 4 (adaptive)
Weight generation scheme         WeightScheme... mBecke (2022)
Basis function cutoff            BFCut       ... 1.0000e-11
Integration weight cutoff        WCut        ... 1.0000e-14
Partially contracted basis set               ... on
Rotationally invariant grid construction     ... off
Angular grids for H and He will be reduced by one unit

Total number of grid points                  ...    68126
Total number of batches                      ...      542
Average number of points per batch           ...      125
Average number of grid points per atom       ...     3097
UseSFitting                                  ... on
Initializing property integral containers    ... done (  0.2 sec)

SHARK setup successfully completed in   6.2 seconds

Maximum memory used throughout the entire STARTUP-calculation: 27.4 MB


           ************************************************************
           *        Program running with 15 parallel MPI-processes    *
           *              working on a common directory               *
           ************************************************************
-------------------------------------------------------------------------------
                                 ORCA GUESS
                   Start orbitals & Density for SCF / CASSCF
-------------------------------------------------------------------------------

------------
SCF SETTINGS
------------
Hamiltonian:
 Density Functional     Method          .... DFT(GTOs)
 Exchange Functional    Exchange        .... PBE
   PBE kappa parameter   XKappa         ....  0.804000
   PBE mue parameter    XMuePBE         ....  0.219520
 Correlation Functional Correlation     .... PBE
   PBE beta parameter  CBetaPBE         ....  0.066725
 LDA part of GGA corr.  LDAOpt          .... PW91-LDA
 Gradients option       PostSCFGGA      .... off
 Hybrid DFT is turned on
   Fraction HF Exchange ScalHFX         ....  0.250000
   Scaling of DF-GGA-X  ScalDFX         ....  0.750000
   Scaling of DF-GGA-C  ScalDFC         ....  1.000000
   Scaling of DF-LDA-C  ScalLDAC        ....  1.000000
   Perturbative correction              ....  0.000000
   NL short-range parameter             ....  6.900000
 RI-approximation to the Coulomb term is turned on
   Number of AuxJ basis functions       .... 774
   RIJ-COSX (HFX calculated with COS-X)).... on


General Settings:
 Integral files         IntName         .... cs_rporg_w02_red_opt_01
 Hartree-Fock type      HFTyp           .... UHF
 Total Charge           Charge          ....   -1
 Multiplicity           Mult            ....    2
 Number of Electrons    NEL             ....   95
 Basis Dimension        Dim             ....  212
 Nuclear Repulsion      ENuc            ....    784.9138467832 Eh

Convergence Acceleration:
 AO-DIIS                CNVDIIS         .... on
   Start iteration      DIISMaxIt       ....     0
   Startup error        DIISStart       ....  0.200000
   # of expansion vecs  DIISMaxEq       ....     5
   Bias factor          DIISBfac        ....   1.050
   Max. coefficient     DIISMaxC        ....  10.000
 MO-DIIS                CNVKDIIS        .... off
 Trust-Rad. Augm. Hess. CNVTRAH         .... auto
   Auto Start mean grad. ratio tolernc. ....  1.125000
   Auto Start start iteration           ....    50
   Auto Start num. interpolation iter.  ....    10
   Max. Number of Micro iterations      ....    24
   Max. Number of Macro iterations      .... Maxiter - #DIIS iter
   Number of Davidson start vectors     ....     2
   Converg. threshold    (grad. norm)   ....   1.000e-05
   Grad. Scal. Fac. for Micro threshold ....   0.100
   Minimum threshold for Micro iter.    ....   1.000e-02
   NR start threshold (gradient norm)   ....   1.000e-04
   Initial trust radius                 ....   0.400
   Minimum AH scaling param. (alpha)    ....   1.000
   Maximum AH scaling param. (alpha)    .... 1000.000
   Quad. conv. algorithm                .... NR
   White noise on init. David. guess    .... on
   Maximum white noise                  ....   0.010
   Pseudo random numbers                .... off
   Inactive MOs                         .... canonical
   Orbital update algorithm             .... Taylor
   Preconditioner                       .... Diag
   Full preconditioner red. dimension   ....   250
 SOSCF                  CNVSOSCF        .... on
   Start iteration      SOSCFMaxIt      ....   150
   Startup grad/error   SOSCFStart      ....  0.001000
   Hessian update       SOSCFHessUp     .... L-BFGS
 Level Shifting         CNVShift        .... on
   Level shift para.    LevelShift      ....    0.2500
   Turn off err/grad.   ShiftErr        ....    0.0000
 Zerner damping         CNVZerner       .... off
 Static damping         CNVDamp         .... on
   Fraction old density DampFac         ....    0.8500
   Max. Damping (<1)    DampMax         ....    0.9800
   Min. Damping (>=0)   DampMin         ....    0.0000
   Turn off err/grad.   DampErr         ....    0.0300

SCF Procedure:
 Maximum # iterations   MaxIter         ....  1500
 SCF integral mode      SCFMode         .... Direct
   Integral package                     .... SHARK and LIBINT hybrid scheme
 Reset frequency        DirectResetFreq ....    20
 Integral Threshold     Thresh          ....  2.500e-11 Eh
 Primitive CutOff       TCut            ....  2.500e-12 Eh

Convergence Tolerance:
 Convergence Check Mode ConvCheckMode   .... Total+1el-Energy
 Convergence forced     ConvForced      .... 0
 Energy Change          TolE            ....  1.000e-08 Eh
 1-El. energy change                    ....  1.000e-05 Eh
 Orbital Gradient       TolG            ....  1.000e-05
 Orbital Rotation angle TolX            ....  1.000e-05
 DIIS Error             TolErr          ....  5.000e-07

------------------------------
INITIAL GUESS: MODEL POTENTIAL
------------------------------
Loading Hartree-Fock densities                     ... done
Calculating cut-offs                               ... done
Initializing the effective Hamiltonian             ... done
Setting up the integral package (SHARK)            ... done
Starting the Coulomb interaction                   ... done (   0.2 sec)
Making the grid                                    ... done (   0.4 sec)
Mapping shells                                     ... done
Starting the XC term evaluation                    ... done (   0.1 sec)
  promolecular density results
     # of electrons  =     93.995715536
     EX              =    -76.776380533
     EC              =     -3.147852105
     EX+EC           =    -79.924232638
Transforming the Hamiltonian                       ... done (   0.1 sec)
Diagonalizing the Hamiltonian                      ... done (   0.0 sec)
Back transforming the eigenvectors                 ... done (   0.4 sec)
Now organizing SCF variables                       ... done
                      ------------------
                      INITIAL GUESS DONE (   2.6 sec)
                      ------------------
             **** ENERGY FILE WAS UPDATED (cs_rporg_w02_red_opt_01.en.tmp) ****
Finished Guess after   4.8 sec
Maximum memory used throughout the entire GUESS-calculation: 15.4 MB


           ************************************************************
           *        Program running with 15 parallel MPI-processes    *
           *              working on a common directory               *
           ************************************************************

-------------------------------------------------------------------------------------------
                                      ORCA LEAN-SCF
                              memory conserving SCF solver
-------------------------------------------------------------------------------------------

----------------------------------------D-I-I-S--------------------------------------------
Iteration    Energy (Eh)           Delta-E    RMSDP     MaxDP     DIISErr   Damp  Time(sec)
-------------------------------------------------------------------------------------------
               ***  Starting incremental Fock matrix formation  ***
    1    -570.2012636205461149     0.00e+00  9.35e-04  1.76e-02  8.35e-02  0.850   8.9
Warning: op=0 Small HOMO/LUMO gap (   0.051) - skipping pre-diagonalization
         Will do a full diagonalization
    2    -570.2757032070419427    -7.44e-02  9.63e-04  1.48e-02  6.21e-02  0.850   9.2
                               ***Turning on AO-DIIS***
    3    -570.3281279987925245    -5.24e-02  5.72e-04  8.48e-03  4.19e-02  0.850   8.7
    4    -570.3637291234806526    -3.56e-02  4.05e-04  6.08e-03  3.36e-02  0.850   9.3
    5    -570.3899888822613775    -2.63e-02  3.18e-04  4.77e-03  2.85e-02  0.850  10.1
    6    -570.4106721379484952    -2.07e-02  1.76e-03  2.67e-02  2.42e-02  0.000  12.9
    7    -570.5123258284397707    -1.02e-01  1.18e-04  2.31e-03  1.89e-03  0.000   8.4
                              *** Initializing SOSCF ***
---------------------------------------S-O-S-C-F--------------------------------------
Iteration    Energy (Eh)           Delta-E    RMSDP     MaxDP     MaxGrad    Time(sec)
--------------------------------------------------------------------------------------
    8    -570.5124706210201566    -1.45e-04  4.67e-05  8.70e-04  8.63e-04    12.0
               *** Restarting incremental Fock matrix formation ***
    9    -570.5127177022593514    -2.47e-04  5.27e-05  1.03e-03  8.63e-04    11.5
   10    -570.5127597420619168    -4.20e-05  1.11e-04  2.38e-03  6.35e-04    11.5
   11    -570.5127720299326484    -1.23e-05  4.10e-05  7.54e-04  9.09e-04    14.3
   12    -570.5127898643622757    -1.78e-05  1.31e-05  2.13e-04  2.01e-04    12.8
   13    -570.5127904652872530    -6.01e-07  5.80e-06  1.60e-04  1.67e-04    14.0
   14    -570.5127909865141191    -5.21e-07  3.68e-06  8.81e-05  6.15e-05    13.1
   15    -570.5127910947480814    -1.08e-07  1.66e-06  3.52e-05  2.36e-05    12.0
   16    -570.5127911085753567    -1.38e-08  1.15e-06  2.56e-05  1.02e-05    14.2
   17    -570.5127911044955908     4.08e-09  4.92e-07  9.19e-06  9.18e-06    14.4
                 **** Energy Check signals convergence ****

               *****************************************************
               *                     SUCCESS                       *
               *           SCF CONVERGED AFTER  17 CYCLES          *
               *****************************************************

Recomputing exchange energy using gridx3       ... done (    2.245 sec)
Old exchange energy                            :    -19.584688616 Eh
New exchange energy                            :    -19.584684747 Eh
Exchange energy change after final integration :      0.000003868 Eh
Total energy after final integration           :   -570.512787236 Eh
             **** ENERGY FILE WAS UPDATED (cs_rporg_w02_red_opt_01.en.tmp) ****

----------------
TOTAL SCF ENERGY
----------------

Total Energy       :       -570.51278723642361 Eh          -15524.44219 eV

Components:
Nuclear Repulsion  :        784.91384678315671 Eh           21358.59162 eV
Electronic Energy  :      -1355.42663788765230 Eh          -36883.03391 eV
One Electron Energy:      -2343.53935707701567 Eh          -63770.94796 eV
Two Electron Energy:        988.11271918936325 Eh           26887.91404 eV

Virial components:
Potential Energy   :      -1135.68860966701686 Eh          -30903.65818 eV
Kinetic Energy     :        565.17582243059314 Eh           15379.21599 eV
Virial Ratio       :          2.00944301683479

DFT components:
N(Alpha)           :       47.999992412759 electrons
N(Beta)            :       46.999986279470 electrons
N(Total)           :       94.999978692229 electrons
E(X)               :      -58.628754282116 Eh       
E(C)               :       -3.201891963415 Eh       
E(XC)              :      -61.830646245531 Eh       

---------------
SCF CONVERGENCE
---------------

  Last Energy change         ...   -4.0798e-09  Tolerance :   1.0000e-08
  Last MAX-Density change    ...    9.1891e-06  Tolerance :   1.0000e-07
  Last RMS-Density change    ...    4.9185e-07  Tolerance :   5.0000e-09
  Last DIIS Error            ...    8.6270e-04  Tolerance :   5.0000e-07
  Last Orbital Gradient      ...    9.1839e-06  Tolerance :   1.0000e-05
  Last Orbital Rotation      ...    2.9876e-05  Tolerance :   1.0000e-05


----------------------
UHF SPIN CONTAMINATION
----------------------

Warning: in a DFT calculation there is little theoretical justification to 
         calculate <S**2> as in Hartree-Fock theory. We will do it anyways
         but you should keep in mind that the values have only limited relevance

Expectation value of <S**2>     :     0.770075
Ideal value S*(S+1) for S=0.5   :     0.750000
Deviation                       :     0.020075

----------------
ORBITAL ENERGIES
----------------
                 SPIN UP ORBITALS
  NO   OCC          E(Eh)            E(eV) 
   0   1.0000     -14.218804      -386.9133 
   1   1.0000     -14.218731      -386.9113 
   2   1.0000     -10.107153      -275.0296 
   3   1.0000     -10.106992      -275.0252 
   4   1.0000     -10.100211      -274.8407 
   5   1.0000     -10.100191      -274.8402 
   6   1.0000     -10.093287      -274.6523 
   7   1.0000     -10.093277      -274.6520 
   8   1.0000     -10.088021      -274.5090 
   9   1.0000     -10.087958      -274.5073 
  10   1.0000     -10.084455      -274.4120 
  11   1.0000     -10.084361      -274.4094 
  12   1.0000     -10.067961      -273.9632 
  13   1.0000     -10.067811      -273.9591 
  14   1.0000      -0.810227       -22.0474 
  15   1.0000      -0.786836       -21.4109 
  16   1.0000      -0.690551       -18.7908 
  17   1.0000      -0.665306       -18.1039 
  18   1.0000      -0.661612       -18.0034 
  19   1.0000      -0.611020       -16.6267 
  20   1.0000      -0.578156       -15.7324 
  21   1.0000      -0.516607       -14.0576 
  22   1.0000      -0.500555       -13.6208 
  23   1.0000      -0.480260       -13.0685 
  24   1.0000      -0.462672       -12.5900 
  25   1.0000      -0.412503       -11.2248 
  26   1.0000      -0.394032       -10.7221 
  27   1.0000      -0.369025       -10.0417 
  28   1.0000      -0.348861        -9.4930 
  29   1.0000      -0.331807        -9.0289 
  30   1.0000      -0.325282        -8.8514 
  31   1.0000      -0.293358        -7.9827 
  32   1.0000      -0.285029        -7.7560 
  33   1.0000      -0.272068        -7.4034 
  34   1.0000      -0.265669        -7.2292 
  35   1.0000      -0.260826        -7.0974 
  36   1.0000      -0.260311        -7.0834 
  37   1.0000      -0.250998        -6.8300 
  38   1.0000      -0.222164        -6.0454 
  39   1.0000      -0.202728        -5.5165 
  40   1.0000      -0.186117        -5.0645 
  41   1.0000      -0.164316        -4.4713 
  42   1.0000      -0.153635        -4.1806 
  43   1.0000      -0.110617        -3.0100 
  44   1.0000      -0.109586        -2.9820 
  45   1.0000      -0.091872        -2.5000 
  46   1.0000      -0.079169        -2.1543 
  47   1.0000       0.045514         1.2385 
  48   0.0000       0.102685         2.7942 
  49   0.0000       0.149173         4.0592 
  50   0.0000       0.172683         4.6989 
  51   0.0000       0.203129         5.5274 
  52   0.0000       0.207009         5.6330 
  53   0.0000       0.207354         5.6424 
  54   0.0000       0.234278         6.3750 
  55   0.0000       0.245998         6.6940 
  56   0.0000       0.256716         6.9856 
  57   0.0000       0.266460         7.2507 
  58   0.0000       0.278278         7.5723 

                 SPIN DOWN ORBITALS
  NO   OCC          E(Eh)            E(eV) 
   0   1.0000     -14.218671      -386.9097 
   1   1.0000     -14.218599      -386.9077 
   2   1.0000     -10.106665      -275.0163 
   3   1.0000     -10.106499      -275.0118 
   4   1.0000     -10.097307      -274.7617 
   5   1.0000     -10.097288      -274.7612 
   6   1.0000     -10.094553      -274.6868 
   7   1.0000     -10.094543      -274.6865 
   8   1.0000     -10.085168      -274.4314 
   9   1.0000     -10.085063      -274.4285 
  10   1.0000     -10.084633      -274.4168 
  11   1.0000     -10.084584      -274.4155 
  12   1.0000     -10.064218      -273.8613 
  13   1.0000     -10.064039      -273.8564 
  14   1.0000      -0.808217       -21.9927 
  15   1.0000      -0.784639       -21.3511 
  16   1.0000      -0.686112       -18.6701 
  17   1.0000      -0.661798       -18.0084 
  18   1.0000      -0.658797       -17.9268 
  19   1.0000      -0.608491       -16.5579 
  20   1.0000      -0.571333       -15.5468 
  21   1.0000      -0.514852       -14.0098 
  22   1.0000      -0.492645       -13.4055 
  23   1.0000      -0.477788       -13.0013 
  24   1.0000      -0.460365       -12.5272 
  25   1.0000      -0.408268       -11.1095 
  26   1.0000      -0.392016       -10.6673 
  27   1.0000      -0.367308        -9.9950 
  28   1.0000      -0.346984        -9.4419 
  29   1.0000      -0.330075        -8.9818 
  30   1.0000      -0.323712        -8.8087 
  31   1.0000      -0.292055        -7.9472 
  32   1.0000      -0.278524        -7.5790 
  33   1.0000      -0.270827        -7.3696 
  34   1.0000      -0.264224        -7.1899 
  35   1.0000      -0.259056        -7.0493 
  36   1.0000      -0.258447        -7.0327 
  37   1.0000      -0.242548        -6.6001 
  38   1.0000      -0.220216        -5.9924 
  39   1.0000      -0.200755        -5.4628 
  40   1.0000      -0.170020        -4.6265 
  41   1.0000      -0.156737        -4.2650 
  42   1.0000      -0.139906        -3.8070 
  43   1.0000      -0.110290        -3.0011 
  44   1.0000      -0.102946        -2.8013 
  45   1.0000      -0.091553        -2.4913 
  46   1.0000      -0.054335        -1.4785 
  47   0.0000       0.107756         2.9322 
  48   0.0000       0.116750         3.1769 
  49   0.0000       0.163372         4.4456 
  50   0.0000       0.180834         4.9207 
  51   0.0000       0.203626         5.5409 
  52   0.0000       0.207462         5.6453 
  53   0.0000       0.230816         6.2808 
  54   0.0000       0.235384         6.4051 
  55   0.0000       0.247353         6.7308 
  56   0.0000       0.258396         7.0313 
  57   0.0000       0.267603         7.2818 
*Only the first 10 virtual orbitals were printed.

                    ********************************
                    * MULLIKEN POPULATION ANALYSIS *
                    ********************************

--------------------------------------------
MULLIKEN ATOMIC CHARGES AND SPIN POPULATIONS
--------------------------------------------
   0 C :   -0.115236   -0.098488
   1 C :   -0.018249    0.025282
   2 C :    0.108423   -0.031172
   3 C :   -0.145580    0.215229
   4 C :   -0.115160   -0.098488
   5 C :   -0.092862    0.190802
   6 N :   -0.150384   -0.004105
   7 H :    0.033868   -0.012636
   8 H :    0.041884    0.004074
   9 H :    0.044862   -0.012626
  10 C :   -0.018671    0.025446
  11 C :    0.108517   -0.031076
  12 C :   -0.145481    0.215027
  13 C :   -0.092941    0.190830
  14 N :   -0.150177   -0.004254
  15 H :    0.033944   -0.012620
  16 H :    0.041958    0.004073
  17 H :    0.044907   -0.012626
  18 C :   -0.215304    0.239475
  19 C :   -0.215431    0.239343
  20 H :    0.008563   -0.015748
  21 H :    0.008550   -0.015742
Sum of atomic charges         :   -1.0000000
Sum of atomic spin populations:    1.0000000

-----------------------------------------------------
MULLIKEN REDUCED ORBITAL CHARGES AND SPIN POPULATIONS
-----------------------------------------------------
CHARGE
  0 C s       :     3.169529  s :     3.169529
      pz      :     0.879566  p :     2.907440
      px      :     1.007294
      py      :     1.020580
      dz2     :     0.012201  d :     0.038268
      dxz     :     0.007157
      dyz     :     0.004454
      dx2y2   :     0.008561
      dxy     :     0.005895

  1 C s       :     3.080542  s :     3.080542
      pz      :     0.994373  p :     2.877764
      px      :     0.925974
      py      :     0.957417
      dz2     :     0.015937  d :     0.059944
      dxz     :     0.014401
      dyz     :     0.010204
      dx2y2   :     0.009630
      dxy     :     0.009772

  2 C s       :     3.014953  s :     3.014953
      pz      :     0.878802  p :     2.830971
      px      :     0.974783
      py      :     0.977386
      dz2     :     0.010600  d :     0.045653
      dxz     :     0.011665
      dyz     :     0.009487
      dx2y2   :     0.008149
      dxy     :     0.005752

  3 C s       :     3.204471  s :     3.204471
      pz      :     0.990165  p :     2.903993
      px      :     0.917409
      py      :     0.996419
      dz2     :     0.008669  d :     0.037117
      dxz     :     0.011121
      dyz     :     0.008031
      dx2y2   :     0.004078
      dxy     :     0.005217

  4 C s       :     3.169455  s :     3.169455
      pz      :     0.880069  p :     2.907435
      px      :     1.006940
      py      :     1.020425
      dz2     :     0.011856  d :     0.038270
      dxz     :     0.007463
      dyz     :     0.004626
      dx2y2   :     0.008506
      dxy     :     0.005818

  5 C s       :     3.144978  s :     3.144978
      pz      :     0.926746  p :     2.891695
      px      :     0.950072
      py      :     1.014877
      dz2     :     0.015641  d :     0.056188
      dxz     :     0.018027
      dyz     :     0.013590
      dx2y2   :     0.003309
      dxy     :     0.005622

  6 N s       :     3.504927  s :     3.504927
      pz      :     1.141927  p :     3.616457
      px      :     1.280726
      py      :     1.193804
      dz2     :     0.008823  d :     0.029000
      dxz     :     0.005442
      dyz     :     0.005327
      dx2y2   :     0.004547
      dxy     :     0.004862

  7 H s       :     0.966132  s :     0.966132

  8 H s       :     0.958116  s :     0.958116

  9 H s       :     0.955138  s :     0.955138

 10 C s       :     3.080888  s :     3.080888
      pz      :     0.991581  p :     2.877839
      px      :     0.927966
      py      :     0.958293
      dz2     :     0.016817  d :     0.059944
      dxz     :     0.013942
      dyz     :     0.010138
      dx2y2   :     0.009370
      dxy     :     0.009677

 11 C s       :     3.014817  s :     3.014817
      pz      :     0.865606  p :     2.831014
      px      :     0.983716
      py      :     0.981692
      dz2     :     0.010825  d :     0.045652
      dxz     :     0.011598
      dyz     :     0.009693
      dx2y2   :     0.007768
      dxy     :     0.005769

 12 C s       :     3.204369  s :     3.204369
      pz      :     0.997795  p :     2.903993
      px      :     0.912256
      py      :     0.993942
      dz2     :     0.009042  d :     0.037119
      dxz     :     0.010820
      dyz     :     0.008093
      dx2y2   :     0.003774
      dxy     :     0.005389

 13 C s       :     3.145016  s :     3.145016
      pz      :     0.926043  p :     2.891736
      px      :     0.950574
      py      :     1.015118
      dz2     :     0.014746  d :     0.056189
      dxz     :     0.018812
      dyz     :     0.013788
      dx2y2   :     0.003539
      dxy     :     0.005304

 14 N s       :     3.504707  s :     3.504707
      pz      :     1.098891  p :     3.616469
      px      :     1.309992
      py      :     1.207586
      dz2     :     0.008129  d :     0.029001
      dxz     :     0.006106
      dyz     :     0.005699
      dx2y2   :     0.004421
      dxy     :     0.004645

 15 H s       :     0.966056  s :     0.966056

 16 H s       :     0.958042  s :     0.958042

 17 H s       :     0.955093  s :     0.955093

 18 C s       :     3.257757  s :     3.257757
      pz      :     0.892800  p :     2.924734
      px      :     0.963040
      py      :     1.068894
      dz2     :     0.006912  d :     0.032813
      dxz     :     0.010103
      dyz     :     0.007755
      dx2y2   :     0.003037
      dxy     :     0.005005

 19 C s       :     3.257769  s :     3.257769
      pz      :     0.906087  p :     2.924848
      px      :     0.954090
      py      :     1.064671
      dz2     :     0.007332  d :     0.032813
      dxz     :     0.009760
      dyz     :     0.007786
      dx2y2   :     0.002753
      dxy     :     0.005182

 20 H s       :     0.991437  s :     0.991437

 21 H s       :     0.991450  s :     0.991450


SPIN
  0 C s       :    -0.017438  s :    -0.017438
      pz      :    -0.006282  p :    -0.084424
      px      :    -0.030110
      py      :    -0.048032
      dz2     :     0.000086  d :     0.003374
      dxz     :     0.000056
      dyz     :     0.000072
      dx2y2   :     0.002679
      dxy     :     0.000481

  1 C s       :     0.002219  s :     0.002219
      pz      :     0.002561  p :     0.022592
      px      :     0.005059
      py      :     0.014971
      dz2     :    -0.000042  d :     0.000471
      dxz     :     0.000042
      dyz     :     0.000091
      dx2y2   :     0.000412
      dxy     :    -0.000031

  2 C s       :    -0.004735  s :    -0.004735
      pz      :    -0.010505  p :    -0.030133
      px      :    -0.011089
      py      :    -0.008538
      dz2     :     0.000035  d :     0.003695
      dxz     :     0.000543
      dyz     :     0.001079
      dx2y2   :     0.001818
      dxy     :     0.000220

  3 C s       :     0.035626  s :     0.035626
      pz      :     0.006168  p :     0.180458
      px      :     0.058699
      py      :     0.115591
      dz2     :    -0.000146  d :    -0.000855
      dxz     :    -0.000033
      dyz     :    -0.000029
      dx2y2   :    -0.000248
      dxy     :    -0.000400

  4 C s       :    -0.017436  s :    -0.017436
      pz      :    -0.006236  p :    -0.084428
      px      :    -0.030147
      py      :    -0.048045
      dz2     :     0.000081  d :     0.003375
      dxz     :     0.000066
      dyz     :     0.000088
      dx2y2   :     0.002661
      dxy     :     0.000480

  5 C s       :     0.022768  s :     0.022768
      pz      :     0.005609  p :     0.168592
      px      :     0.054785
      py      :     0.108197
      dz2     :    -0.000119  d :    -0.000558
      dxz     :     0.000058
      dyz     :     0.000111
      dx2y2   :    -0.000197
      dxy     :    -0.000410

  6 N s       :    -0.002950  s :    -0.002950
      pz      :    -0.005507  p :    -0.002094
      px      :     0.000393
      py      :     0.003020
      dz2     :     0.000015  d :     0.000939
      dxz     :     0.000140
      dyz     :     0.000292
      dx2y2   :     0.000450
      dxy     :     0.000041

  7 H s       :    -0.012636  s :    -0.012636

  8 H s       :     0.004074  s :     0.004074

  9 H s       :    -0.012626  s :    -0.012626

 10 C s       :     0.002242  s :     0.002242
      pz      :     0.002581  p :     0.022735
      px      :     0.005098
      py      :     0.015056
      dz2     :    -0.000054  d :     0.000469
      dxz     :     0.000079
      dyz     :     0.000159
      dx2y2   :     0.000326
      dxy     :    -0.000041

 11 C s       :    -0.004721  s :    -0.004721
      pz      :    -0.011117  p :    -0.030049
      px      :    -0.010638
      py      :    -0.008294
      dz2     :     0.000014  d :     0.003694
      dxz     :     0.000648
      dyz     :     0.001285
      dx2y2   :     0.001559
      dxy     :     0.000187

 12 C s       :     0.035596  s :     0.035596
      pz      :     0.006134  p :     0.180284
      px      :     0.058669
      py      :     0.115481
      dz2     :    -0.000145  d :    -0.000854
      dxz     :    -0.000033
      dyz     :    -0.000032
      dx2y2   :    -0.000242
      dxy     :    -0.000402

 13 C s       :     0.022774  s :     0.022774
      pz      :     0.005519  p :     0.168616
      px      :     0.054853
      py      :     0.108244
      dz2     :    -0.000128  d :    -0.000560
      dxz     :     0.000071
      dyz     :     0.000131
      dx2y2   :    -0.000221
      dxy     :    -0.000412

 14 N s       :    -0.002961  s :    -0.002961
      pz      :    -0.005594  p :    -0.002233
      px      :     0.000404
      py      :     0.002957
      dz2     :     0.000010  d :     0.000940
      dxz     :     0.000172
      dyz     :     0.000356
      dx2y2   :     0.000371
      dxy     :     0.000031

 15 H s       :    -0.012620  s :    -0.012620

 16 H s       :     0.004073  s :     0.004073

 17 H s       :    -0.012626  s :    -0.012626

 18 C s       :     0.026061  s :     0.026061
      pz      :    -0.000496  p :     0.212405
      px      :     0.069742
      py      :     0.143159
      dz2     :    -0.000152  d :     0.001009
      dxz     :     0.000551
      dyz     :     0.001057
      dx2y2   :     0.000078
      dxy     :    -0.000526

 19 C s       :     0.026034  s :     0.026034
      pz      :    -0.000583  p :     0.212298
      px      :     0.069771
      py      :     0.143110
      dz2     :    -0.000160  d :     0.001011
      dxz     :     0.000586
      dyz     :     0.001122
      dx2y2   :    -0.000002
      dxy     :    -0.000536

 20 H s       :    -0.015748  s :    -0.015748

 21 H s       :    -0.015742  s :    -0.015742



                     *******************************
                     * LOEWDIN POPULATION ANALYSIS *
                     *******************************

-------------------------------------------
LOEWDIN ATOMIC CHARGES AND SPIN POPULATIONS
-------------------------------------------
   0 C :   -0.172138   -0.054415
   1 C :   -0.009717    0.023892
   2 C :   -0.062265    0.000776
   3 C :   -0.162298    0.164253
   4 C :   -0.172135   -0.054409
   5 C :   -0.159699    0.156196
   6 N :   -0.100655    0.008491
   7 H :    0.105834   -0.005808
   8 H :    0.104062    0.001805
   9 H :    0.090097   -0.005745
  10 C :   -0.009757    0.024006
  11 C :   -0.062279    0.000832
  12 C :   -0.162274    0.164097
  13 C :   -0.159720    0.156209
  14 N :   -0.100585    0.008364
  15 H :    0.105852   -0.005802
  16 H :    0.104079    0.001806
  17 H :    0.090106   -0.005745
  18 C :   -0.229127    0.217706
  19 C :   -0.229119    0.217621
  20 H :    0.095869   -0.007068
  21 H :    0.095869   -0.007065

----------------------------------------------------
LOEWDIN REDUCED ORBITAL CHARGES AND SPIN POPULATIONS
----------------------------------------------------
CHARGE
  0 C s       :     2.902703  s :     2.902703
      pz      :     1.052270  p :     3.173321
      px      :     1.076645
      py      :     1.044407
      dz2     :     0.029157  d :     0.096114
      dxz     :     0.020401
      dyz     :     0.011337
      dx2y2   :     0.019157
      dxy     :     0.016062

  1 C s       :     2.841983  s :     2.841983
      pz      :     1.030512  p :     3.020455
      px      :     1.005052
      py      :     0.984891
      dz2     :     0.043422  d :     0.147280
      dxz     :     0.036201
      dyz     :     0.023514
      dx2y2   :     0.019336
      dxy     :     0.024806

  2 C s       :     2.836672  s :     2.836672
      pz      :     1.065644  p :     3.104906
      px      :     1.038245
      py      :     1.001017
      dz2     :     0.031489  d :     0.120687
      dxz     :     0.032392
      dyz     :     0.023613
      dx2y2   :     0.017566
      dxy     :     0.015627

  3 C s       :     2.887592  s :     2.887592
      pz      :     1.069375  p :     3.181938
      px      :     1.056966
      py      :     1.055597
      dz2     :     0.024397  d :     0.092768
      dxz     :     0.028897
      dyz     :     0.019393
      dx2y2   :     0.008049
      dxy     :     0.012032

  4 C s       :     2.902692  s :     2.902692
      pz      :     1.053328  p :     3.173329
      px      :     1.075928
      py      :     1.044072
      dz2     :     0.028686  d :     0.096115
      dxz     :     0.020928
      dyz     :     0.011669
      dx2y2   :     0.018991
      dxy     :     0.015841

  5 C s       :     2.887838  s :     2.887838
      pz      :     1.023320  p :     3.138790
      px      :     1.056525
      py      :     1.058945
      dz2     :     0.040720  d :     0.133071
      dxz     :     0.044002
      dyz     :     0.030583
      dx2y2   :     0.006254
      dxy     :     0.011511

  6 N s       :     3.221903  s :     3.221903
      pz      :     1.269733  p :     3.818375
      px      :     1.330679
      py      :     1.217963
      dz2     :     0.021020  d :     0.060377
      dxz     :     0.012256
      dyz     :     0.010951
      dx2y2   :     0.006985
      dxy     :     0.009164

  7 H s       :     0.894166  s :     0.894166

  8 H s       :     0.895938  s :     0.895938

  9 H s       :     0.909903  s :     0.909903

 10 C s       :     2.841986  s :     2.841986
      pz      :     1.025339  p :     3.020496
      px      :     1.008580
      py      :     0.986577
      dz2     :     0.045143  d :     0.147275
      dxz     :     0.035340
      dyz     :     0.023363
      dx2y2   :     0.018882
      dxy     :     0.024547

 11 C s       :     2.836667  s :     2.836667
      pz      :     1.064545  p :     3.104926
      px      :     1.038995
      py      :     1.001387
      dz2     :     0.031645  d :     0.120686
      dxz     :     0.032473
      dyz     :     0.024121
      dx2y2   :     0.016809
      dxy     :     0.015638

 12 C s       :     2.887596  s :     2.887596
      pz      :     1.071558  p :     3.181909
      px      :     1.055486
      py      :     1.054865
      dz2     :     0.025390  d :     0.092769
      dxz     :     0.028431
      dyz     :     0.019642
      dx2y2   :     0.007291
      dxy     :     0.012015

 13 C s       :     2.887841  s :     2.887841
      pz      :     1.020978  p :     3.138811
      px      :     1.058126
      py      :     1.059707
      dz2     :     0.038142  d :     0.133068
      dxz     :     0.045774
      dyz     :     0.030983
      dx2y2   :     0.006918
      dxy     :     0.011251

 14 N s       :     3.221884  s :     3.221884
      pz      :     1.235377  p :     3.818322
      px      :     1.354008
      py      :     1.228938
      dz2     :     0.020052  d :     0.060379
      dxz     :     0.013720
      dyz     :     0.011935
      dx2y2   :     0.006385
      dxy     :     0.008288

 15 H s       :     0.894148  s :     0.894148

 16 H s       :     0.895921  s :     0.895921

 17 H s       :     0.909894  s :     0.909894

 18 C s       :     2.909629  s :     2.909629
      pz      :     1.047435  p :     3.239492
      px      :     1.074949
      py      :     1.117108
      dz2     :     0.020295  d :     0.080006
      dxz     :     0.024904
      dyz     :     0.018001
      dx2y2   :     0.005973
      dxy     :     0.010833

 19 C s       :     2.909625  s :     2.909625
      pz      :     1.047368  p :     3.239487
      px      :     1.074995
      py      :     1.117123
      dz2     :     0.021410  d :     0.080007
      dxz     :     0.024218
      dyz     :     0.018082
      dx2y2   :     0.005339
      dxy     :     0.010958

 20 H s       :     0.904131  s :     0.904131

 21 H s       :     0.904131  s :     0.904131


SPIN
  0 C s       :    -0.003619  s :    -0.003619
      pz      :    -0.002228  p :    -0.058849
      px      :    -0.019833
      py      :    -0.036789
      dz2     :     0.000202  d :     0.008053
      dxz     :     0.000330
      dyz     :     0.000303
      dx2y2   :     0.006091
      dxy     :     0.001127

  1 C s       :     0.000723  s :     0.000723
      pz      :     0.000173  p :     0.022220
      px      :     0.007156
      py      :     0.014892
      dz2     :    -0.000101  d :     0.000949
      dxz     :     0.000029
      dyz     :     0.000165
      dx2y2   :     0.000851
      dxy     :     0.000005

  2 C s       :    -0.001748  s :    -0.001748
      pz      :    -0.002601  p :    -0.006778
      px      :    -0.002482
      py      :    -0.001695
      dz2     :     0.000297  d :     0.009301
      dxz     :     0.001400
      dyz     :     0.002623
      dx2y2   :     0.004319
      dxy     :     0.000662

  3 C s       :     0.006347  s :     0.006347
      pz      :     0.003506  p :     0.159594
      px      :     0.051422
      py      :     0.104666
      dz2     :    -0.000311  d :    -0.001687
      dxz     :    -0.000178
      dyz     :    -0.000029
      dx2y2   :    -0.000600
      dxy     :    -0.000569

  4 C s       :    -0.003619  s :    -0.003619
      pz      :    -0.002258  p :    -0.058846
      px      :    -0.019813
      py      :    -0.036776
      dz2     :     0.000200  d :     0.008057
      dxz     :     0.000342
      dyz     :     0.000329
      dx2y2   :     0.006062
      dxy     :     0.001124

  5 C s       :     0.006081  s :     0.006081
      pz      :     0.002799  p :     0.150992
      px      :     0.048828
      py      :     0.099365
      dz2     :    -0.000217  d :    -0.000877
      dxz     :     0.000016
      dyz     :     0.000278
      dx2y2   :    -0.000407
      dxy     :    -0.000547

  6 N s       :    -0.000072  s :    -0.000072
      pz      :    -0.001894  p :     0.005992
      px      :     0.002202
      py      :     0.005684
      dz2     :     0.000144  d :     0.002571
      dxz     :     0.000586
      dyz     :     0.001175
      dx2y2   :     0.000595
      dxy     :     0.000073

  7 H s       :    -0.005808  s :    -0.005808

  8 H s       :     0.001805  s :     0.001805

  9 H s       :    -0.005745  s :    -0.005745

 10 C s       :     0.000729  s :     0.000729
      pz      :     0.000145  p :     0.022334
      px      :     0.007214
      py      :     0.014975
      dz2     :    -0.000112  d :     0.000944
      dxz     :     0.000092
      dyz     :     0.000293
      dx2y2   :     0.000685
      dxy     :    -0.000014

 11 C s       :    -0.001745  s :    -0.001745
      pz      :    -0.002816  p :    -0.006722
      px      :    -0.002316
      py      :    -0.001590
      dz2     :     0.000258  d :     0.009299
      dxz     :     0.001646
      dyz     :     0.003095
      dx2y2   :     0.003728
      dxy     :     0.000570

 12 C s       :     0.006340  s :     0.006340
      pz      :     0.003472  p :     0.159442
      px      :     0.051394
      py      :     0.104575
      dz2     :    -0.000301  d :    -0.001684
      dxz     :    -0.000202
      dyz     :    -0.000068
      dx2y2   :    -0.000551
      dxy     :    -0.000562

 13 C s       :     0.006082  s :     0.006082
      pz      :     0.002820  p :     0.151007
      px      :     0.048819
      py      :     0.099369
      dz2     :    -0.000234  d :    -0.000881
      dxz     :     0.000061
      dyz     :     0.000357
      dx2y2   :    -0.000504
      dxy     :    -0.000560

 14 N s       :    -0.000077  s :    -0.000077
      pz      :    -0.001923  p :     0.005867
      px      :     0.002179
      py      :     0.005611
      dz2     :     0.000139  d :     0.002574
      dxz     :     0.000643
      dyz     :     0.001289
      dx2y2   :     0.000452
      dxy     :     0.000050

 15 H s       :    -0.005802  s :    -0.005802

 16 H s       :     0.001806  s :     0.001806

 17 H s       :    -0.005745  s :    -0.005745

 18 C s       :     0.007092  s :     0.007092
      pz      :     0.001633  p :     0.207597
      px      :     0.067356
      py      :     0.138607
      dz2     :    -0.000062  d :     0.003017
      dxz     :     0.001219
      dyz     :     0.002620
      dx2y2   :    -0.000084
      dxy     :    -0.000675

 19 C s       :     0.007088  s :     0.007088
      pz      :     0.001497  p :     0.207513
      px      :     0.067422
      py      :     0.138594
      dz2     :    -0.000075  d :     0.003021
      dxz     :     0.001271
      dyz     :     0.002713
      dx2y2   :    -0.000195
      dxy     :    -0.000693

 20 H s       :    -0.007068  s :    -0.007068

 21 H s       :    -0.007065  s :    -0.007065



                      *****************************
                      * MAYER POPULATION ANALYSIS *
                      *****************************

  NA   - Mulliken gross atomic population
  ZA   - Total nuclear charge
  QA   - Mulliken gross atomic charge
  VA   - Mayer's total valence
  BVA  - Mayer's bonded valence
  FA   - Mayer's free valence

  ATOM       NA         ZA         QA         VA         BVA        FA
  0 C      6.1152     6.0000    -0.1152     3.8157     3.8112     0.0045
  1 C      6.0182     6.0000    -0.0182     3.9741     3.9733     0.0008
  2 C      5.8916     6.0000     0.1084     3.8756     3.8747     0.0009
  3 C      6.1456     6.0000    -0.1456     3.8284     3.7988     0.0295
  4 C      6.1152     6.0000    -0.1152     3.8157     3.8112     0.0045
  5 C      6.0929     6.0000    -0.0929     3.9688     3.9433     0.0255
[...]
     56      -0.030183   0.004724   0.003225  -0.034090  -0.001614  -0.008493
     57       0.042576  -0.006884   0.003243  -0.043536   0.001928  -0.010793
     58       0.029254  -0.004729   0.002228  -0.029913   0.001325  -0.007416
     59      -0.025546   0.004277  -0.002279   0.029921  -0.001322   0.007532
     60       0.485342  -0.074378  -0.043246   0.469800   0.022996   0.117213
     61       0.333454  -0.051104  -0.029713   0.322780   0.015801   0.080532
     62       0.374501  -0.054657  -0.035727   0.367575   0.015350   0.090235
     63      -0.505681   0.081468  -0.035450   0.498318  -0.022641   0.125383
     64      -0.347420   0.055972  -0.024359   0.342363  -0.015553   0.086140
     65       0.319860  -0.049233   0.024980  -0.320065   0.012045  -0.079010


-----------
IR SPECTRUM
-----------

 Mode   freq       eps      Int      T**2         TX        TY        TZ
       cm**-1   L/(mol*cm) km/mol    a.u.
----------------------------------------------------------------------------
  6:     83.89   0.000000    0.00  0.000001  (-0.000263  0.000218  0.001153)
  7:    105.38   0.000742    3.75  0.002198  (-0.026569  0.038620 -0.000415)
  8:    219.38   0.000218    1.10  0.000310  ( 0.009952 -0.014520  0.000032)
  9:    239.75   0.001057    5.34  0.001376  (-0.030514 -0.021032 -0.001723)
 10:    256.99   0.000001    0.00  0.000001  ( 0.000158  0.000096 -0.000845)
 11:    381.98   0.000002    0.01  0.000001  ( 0.000063  0.000054 -0.001148)
 12:    411.08   0.000362    1.83  0.000275  ( 0.013671  0.009370 -0.000296)
 13:    440.49   0.014272   72.12  0.010111  ( 0.003505  0.002403 -0.100462)
 14:    444.52   0.000005    0.03  0.000004  ( 0.000656 -0.001345  0.001176)
 15:    515.06   0.005214   26.35  0.003159  ( 0.001880  0.001546 -0.056151)
 16:    522.38   0.000444    2.24  0.000265  ( 0.009182 -0.013422 -0.000705)
 17:    551.56   0.000884    4.47  0.000500  ( 0.018434  0.012642  0.000605)
 18:    552.33   0.000007    0.04  0.000004  ( 0.001614  0.001200 -0.000089)
 19:    603.00   0.000000    0.00  0.000000  (-0.000055 -0.000014  0.000277)
 20:    616.90   0.006377   32.23  0.003226  ( 0.001931  0.001364 -0.056747)
 21:    705.88   0.032613  164.81  0.014418  (-0.004347 -0.002945  0.119961)
 22:    711.35   0.000164    0.83  0.000072  ( 0.004663 -0.007040  0.000802)
 23:    713.90   0.000318    1.61  0.000139  ( 0.009718  0.006659  0.000515)
 24:    742.74   0.014588   73.72  0.006129  (-0.044218  0.064606 -0.000094)
 25:    759.50   0.000000    0.00  0.000000  ( 0.000058 -0.000072  0.000269)
 26:    796.06   0.004138   20.91  0.001622  ( 0.022717 -0.033256  0.000058)
 27:    813.56   0.000003    0.02  0.000001  ( 0.000068 -0.000029 -0.001083)
 28:    836.43   0.000000    0.00  0.000000  (-0.000062  0.000103  0.000321)
 29:    840.59   0.002411   12.18  0.000895  ( 0.016894 -0.024687  0.000088)
 30:    862.87   0.000097    0.49  0.000035  (-0.004884 -0.003325 -0.000023)
 31:    891.49   0.000099    0.50  0.000035  ( 0.000209  0.000146 -0.005895)
 32:    897.62   0.000000    0.00  0.000000  (-0.000016  0.000024  0.000079)
 33:    949.98   0.000016    0.08  0.000005  ( 0.001272 -0.001930 -0.000230)
 34:    950.80   0.000006    0.03  0.000002  ( 0.000027  0.000073 -0.001371)
 35:   1029.06   0.000139    0.70  0.000042  (-0.000232 -0.000179  0.006490)
 36:   1068.00   0.003496   17.67  0.001021  (-0.026310 -0.018087 -0.001454)
 37:   1078.91   0.045296  228.91  0.013101  ( 0.004042  0.002774 -0.114356)
 38:   1098.72   0.002736   13.82  0.000777  (-0.022944 -0.015763 -0.001424)
 39:   1115.45   0.024398  123.30  0.006826  ( 0.002957  0.002014 -0.082540)
 40:   1131.88   0.000000    0.00  0.000000  ( 0.000174  0.000132  0.000107)
 41:   1194.75   0.002552   12.90  0.000667  (-0.021189 -0.014572 -0.002280)
 42:   1209.65   0.191619  968.36  0.049433  (-0.007974 -0.005460  0.222126)
 43:   1242.23   0.011061   55.90  0.002779  ( 0.001940  0.001334 -0.052661)
 44:   1268.31   0.004039   20.41  0.000994  ( 0.025970  0.017826  0.001284)
 45:   1304.16   0.036466  184.28  0.008726  (-0.003228 -0.002222  0.093329)
 46:   1336.83   0.003316   16.76  0.000774  (-0.022911 -0.015760 -0.000931)
 47:   1422.02   0.002626   13.27  0.000576  ( 0.019776  0.013586  0.000823)
 48:   1423.94   0.002161   10.92  0.000474  (-0.000776 -0.000533  0.021741)
 49:   1437.39   0.003039   15.36  0.000660  (-0.001912 -0.001312  0.025579)
 50:   1438.59   0.001000    5.05  0.000217  ( 0.011848  0.008156  0.003174)
 51:   1454.54   0.000135    0.68  0.000029  (-0.004405 -0.003073 -0.000242)
 52:   1535.65   0.012475   63.04  0.002535  (-0.001370 -0.000940  0.050321)
 53:   1537.97   0.001468    7.42  0.000298  ( 0.014205  0.009744 -0.001032)
 54:   1561.76   0.047103  238.04  0.009412  (-0.003422 -0.002357  0.096926)
 55:   1581.00   0.031419  158.78  0.006202  (-0.002787 -0.001918  0.078677)
 56:   1612.88   0.000903    4.57  0.000175  (-0.010879 -0.007492 -0.000574)
 57:   1667.08   0.001547    7.82  0.000290  (-0.013993 -0.009652 -0.000740)
 58:   3126.21   0.002863   14.47  0.000286  (-0.000003 -0.000022  0.016906)
 59:   3127.47   0.014427   72.91  0.001440  (-0.031210 -0.021532 -0.001347)
 60:   3146.18   0.012280   62.06  0.001218  ( 0.001084  0.000765 -0.034875)
 61:   3153.72   0.011557   58.40  0.001144  ( 0.003079  0.002116 -0.033609)
 62:   3154.33   0.011546   58.35  0.001142  (-0.027628 -0.019039 -0.004056)
 63:   3167.81   0.011783   59.55  0.001161  (-0.028013 -0.019335 -0.001488)
 64:   3176.03   0.031234  157.84  0.003069  ( 0.001943  0.001351 -0.055347)
 65:   3177.47   0.002111   10.67  0.000207  (-0.011860 -0.008165  0.000200)

* The epsilon (eps) is given for a Dirac delta lineshape.
** The dipole moment derivative (T) already includes vibrational overlap.

The first frequency considered to be a vibration is 6
The total number of vibrations considered is 60


--------------------------
THERMOCHEMISTRY AT 298.15K
--------------------------

Temperature         ...   298.15 K
Pressure            ...     1.00 atm
Total Mass          ...   180.21 AMU
Quasi RRHO          ...     True
Cut-Off Frequency   ...     1.00 cm^-1

Throughout the following assumptions are being made:
  (1) The electronic state is orbitally nondegenerate
      but the spin degeneracy is treated
  (2) There are no thermally accessible electronically excited states
  (3) Hindered rotations indicated by low frequency modes are not
      treated as such but are treated as vibrations and this may
      cause some error
  (4) All equations used are the standard statistical mechanics
      equations for an ideal gas
  (5) All vibrations are strictly harmonic

freq.      83.89  E(vib)   ...       0.48 
freq.     105.38  E(vib)   ...       0.45 
freq.     219.38  E(vib)   ...       0.33 
freq.     239.75  E(vib)   ...       0.31 
freq.     256.99  E(vib)   ...       0.30 
freq.     381.98  E(vib)   ...       0.21 
freq.     411.08  E(vib)   ...       0.19 
freq.     440.49  E(vib)   ...       0.17 
freq.     444.52  E(vib)   ...       0.17 
freq.     515.06  E(vib)   ...       0.13 
freq.     522.38  E(vib)   ...       0.13 
freq.     551.56  E(vib)   ...       0.12 
freq.     552.33  E(vib)   ...       0.12 
freq.     603.00  E(vib)   ...       0.10 
freq.     616.90  E(vib)   ...       0.09 
freq.     705.88  E(vib)   ...       0.07 
freq.     711.35  E(vib)   ...       0.07 
freq.     713.90  E(vib)   ...       0.07 
freq.     742.74  E(vib)   ...       0.06 
freq.     759.50  E(vib)   ...       0.06 
freq.     796.06  E(vib)   ...       0.05 
freq.     813.56  E(vib)   ...       0.05 
freq.     836.43  E(vib)   ...       0.04 
freq.     840.59  E(vib)   ...       0.04 
freq.     862.87  E(vib)   ...       0.04 
freq.     891.49  E(vib)   ...       0.03 
freq.     897.62  E(vib)   ...       0.03 
freq.     949.98  E(vib)   ...       0.03 
freq.     950.80  E(vib)   ...       0.03 
freq.    1029.06  E(vib)   ...       0.02 
freq.    1068.00  E(vib)   ...       0.02 
freq.    1078.91  E(vib)   ...       0.02 
freq.    1098.72  E(vib)   ...       0.02 
freq.    1115.45  E(vib)   ...       0.01 
freq.    1131.88  E(vib)   ...       0.01 
freq.    1194.75  E(vib)   ...       0.01 
freq.    1209.65  E(vib)   ...       0.01 
freq.    1242.23  E(vib)   ...       0.01 
freq.    1268.31  E(vib)   ...       0.01 
freq.    1304.16  E(vib)   ...       0.01 
freq.    1336.83  E(vib)   ...       0.01 
freq.    1422.02  E(vib)   ...       0.00 
freq.    1423.94  E(vib)   ...       0.00 
freq.    1437.39  E(vib)   ...       0.00 
freq.    1438.59  E(vib)   ...       0.00 
freq.    1454.54  E(vib)   ...       0.00 
freq.    1535.65  E(vib)   ...       0.00 
freq.    1537.97  E(vib)   ...       0.00 
freq.    1561.76  E(vib)   ...       0.00 
freq.    1581.00  E(vib)   ...       0.00 
freq.    1612.88  E(vib)   ...       0.00 
freq.    1667.08  E(vib)   ...       0.00 
freq.    3126.21  E(vib)   ...       0.00 
freq.    3127.47  E(vib)   ...       0.00 
freq.    3146.18  E(vib)   ...       0.00 
freq.    3153.72  E(vib)   ...       0.00 
freq.    3154.33  E(vib)   ...       0.00 
freq.    3167.81  E(vib)   ...       0.00 
freq.    3176.03  E(vib)   ...       0.00 
freq.    3177.47  E(vib)   ...       0.00 

------------
INNER ENERGY
------------

The inner energy is: U= E(el) + E(ZPE) + E(vib) + E(rot) + E(trans)
    E(el)   - is the total energy from the electronic structure calculation
              = E(kin-el) + E(nuc-el) + E(el-el) + E(nuc-nuc)
    E(ZPE)  - the the zero temperature vibrational energy from the frequency calculation
    E(vib)  - the the finite temperature correction to E(ZPE) due to population
              of excited vibrational states
    E(rot)  - is the rotational thermal energy
    E(trans)- is the translational thermal energy

Summary of contributions to the inner energy U:
Electronic energy                ...   -570.55243037 Eh
Zero point energy                ...      0.16721169 Eh     104.93 kcal/mol
Thermal vibrational correction   ...      0.00663116 Eh       4.16 kcal/mol
Thermal rotational correction    ...      0.00141627 Eh       0.89 kcal/mol
Thermal translational correction ...      0.00141627 Eh       0.89 kcal/mol
-----------------------------------------------------------------------
Total thermal energy                   -570.37575498 Eh


Summary of corrections to the electronic energy:
(perhaps to be used in another calculation)
Total thermal correction                  0.00946370 Eh       5.94 kcal/mol
Non-thermal (ZPE) correction              0.16721169 Eh     104.93 kcal/mol
-----------------------------------------------------------------------
Total correction                          0.17667539 Eh     110.87 kcal/mol


--------
ENTHALPY
--------

The enthalpy is H = U + kB*T
                kB is Boltzmann's constant
Total thermal energy              ...   -570.37575498 Eh 
Thermal Enthalpy correction       ...      0.00094421 Eh       0.59 kcal/mol
-----------------------------------------------------------------------
Total Enthalpy                    ...   -570.37481077 Eh


Note: Only C1 symmetry has been detected, increase convergence thresholds 
      if your molecule has a higher symmetry. Symmetry factor of 1.0 is   
      used for the rotational entropy correction. 
 

Note: Rotational entropy computed according to Herzberg 
Infrared and Raman Spectra, Chapter V,1, Van Nostrand Reinhold, 1945 
Point Group:  C1, Symmetry Number:   1  
Rotational constants in cm-1:     0.053930     0.019113     0.014112 

Vibrational entropy computed according to the QRRHO of S. Grimme
Chem.Eur.J. 2012 18 9955 using a reference frequency of 100.0 cm-1


-------
ENTROPY
-------

The entropy contributions are T*S = T*(S(el)+S(vib)+S(rot)+S(trans))
     S(el)   - electronic entropy
     S(vib)  - vibrational entropy
     S(rot)  - rotational entropy
     S(trans)- translational entropy
The entropies will be listed as multiplied by the temperature to get
units of energy

Electronic entropy                ...      0.00065446 Eh      0.41 kcal/mol
Vibrational entropy               ...      0.01053946 Eh      6.61 kcal/mol
Rotational entropy                ...      0.01476904 Eh      9.27 kcal/mol
Translational entropy             ...      0.01970536 Eh     12.37 kcal/mol
-----------------------------------------------------------------------
Final entropy term                ...      0.04566832 Eh     28.66 kcal/mol

In case the symmetry of your molecule has not been determined correctly
or in case you have a reason to use a different symmetry number we print 
out the resulting rotational entropy values for sn=1,12:

 non-linear molecules -----------------------------------
|  sn= 1 | S(rot)=       0.01476904 Eh      9.27 kcal/mol|
|  sn= 2 | S(rot)=       0.01411458 Eh      8.86 kcal/mol|
|  sn= 3 | S(rot)=       0.01373175 Eh      8.62 kcal/mol|
|  sn= 4 | S(rot)=       0.01346012 Eh      8.45 kcal/mol|
|  sn= 5 | S(rot)=       0.01324944 Eh      8.31 kcal/mol|
|  sn= 6 | S(rot)=       0.01307729 Eh      8.21 kcal/mol|
|  sn= 7 | S(rot)=       0.01293174 Eh      8.11 kcal/mol|
|  sn= 8 | S(rot)=       0.01280567 Eh      8.04 kcal/mol|
|  sn= 9 | S(rot)=       0.01269446 Eh      7.97 kcal/mol|
|  sn=10 | S(rot)=       0.01259498 Eh      7.90 kcal/mol|
|  sn=11 | S(rot)=       0.01250499 Eh      7.85 kcal/mol|
|  sn=12 | S(rot)=       0.01242283 Eh      7.80 kcal/mol|
 linear molecules ---------------------------------------
|  Dinfh | S(rot)=       0.00934871 Eh      5.87 kcal/mol|
|  Cinfv | S(rot)=       0.01000317 Eh      6.28 kcal/mol|
 --------------------------------------------------------


-------------------
GIBBS FREE ENERGY
-------------------

The Gibbs free energy is G = H - T*S

Total enthalpy                    ...   -570.37481077 Eh 
Total entropy correction          ...     -0.04566832 Eh    -28.66 kcal/mol
-----------------------------------------------------------------------
Final Gibbs free energy         ...   -570.42047908 Eh

For completeness - the Gibbs free energy minus the electronic energy
G-E(el)                           ...      0.13195129 Eh     82.80 kcal/mol


Maximum memory used throughout the entire PROP-calculation: 137.5 MB

--------------------------------
SUGGESTED CITATIONS FOR THIS RUN
--------------------------------

Below you find a list of papers that are relevant to this ORCA run
We neither can nor want to force you to cite these papers, but we appreciate if you do
You receive ORCA, which is the product of decades of hard work by many enthusiastic individuals, for free
The only thing we kindly ask in return is that you cite our papers,
We deeply appreciate it, if you show your appreciation for ORCA by not just citing the generic ORCA reference.

Please note that relegating all ORCA citations to the supporting information does *not* help us.
SI sections are not indexed - citations you put there will not count into any citation statistics
But we need these citations in order to attract the funding resources that allow us to do what we are doing

Therefore, if you are a happy ORCA user, please consider citing a few of the papers listed below in the main body of your paper

In addition to the list printed below, the program has created the file cs_rporg_w02_red_opt_01.bibtex that contains the list in bibtex format
You can import this file easily into all common literature databanks and citation aid programs


List of essential papers. We consider these as the minimum necessary citations

  1. Neese,F.
     Software update: the ORCA program system, version 5.0
     WIRES Comput. Molec. Sci., 2022 12(1)e1606
     doi.org/10.1002/wcms.1606

List of papers to cite with high priority. The work reported in these papers was absolutely
necessary for this run to complete.
Our perspective: the developers of density functionals and basis sets usually get cited in chemistry papers
Good! But without the algorithms to do something with them, the functionals or basis sets would not do anything.
Hence, in our opinion, the algorithm design and method developments papers are equally worthy of getting cited

  1. Neese,F.
     An improvement of the resolution of the identity approximation for the formation of the Coulomb matrix
     J. Comp. Chem., 2003 24(14)1740-1747
     doi.org/10.1002/jcc.10318
  2. Neese,F.; Wennmohs,F.; Hansen,A.; Becker,U.
     Efficient, approximate and parallel Hartree-Fock and hybrid DFT calculations. A 'chain-of-spheres' algorithm for the Hartree-Fock exchange
     Chem. Phys., 2009 356(1-3)98-109
     doi.org/10.1016/j.chemphys.2008.10.036
  3. Bykov,D.; Petrenko,T.; Izsak,R.; Kossmann,S.; Becker,U.; Valeev,E.; Neese,F.
     Efficient implementation of the analytic second derivatives of Hartree-Fock and hybrid DFT energies: a detailed analysis of different approximations
     Molec. Phys., 2015 113 1961-1977
     doi.org/10.1080/00268976.2015.1025114
  4. Helmich-Paris,B.; de Souza,B.; Neese,F.; Izsák,R.
     An improved chain of spheres for exchange algorithm
     J. Chem. Phys., 2021 155 104109
     doi.org/doi: 10.1063/5.0058766.
  5. Neese,F.
     The SHARK Integral Generation and Digestion System
     J. Comp. Chem., 2022  1-16
     doi.org/10.1002/jcc.26942
  6. Grimme,S.; Antony,J.; Ehrlich,S.; Krieg,H.
     A consistent and accurate ab initio parametrization of density functional dispersion correction (DFT-D) for the 94 elements H-Pu
     J. Chem. Phys., 2010 132 154104-XXXX
     doi.org/10.1063/1.3382344
  7. Grimme,S.; Ehrlich,S.; Goerigk,L.
     Effect of the damping function in dispersion corrected density functional theory
     J. Comput. Chem., 2011 32(7)1456-1465
     doi.org/10.1002/jcc.21759

List of suggested additional citations. These are papers that are important in the 'surrounding' of 
of this run, or papers that preceded the highly important papers. If you like your results we are grateful for a citation.

  1. Izsak,R.; Neese,F.
     An overlap fitted chain of spheres exchange method
     J. Chem. Phys., 2011 135 144105
     doi.org/10.1063/1.3646921
  2. Izsak,R.; Hansen,A.; Neese,F.
     The resolution of identity and chain of spheres approximations for the LPNO-CCSD singles Fock term
     Molec. Phys., 2012 110 2413-2417
     doi.org/10.1080/00268976.2012.687466
  3. Neese,F.
     The ORCA program system
     WIRES Comput. Molec. Sci., 2012 2(1)73-78
     doi.org/10.1002/wcms.81
  4. Izsak,R.; Neese,F.; Klopper,W.
     Robust fitting techniques in the chain of spheres approximation to the Fock exchange: The role of the complementary space
     J. Chem. Phys., 2013 139 
     doi.org/10.1063/1.4819264
  5. Neese,F.
     Software update: the ORCA program system, version 4.0
     WIRES Comput. Molec. Sci., 2018 8(1)1-6
     doi.org/10.1002/wcms.1327
  6. Neese,F.; Wennmohs,F.; Becker,U.; Riplinger,C.
     The ORCA quantum chemistry program package
     J. Chem. Phys., 2020 152 Art. No. L224108
     doi.org/10.1063/5.0004608

List of optional additional citations

  1. Neese,F.
     Approximate second-order SCF convergence for spin unrestricted wavefunctions
     Chem. Phys. Lett., 2000 325(1-3)93-98
     doi.org/10.1016/s0009-2614(00)00662-x

Timings for individual modules:

Sum of individual times          ...     1677.747 sec (=  27.962 min)
Startup calculation              ...       40.384 sec (=   0.673 min)   2.4 %
SCF iterations                   ...      734.113 sec (=  12.235 min)  43.8 %
Property integrals               ...       78.549 sec (=   1.309 min)   4.7 %
SCF Response                     ...      662.722 sec (=  11.045 min)  39.5 %
Property calculations            ...      102.306 sec (=   1.705 min)   6.1 %
SCF Gradient evaluation          ...       59.016 sec (=   0.984 min)   3.5 %
Geometry relaxation              ...        0.657 sec (=   0.011 min)   0.0 %
                             ****ORCA TERMINATED NORMALLY****
TOTAL RUN TIME: 0 days 0 hours 28 minutes 32 seconds 887 msec
