 vasp.6.3.2 27Jun22 (build Oct 25 2024 11:36:28) complex                        
  
 executed on             LinuxIFC date 2025.09.18  00:54:31
 running on   90 total cores
 distrk:  each k-point on   90 cores,    1 groups
 distr:  one band on NCORE=  15 cores,    6 groups


--------------------------------------------------------------------------------------------------------


 INCAR:
   SYSTEM = charged_w09_red
   ISTART = 1
   ICHARG = 2
   INIWAV = 1
   NELM = 500
   ALGO = fast   	
   ISPIN = 2
   EDIFF = 1E-05
   ISMEAR = 0
   SIGMA = 0.05
   PREC = accurate
   ENCUT = 500
   LREAL = auto  	
   LWAVE = .TRUE.
   LCHARG = .FALSE.
   LAECHG = .FALSE.
   LVHAR = .FALSE.
   LVTOT = .FALSE.
   EDIFFG = -0.02
   IBRION = 2
   NSW = 500
   ISIF = 2
   POTIM = 0.5
   IVDW = 11
   LPLANE = .TRUE.
   NCORE = 15
   LSCALU = .FALSE.
   NSIM = 4
   LSOL = .TRUE.
   ISOL = 2
   NELECT = 71.0000

 POTCAR:    PAW_PBE C 08Apr2002                   
 POTCAR:    PAW_PBE O 08Apr2002                   
 POTCAR:    PAW_PBE H 15Jun2001                   
 -----------------------------------------------------------------------------
|                                                                             |
|           W    W    AA    RRRRR   N    N  II  N    N   GGGG   !!!           |
|           W    W   A  A   R    R  NN   N  II  NN   N  G    G  !!!           |
|           W    W  A    A  R    R  N N  N  II  N N  N  G       !!!           |
|           W WW W  AAAAAA  RRRRR   N  N N  II  N  N N  G  GGG   !            |
|           WW  WW  A    A  R   R   N   NN  II  N   NN  G    G                |
|           W    W  A    A  R    R  N    N  II  N    N   GGGG   !!!           |
|                                                                             |
|     You use a magnetic or noncollinear calculation, but did not specify     |
|     the initial magnetic moment with the MAGMOM tag. Note that a            |
|     default of 1 will be used for all atoms. This ferromagnetic setup       |
|     may break the symmetry of the crystal, in particular it may rule        |
|     out finding an antiferromagnetic solution. Thence, we recommend         |
|     setting the initial magnetic moment manually or verifying carefully     |
|     that this magnetic setup is desired.                                    |
|                                                                             |
 -----------------------------------------------------------------------------

 POTCAR:    PAW_PBE C 08Apr2002                   
   SHA256 =  253f7b50bb8d59471dbedb8285d89021f4a42ed1a2c5d38a03a736e69125dd95 C/POTCAR              
   COPYR  = (c) Copyright 08Apr2002 Georg Kresse                                                    
   COPYR  = This file is part of the software VASP. Any use, copying, and all other rights are regul
   COPYR  = If you do not have a valid VASP license, you may not use, copy or distribute this file. 
   VRHFIN =C: s2p2                                                                                  
   LEXCH  = PE                                                                                      
   EATOM  =   147.1560 eV,   10.8157 Ry                                                             
                                                                                                    
   TITEL  = PAW_PBE C 08Apr2002                                                                     
   LULTRA =        F    use ultrasoft PP ?                                                          
   IUNSCR =        1    unscreen: 0-lin 1-nonlin 2-no                                               
   RPACOR =    1.200    partial core radius                                                         
   POMASS =   12.011; ZVAL   =    4.000    mass and valenz                                          
   RCORE  =    1.500    outmost cutoff radius                                                       
   RWIGS  =    1.630; RWIGS  =    0.863    wigner-seitz radius (au A)                               
   ENMAX  =  400.000; ENMIN  =  300.000 eV                                                          
   ICORE  =        2    local potential                                                             
   LCOR   =        T    correct aug charges                                                         
   LPAW   =        T    paw PP                                                                      
   EAUG   =  644.873                                                                                
   DEXC   =    0.000                                                                                
   RMAX   =    1.529    core radius for proj-oper                                                   
   RAUG   =    1.300    factor for augmentation sphere                                              
   RDEP   =    1.501    radius for radial grids                                                     
   RDEPT  =    1.300    core radius for aug-charge                                                  
                                                                                                    
   Atomic configuration                                                                             
    4 entries                                                                                       
     n  l   j            E        occ.                                                              
     1  0  0.50      -273.3789   2.0000                                                             
     2  0  0.50       -13.7508   2.0000                                                             
     2  1  0.50        -5.2854   2.0000                                                             
     3  2  1.50        -5.4423   0.0000                                                             
   Description                                                                                      
     l       E           TYP  RCUT    TYP  RCUT                                                     
     0    -13.7508458     23  1.200                                                                 
     0     -8.2022199     23  1.200                                                                 
     1     -5.2854383     23  1.500                                                                 
     1     34.0145650     23  1.500                                                                 
     2     -5.4423304      7  1.500                                                                 
  local pseudopotential read in
  partial core-charges read in
  partial kinetic energy density read in
  atomic valenz-charges read in
  non local Contribution for L=           0  read in
    real space projection operators read in
  non local Contribution for L=           0  read in
    real space projection operators read in
  non local Contribution for L=           1  read in
    real space projection operators read in
  non local Contribution for L=           1  read in
    real space projection operators read in
    PAW grid and wavefunctions read in
 
   number of l-projection  operators is LMAX  =           4
   number of lm-projection operators is LMMAX =           8
 
 POTCAR:    PAW_PBE O 08Apr2002                   
   SHA256 =  818f92134a0a090dccd8ba1447fa70422a3b330e708bb4f08108d8ae51209ddf O/POTCAR              
   COPYR  = (c) Copyright 08Apr2002 Georg Kresse                                                    
   COPYR  = This file is part of the software VASP. Any use, copying, and all other rights are regul
   COPYR  = If you do not have a valid VASP license, you may not use, copy or distribute this file. 
   VRHFIN =O: s2p4                                                                                  
   LEXCH  = PE                                                                                      
   EATOM  =   432.3788 eV,   31.7789 Ry                                                             
                                                                                                    
   TITEL  = PAW_PBE O 08Apr2002                                                                     
   LULTRA =        F    use ultrasoft PP ?                                                          
   IUNSCR =        1    unscreen: 0-lin 1-nonlin 2-no                                               
   RPACOR =    1.200    partial core radius                                                         
   POMASS =   16.000; ZVAL   =    6.000    mass and valenz                                          
   RCORE  =    1.520    outmost cutoff radius                                                       
   RWIGS  =    1.550; RWIGS  =    0.820    wigner-seitz radius (au A)                               
   ENMAX  =  400.000; ENMIN  =  300.000 eV                                                          
   ICORE  =        2    local potential                                                             
   LCOR   =        T    correct aug charges                                                         
   LPAW   =        T    paw PP                                                                      
   EAUG   =  605.392                                                                                
   DEXC   =    0.000                                                                                
   RMAX   =    1.553    core radius for proj-oper                                                   
   RAUG   =    1.300    factor for augmentation sphere                                              
   RDEP   =    1.550    radius for radial grids                                                     
   RDEPT  =    1.329    core radius for aug-charge                                                  
                                                                                                    
   Atomic configuration                                                                             
    4 entries                                                                                       
     n  l   j            E        occ.                                                              
     1  0  0.50      -514.6923   2.0000                                                             
     2  0  0.50       -23.9615   2.0000                                                             
     2  1  0.50        -9.0305   4.0000                                                             
     3  2  1.50        -9.5241   0.0000                                                             
   Description                                                                                      
     l       E           TYP  RCUT    TYP  RCUT                                                     
     0    -23.9615318     23  1.200                                                                 
     0     -9.5240782     23  1.200                                                                 
     1     -9.0304911     23  1.520                                                                 
     1      8.1634956     23  1.520                                                                 
     2     -9.5240782      7  1.500                                                                 
  local pseudopotential read in
  partial core-charges read in
  partial kinetic energy density read in
  kinetic energy density of atom read in
  atomic valenz-charges read in
  non local Contribution for L=           0  read in
    real space projection operators read in
  non local Contribution for L=           0  read in
    real space projection operators read in
  non local Contribution for L=           1  read in
    real space projection operators read in
  non local Contribution for L=           1  read in
    real space projection operators read in
    PAW grid and wavefunctions read in
 
   number of l-projection  operators is LMAX  =           4
   number of lm-projection operators is LMMAX =           8
 
 POTCAR:    PAW_PBE H 15Jun2001                   
   SHA256 =  030f79b5d3ab3cf0e668861823c8fb652ff669f3e15e46930bd03bfd63a607b6 H/POTCAR              
   COPYR  = (c) Copyright 15Jun2001 Georg Kresse                                                    
   COPYR  = This file is part of the software VASP. Any use, copying, and all other rights are regul
   COPYR  = If you do not have a valid VASP license, you may not use, copy or distribute this file. 
   VRHFIN =H: ultrasoft test                                                                        
   LEXCH  = PE                                                                                      
   EATOM  =    12.4884 eV,    0.9179 Ry                                                             
                                                                                                    
   TITEL  = PAW_PBE H 15Jun2001                                                                     
   LULTRA =        F    use ultrasoft PP ?                                                          
   IUNSCR =        0    unscreen: 0-lin 1-nonlin 2-no                                               
   RPACOR =    0.000    partial core radius                                                         
   POMASS =    1.000; ZVAL   =    1.000    mass and valenz                                          
   RCORE  =    1.100    outmost cutoff radius                                                       
   RWIGS  =    0.700; RWIGS  =    0.370    wigner-seitz radius (au A)                               
   ENMAX  =  250.000; ENMIN  =  200.000 eV                                                          
   RCLOC  =    0.701    cutoff for local pot                                                        
   LCOR   =        T    correct aug charges                                                         
   LPAW   =        T    paw PP                                                                      
   EAUG   =  400.000                                                                                
   RMAX   =    1.123    core radius for proj-oper                                                   
   RAUG   =    1.200    factor for augmentation sphere                                              
   RDEP   =    1.112    radius for radial grids                                                     
   RDEPT  =    0.926    core radius for aug-charge                                                  
                                                                                                    
   Atomic configuration                                                                             
    2 entries                                                                                       
     n  l   j            E        occ.                                                              
     1  0  0.50        -6.4927   1.0000                                                             
     2  1  0.50        -3.4015   0.0000                                                             
   Description                                                                                      
     l       E           TYP  RCUT    TYP  RCUT                                                     
     0     -6.4927494     23  1.100                                                                 
     0      6.8029130     23  1.100                                                                 
     1     -4.0817478     23  1.100                                                                 
  local pseudopotential read in
  atomic valenz-charges read in
  non local Contribution for L=           0  read in
    real space projection operators read in
  non local Contribution for L=           0  read in
    real space projection operators read in
  non local Contribution for L=           1  read in
    real space projection operators read in
    PAW grid and wavefunctions read in
 
   number of l-projection  operators is LMAX  =           3
   number of lm-projection operators is LMMAX =           5
 
 Optimization of the real space projectors (new method)

 maximal supplied QI-value         = 25.13
 optimisation between [QCUT,QGAM] = [ 11.31, 22.87] = [ 35.82,146.48] Ry 
 Optimized for a Real-space Cutoff    1.03 Angstroem

   l    n(q)    QCUT    max X(q) W(low)/X(q) W(high)/X(q)  e(spline) 
   0      7    11.310   115.676    0.20E-03    0.90E-03    0.20E-06
   0      7    11.310    87.132    0.20E-03    0.89E-03    0.19E-06
   1      6    11.310     4.429    0.16E-03    0.28E-03    0.12E-06
   1      6    11.310     2.733    0.12E-03    0.21E-03    0.99E-07
 Optimization of the real space projectors (new method)

 maximal supplied QI-value         = 24.76
 optimisation between [QCUT,QGAM] = [ 11.39, 22.77] = [ 36.31,145.25] Ry 
 Optimized for a Real-space Cutoff    1.10 Angstroem

   l    n(q)    QCUT    max X(q) W(low)/X(q) W(high)/X(q)  e(spline) 
   0      7    11.387    20.381    0.22E-03    0.48E-03    0.18E-06
   0      7    11.387    15.268    0.22E-03    0.52E-03    0.19E-06
   1      7    11.387     5.964    0.22E-03    0.73E-03    0.24E-06
   1      7    11.387     5.382    0.19E-03    0.60E-03    0.21E-06
 Optimization of the real space projectors (new method)

 maximal supplied QI-value         = 34.20
 optimisation between [QCUT,QGAM] = [ 11.29, 22.57] = [ 35.68,142.71] Ry 
 Optimized for a Real-space Cutoff    1.20 Angstroem

   l    n(q)    QCUT    max X(q) W(low)/X(q) W(high)/X(q)  e(spline) 
   0      8    11.287    19.460    0.22E-03    0.50E-03    0.19E-06
   0      8    11.287    12.209    0.21E-03    0.48E-03    0.18E-06
   1      8    11.287     4.655    0.21E-03    0.11E-04    0.26E-06
  PAW_PBE C 08Apr2002                   :
 energy of atom  1       EATOM= -147.1560
 kinetic energy error for atom=    0.0076 (will be added to EATOM!!)
  PAW_PBE O 08Apr2002                   :
 energy of atom  2       EATOM= -432.3788
 kinetic energy error for atom=    0.0224 (will be added to EATOM!!)
  PAW_PBE H 15Jun2001                   :
 energy of atom  3       EATOM=  -12.4884
 kinetic energy error for atom=    0.0020 (will be added to EATOM!!)
 
 
 POSCAR: C O H
  positions in direct lattice
  velocities in cartesian coordinates
 exchange correlation table for  LEXCH =        8
   RHO(1)=    0.500       N(1)  =     2000
   RHO(2)=  100.500       N(2)  =     4000
 
 POSCAR: C O H
  positions in direct lattice
  velocities in cartesian coordinates
 
 POSCAR: C O H
  positions in direct lattice
  velocities in cartesian coordinates
 


--------------------------------------------------------------------------------------------------------


 ion  position               nearest neighbor table
   1  0.498  0.480  0.444-  14 1.28   2 1.45   6 1.47
   2  0.499  0.538  0.450-   3 1.40   1 1.45  12 1.51
   3  0.501  0.563  0.500-   2 1.40   4 1.45  11 1.51
   4  0.502  0.533  0.549-  13 1.28   3 1.45   5 1.47
   5  0.501  0.474  0.545-  10 1.41   6 1.42   4 1.47
   6  0.499  0.449  0.494-   7 1.41   5 1.42   1 1.47
   7  0.498  0.392  0.492-  18 1.09   8 1.39   6 1.41
   8  0.499  0.361  0.538-  17 1.09   7 1.39   9 1.41
   9  0.501  0.387  0.588-  16 1.09  10 1.39   8 1.41
  10  0.502  0.442  0.591-  15 1.09   9 1.39   5 1.41
  11  0.502  0.623  0.503-  20 1.10  21 1.10  19 1.10   3 1.51
  12  0.498  0.571  0.399-  23 1.10  24 1.10  22 1.10   2 1.51
  13  0.504  0.556  0.595-   4 1.28
  14  0.496  0.457  0.399-   1 1.28
  15  0.504  0.462  0.630-  10 1.09
  16  0.502  0.363  0.625-   9 1.09
  17  0.498  0.318  0.535-   8 1.09
  18  0.496  0.374  0.452-   7 1.09
  19  0.467  0.641  0.485-  11 1.10
  20  0.504  0.636  0.545-  11 1.10
  21  0.537  0.640  0.482-  11 1.10
  22  0.533  0.597  0.396-  12 1.10
  23  0.496  0.545  0.364-  12 1.10
  24  0.463  0.598  0.399-  12 1.10
 
  LATTYP: Found a simple cubic cell.
 ALAT       =    25.0000000000
  
  Lattice vectors:
  
 A1 = (  25.0000000000,   0.0000000000,   0.0000000000)
 A2 = (   0.0000000000,  25.0000000000,   0.0000000000)
 A3 = (   0.0000000000,   0.0000000000,  25.0000000000)


Analysis of symmetry for initial positions (statically):
=====================================================================
 Subroutine PRICEL returns:
 Original cell was already a primitive cell.
 

 Routine SETGRP: Setting up the symmetry group for a 
 simple cubic supercell.


 Subroutine GETGRP returns: Found  1 space group operations
 (whereof  1 operations were pure point group operations)
 out of a pool of 48 trial point group operations.


The static configuration has the point symmetry C_1 .


Analysis of symmetry for dynamics (positions and initial velocities):
=====================================================================
 Subroutine PRICEL returns:
 Original cell was already a primitive cell.
 

 Routine SETGRP: Setting up the symmetry group for a 
 simple cubic supercell.


 Subroutine GETGRP returns: Found  1 space group operations
 (whereof  1 operations were pure point group operations)
 out of a pool of 48 trial point group operations.


The dynamic configuration has the point symmetry C_1 .


Analysis of constrained symmetry for selective dynamics:
=====================================================================
 Subroutine PRICEL returns:
 Original cell was already a primitive cell.
 

 Routine SETGRP: Setting up the symmetry group for a 
 simple cubic supercell.


 Subroutine GETGRP returns: Found  1 space group operations
 (whereof  1 operations were pure point group operations)
 out of a pool of 48 trial point group operations.


The constrained configuration has the point symmetry C_1 .


Analysis of structural, dynamic, and magnetic symmetry:
=====================================================================
 Subroutine PRICEL returns:
 Original cell was already a primitive cell.
 

 Routine SETGRP: Setting up the symmetry group for a 
 simple cubic supercell.


 Subroutine GETGRP returns: Found  1 space group operations
 (whereof  1 operations were pure point group operations)
 out of a pool of 48 trial point group operations.


The overall configuration has the point symmetry C_1 .


 Subroutine INISYM returns: Found  1 space group operations
 (whereof  1 operations are pure point group operations),
 and found     1 'primitive' translations


----------------------------------------------------------------------------------------

                                     Primitive cell                                     

  volume of cell :   15625.0000

  direct lattice vectors                    reciprocal lattice vectors
    25.000000000  0.000000000  0.000000000     0.040000000  0.000000000  0.000000000
     0.000000000 25.000000000  0.000000000     0.000000000  0.040000000  0.000000000
     0.000000000  0.000000000 25.000000000     0.000000000  0.000000000  0.040000000

  length of vectors
    25.000000000 25.000000000 25.000000000     0.040000000  0.040000000  0.040000000

  position of ions in fractional coordinates (direct lattice)
     0.497600125  0.480376424  0.444288510
     0.498770515  0.538080896  0.449746510
     0.501129923  0.563082617  0.499709139
     0.502364601  0.532868862  0.549198856
     0.501168486  0.474181975  0.544808705
     0.498859577  0.448725074  0.493867494
     0.497749735  0.392301251  0.491512300
     0.498837866  0.361474122  0.537743339
     0.501154383  0.386652758  0.588165486
     0.502273616  0.442131747  0.591340665
     0.502456965  0.623170991  0.503407600
     0.497526187  0.571063476  0.399383011
     0.504350434  0.555563524  0.595121480
     0.495620077  0.457241080  0.398579564
     0.504040537  0.462249495  0.630032757
     0.502079425  0.362543667  0.624575621
     0.497985635  0.317878531  0.535109248
     0.495987596  0.373503933  0.452164303
     0.466777253  0.641444350  0.485024410
     0.504412913  0.635594260  0.545394761
     0.537208112  0.640034180  0.482135292
     0.533216710  0.596720016  0.395851983
     0.495625531  0.544887466  0.364282901
     0.462802799  0.598230305  0.398556065

  ion indices of the primitive-cell ions
   primitive index   ion index
                 1           1
                 2           2
                 3           3
                 4           4
                 5           5
                 6           6
                 7           7
                 8           8
                 9           9
                10          10
                11          11
                12          12
                13          13
                14          14
                15          15
                16          16
                17          17
                18          18
                19          19
                20          20
                21          21
                22          22
                23          23
                24          24

----------------------------------------------------------------------------------------

 
 
 KPOINTS: K-Point Grid                            

Automatic generation of k-mesh.
 Grid dimensions read from file:
 generate k-points for:    1    1    1

 Generating k-lattice:

  Cartesian coordinates                     Fractional coordinates (reciprocal lattice)
     0.040000000  0.000000000  0.000000000     1.000000000  0.000000000  0.000000000
     0.000000000  0.040000000  0.000000000     0.000000000  1.000000000  0.000000000
     0.000000000  0.000000000  0.040000000     0.000000000  0.000000000  1.000000000

  Length of vectors
     0.040000000  0.040000000  0.040000000

  Shift w.r.t. Gamma in fractional coordinates (k-lattice)
     0.000000000  0.000000000  0.000000000

 
 Subroutine IBZKPT returns following result:
 ===========================================
 
 Found      1 irreducible k-points:
 
 Following reciprocal coordinates:
            Coordinates               Weight
  0.000000  0.000000  0.000000      1.000000
 
 Following cartesian coordinates:
            Coordinates               Weight
  0.000000  0.000000  0.000000      1.000000
 


--------------------------------------------------------------------------------------------------------




 Dimension of arrays:
   k-points           NKPTS =      1   k-points in BZ     NKDIM =      1   number of bands    NBANDS=     60
   number of dos      NEDOS =    301   number of ions     NIONS =     24
   non local maximal  LDIM  =      4   non local SUM 2l+1 LMDIM =      8
   total plane-waves  NPLWV = ******
   max r-space proj   IRMAX =   3319   max aug-charges    IRDMAX=   6076
   dimension x,y,z NGX =   192 NGY =  192 NGZ =  192
   dimension x,y,z NGXF=   384 NGYF=  384 NGZF=  384
   support grid    NGXF=   384 NGYF=  384 NGZF=  384
   ions per type =              12   2  10
   NGX,Y,Z   is equivalent  to a cutoff of  12.77, 12.77, 12.77 a.u.
   NGXF,Y,Z  is equivalent  to a cutoff of  25.54, 25.54, 25.54 a.u.

 SYSTEM =  charged_w09_red                         
 POSCAR =  C O H                                   

 Startparameter for this run:
   NWRITE =      2    write-flag & timer
   PREC   = accura    normal or accurate (medium, high low for compatibility)
   ISTART =      1    job   : 0-new  1-cont  2-samecut
   ICHARG =      2    charge: 1-file 2-atom 10-const
   ISPIN  =      2    spin polarized calculation?
   LNONCOLLINEAR =      F non collinear calculations
   LSORBIT =      F    spin-orbit coupling
   INIWAV =      1    electr: 0-lowe 1-rand  2-diag
   LASPH  =      F    aspherical Exc in radial PAW
 Electronic Relaxation 1
   ENCUT  =  500.0 eV  36.75 Ry    6.06 a.u.  45.58 45.58 45.58*2*pi/ulx,y,z
   ENINI  =  500.0     initial cutoff
   ENAUG  =  644.9 eV  augmentation charge cutoff
   NELM   =    500;   NELMIN=  2; NELMDL=  0     # of ELM steps 
   EDIFF  = 0.1E-04   stopping-criterion for ELM
   LREAL  =      T    real-space projection
   NLSPLINE    = F    spline interpolate recip. space projectors
   LCOMPAT=      F    compatible to vasp.4.4
   GGA_COMPAT  = T    GGA compatible to vasp.4.4-vasp.4.6
   LMAXPAW     = -100 max onsite density
   LMAXMIX     =    2 max onsite mixed and CHGCAR
   VOSKOWN=      0    Vosko Wilk Nusair interpolation
   ROPT   =   -0.00025  -0.00025  -0.00025
 Ionic relaxation
   EDIFFG = -.2E-01   stopping-criterion for IOM
   NSW    =    500    number of steps for IOM
   NBLOCK =      1;   KBLOCK =    500    inner block; outer block 
   IBRION =      2    ionic relax: 0-MD 1-quasi-New 2-CG
   NFREE  =      1    steps in history (QN), initial steepest desc. (CG)
   ISIF   =      2    stress and relaxation
   IWAVPR =     11    prediction:  0-non 1-charg 2-wave 3-comb
   ISYM   =      2    0-nonsym 1-usesym 2-fastsym
   LCORR  =      T    Harris-Foulkes like correction to forces

   POTIM  = 0.5000    time-step for ionic-motion
   TEIN   =    0.0    initial temperature
   TEBEG  =    0.0;   TEEND  =   0.0 temperature during run
   SMASS  =  -3.00    Nose mass-parameter (am)
   estimated Nose-frequenzy (Omega)   =  0.10E-29 period in steps = 0.13E+47 mass=  -0.143E-25a.u.
   SCALEE = 1.0000    scale energy and forces
   NPACO  =    256;   APACO  = 10.0  distance and # of slots for P.C.
   PSTRESS=    0.0 pullay stress

  Mass of Ions in am
   POMASS =  12.01 16.00  1.00
  Ionic Valenz
   ZVAL   =   4.00  6.00  1.00
  Atomic Wigner-Seitz radii
   RWIGS  =  -1.00 -1.00 -1.00
  virtual crystal weights 
   VCA    =   1.00  1.00  1.00
   NELECT =      71.0000    total number of electrons
   NUPDOWN=      -1.0000    fix difference up-down

 DOS related values:
   EMIN   =  10.00;   EMAX   =-10.00  energy-range for DOS
   EFERMI =   0.00
   ISMEAR =     0;   SIGMA  =   0.05  broadening in eV -4-tet -1-fermi 0-gaus

 Electronic relaxation 2 (details)
   IALGO  =     68    algorithm
   LDIAG  =      T    sub-space diagonalisation (order eigenvalues)
   LSUBROT=      F    optimize rotation matrix (better conditioning)
   TURBO    =      0    0=normal 1=particle mesh
   IRESTART =      0    0=no restart 2=restart with 2 vectors
   NREBOOT  =      0    no. of reboots
   NMIN     =      0    reboot dimension
   EREF     =   0.00    reference energy to select bands
   IMIX   =      4    mixing-type and parameters
     AMIX     =   0.40;   BMIX     =  1.00
     AMIX_MAG =   1.60;   BMIX_MAG =  1.00
     AMIN     =   0.10
     WC   =   100.;   INIMIX=   1;  MIXPRE=   1;  MAXMIX= -45

 Intra band minimization:
   WEIMIN = 0.0010     energy-eigenvalue tresh-hold
   EBREAK =  0.42E-07  absolut break condition
   DEPER  =   0.30     relativ break condition  

   TIME   =   0.40     timestep for ELM

  volume/ion in A,a.u.               =     651.04      4393.45
  Fermi-wavevector in a.u.,A,eV,Ry     =   0.271157  0.512413  1.000384  0.073526
  Thomas-Fermi vector in A             =   1.110361
 
 Write flags
   LWAVE        =      T    write WAVECAR
   LDOWNSAMPLE  =      F    k-point downsampling of WAVECAR
   LCHARG       =      F    write CHGCAR
   LVTOT        =      F    write LOCPOT, total local potential
   LVHAR        =      F    write LOCPOT, Hartree potential only
   LELF         =      F    write electronic localiz. function (ELF)
   LORBIT       =      0    0 simple, 1 ext, 2 COOP (PROOUT), +10 PAW based schemes


 Dipole corrections
   LMONO  =      F    monopole corrections only (constant potential shift)
   LDIPOL =      F    correct potential (dipole corrections)
   IDIPOL =      0    1-x, 2-y, 3-z, 4-all directions 
   EPSILON=  1.0000000 bulk dielectric constant

 Exchange correlation treatment:
   GGA     =    --    GGA type
   LEXCH   =     8    internal setting for exchange type
   LIBXC   =     F    Libxc                    
   VOSKOWN =     0    Vosko Wilk Nusair interpolation
   LHFCALC =     F    Hartree Fock is set to
   LHFONE  =     F    Hartree Fock one center treatment
   AEXX    =    0.0000 exact exchange contribution

 Linear response parameters
   LEPSILON=     F    determine dielectric tensor
   LRPA    =     F    only Hartree local field effects (RPA)
   LNABLA  =     F    use nabla operator in PAW spheres
   LVEL    =     F    velocity operator in full k-point grid
   CSHIFT  =0.1000    complex shift for real part using Kramers Kronig
   OMEGAMAX=  -1.0    maximum frequency
   DEG_THRESHOLD= 0.2000000E-02 threshold for treating states as degnerate
   RTIME   =   -0.100 relaxation time in fs
  (WPLASMAI=    0.000 imaginary part of plasma frequency in eV, 0.658/RTIME)
   DFIELD  = 0.0000000 0.0000000 0.0000000 field for delta impulse in time
 
  Optional k-point grid parameters
   LKPOINTS_OPT  =     F    use optional k-point grid
   KPOINTS_OPT_MODE=     1    mode for optional k-point grid
 
 Orbital magnetization related:
   ORBITALMAG=     F  switch on orbital magnetization
   LCHIMAG   =     F  perturbation theory with respect to B field
   DQ        =  0.001000  dq finite difference perturbation B field
   LLRAUG    =     F  two centre corrections for induced B field

 Solvation model:
   LSOL             =     T         switch on solvation model
   LSOL_SCF         =     T         include solvation in SCF
   ISOL             =     2         solvation model type
   EFERMI_ref       =  0.000000         reference Fermi level
   capacitance_init =  1.000000         initial capacitance
 Nonlinear solvation model:
   LNLDIEL     =     T         switch on non-linear dielectric mode
   LNLION      =     T         switch on non-linear ionic mode
   LNLTEST     =     F         test non-linear model in linear regime
   I_NLOC_SOL  =     1         type of nonlocal dielectric response
   NC_K        =  0.015000     cutoff charge density for cavities (1/Angstrom**3)
   TAU         =  0.000879     cavity formation energy (eV/Angstrom**2)
   SIGMA_K     =  0.600000     cavity width
   A_K         =  0.125000     smoothing length (Angstrom)
   R_SOLV      =  1.400000     solvent radius (Angstrom)
   R_CAV       =  0.000000     cavity radius (Angstrom)
   R_DIEL      =  1.000000     dielectric radius (Angstrom)
   R_ION       =  0.000000     ionic radius (Angstrom)
   R_B         =  0.000000     bound charge radius (Angstrom)
   SOLTEMP     =298.000000     solvent temperature (K)
   EB_K        = 78.400000     relative permittivity of the bulk solvent
   EPSILON_INF =  1.780000     optical relative permittivity of bulk solvent
   N_MOL       =  0.033500     molar density of solvent (1/Angstrom**3)
   P_MOL       =  0.500000     solvent dipole moment (e*Angstrom)
   C_MOLAR     =  0.000000     electrolyte concentration (mol/L)
   LAMBDA_D_K  =  0.000000     Debye length (Angstrom)
   ZION        =  1.000000     charge of ions in electrolyte (e)
   D_ION       = -1.000000     minimum ion packing diameter (Angstrom)



--------------------------------------------------------------------------------------------------------


 conjugate gradient relaxation of ions
   using selective dynamics as specified on POSCAR
 charge density and potential will be updated during run
 spin polarized calculation
 RMM-DIIS sequential band-by-band and
  variant of blocked Davidson during initial phase
 perform sub-space diagonalisation
    before iterative eigenvector-optimisation
 modified Broyden-mixing scheme, WC =      100.0
 initial mixing is a Kerker type mixing with AMIX =  0.4000 and BMIX =      1.0000
 Hartree-type preconditioning will be used
 using additional bands           24
 real space projection scheme for non local part
 use partial core corrections
 calculate Harris-corrections to forces 
   (improved forces if not selfconsistent)
 use gradient corrections 
 use of overlap-Matrix (Vanderbilt PP)
 Gauss-broadening in eV      SIGMA  =   0.05


--------------------------------------------------------------------------------------------------------


  energy-cutoff  :      500.00
  volume of cell :    15625.00
      direct lattice vectors                 reciprocal lattice vectors
    25.000000000  0.000000000  0.000000000     0.040000000  0.000000000  0.000000000
     0.000000000 25.000000000  0.000000000     0.000000000  0.040000000  0.000000000
     0.000000000  0.000000000 25.000000000     0.000000000  0.000000000  0.040000000

  length of vectors
    25.000000000 25.000000000 25.000000000     0.040000000  0.040000000  0.040000000


 
 old parameters found on file WAVECAR:
  energy-cutoff  :      500.00
  volume of cell :    15625.00
      direct lattice vectors                 reciprocal lattice vectors
    25.000000000  0.000000000  0.000000000     0.040000000  0.000000000  0.000000000
     0.000000000 25.000000000  0.000000000     0.000000000  0.040000000  0.000000000
     0.000000000  0.000000000 25.000000000     0.000000000  0.000000000  0.040000000

  length of vectors

 
 k-points in units of 2pi/SCALE and weight: K-Point Grid                            
   0.00000000  0.00000000  0.00000000       1.000
 
 k-points in reciprocal lattice and weights: K-Point Grid                            
   0.00000000  0.00000000  0.00000000       1.000
 
 position of ions in fractional coordinates (direct lattice) 
   0.49760012  0.48037642  0.44428851
   0.49877051  0.53808090  0.44974651
   0.50112992  0.56308262  0.49970914
   0.50236460  0.53286886  0.54919886
   0.50116849  0.47418197  0.54480870
   0.49885958  0.44872507  0.49386749
   0.49774973  0.39230125  0.49151230
   0.49883787  0.36147412  0.53774334
   0.50115438  0.38665276  0.58816549
   0.50227362  0.44213175  0.59134067
   0.50245697  0.62317099  0.50340760
   0.49752619  0.57106348  0.39938301
   0.50435043  0.55556352  0.59512148
   0.49562008  0.45724108  0.39857956
   0.50404054  0.46224949  0.63003276
   0.50207943  0.36254367  0.62457562
   0.49798563  0.31787853  0.53510925
   0.49598760  0.37350393  0.45216430
   0.46677725  0.64144435  0.48502441
   0.50441291  0.63559426  0.54539476
   0.53720811  0.64003418  0.48213529
   0.53321671  0.59672002  0.39585198
   0.49562553  0.54488747  0.36428290
   0.46280280  0.59823031  0.39855607
 
 position of ions in cartesian coordinates  (Angst):
  12.44000312 12.00941060 11.10721275
  12.46926286 13.45202239 11.24366274
  12.52824808 14.07706541 12.49272848
  12.55911504 13.32172156 13.72997139
  12.52921214 11.85454937 13.62021762
  12.47148944 11.21812684 12.34668736
  12.44374336  9.80753126 12.28780750
  12.47094664  9.03685304 13.44358347
  12.52885957  9.66631896 14.70413715
  12.55684040 11.05329369 14.78351663
  12.56142413 15.57927478 12.58518999
  12.43815468 14.27658689  9.98457528
  12.60876085 13.88908810 14.87803701
  12.39050192 11.43102701  9.96448909
  12.60101342 11.55623737 15.75081894
  12.55198563  9.06359169 15.61439052
  12.44964087  7.94696327 13.37773120
  12.39968989  9.33759831 11.30410758
  11.66943132 16.03610875 12.12561026
  12.61032284 15.88985651 13.63486902
  13.43020281 16.00085450 12.05338229
  13.33041774 14.91800039  9.89629958
  12.39063827 13.62218666  9.10707252
  11.57006998 14.95575763  9.96390163
 


--------------------------------------------------------------------------------------------------------


 k-point   1 :   0.0000 0.0000 0.0000  plane waves:  396599

 maximum and minimum number of plane-waves per node :     26445    26429

 maximum number of plane-waves:    396599
 maximum index in each direction: 
   IXMAX=   45   IYMAX=   45   IZMAX=   45
   IXMIN=  -45   IYMIN=  -45   IZMIN=  -45


 real space projection operators:
  total allocation   :       3070.95 KBytes
  max/ min on nodes  :        259.81        123.46


 parallel 3D FFT for wavefunctions:
    minimum data exchange during FFTs selected (reduces bandwidth)
 parallel 3D FFT for charge:
    minimum data exchange during FFTs selected (reduces bandwidth)


 total amount of memory used by VASP MPI-rank0   181767. kBytes
=======================================================================

   base      :      30000. kBytes
   nonlr-proj:       1528. kBytes
   fftplans  :      38189. kBytes
   grid      :     103575. kBytes
   one-center:         12. kBytes
   wavefun   :       8463. kBytes
 
     INWAV:  cpu time      3.5387: real time      3.5386
 Broyden mixing: mesh for mixing (old mesh)
   NGX = 91   NGY = 91   NGZ = 91
  (NGX  =384   NGY  =384   NGZ  =384)
  gives a total of 753571 points

 initial charge density was supplied:
 charge density of overlapping atoms calculated
 number of electron      70.0000000 magnetization      24.0000000
 keeping initial charge density in first step


--------------------------------------------------------------------------------------------------------


 Maximum index for non-local projection operator          259
 Maximum index for augmentation-charges          200 (set IRDMAX)


--------------------------------------------------------------------------------------------------------


 First call to EWALD:  gamma=   0.071
 Maximum number of real-space cells 3x 3x 3
 Maximum number of reciprocal cells 3x 3x 3

    FEWALD:  cpu time      0.0041: real time      0.0041


--------------------------------------- Iteration      1(   1)  ---------------------------------------


    POTLOK:  cpu time      6.0989: real time      6.0992
    SETDIJ:  cpu time      0.0158: real time      0.0158
     EDDAV:  cpu time      4.9508: real time      4.9509
       DOS:  cpu time      0.0062: real time      0.0062
    CHARGE:  cpu time      0.9428: real time      0.9428
    MIXING:  cpu time      0.0534: real time      0.0534
    --------------------------------------------
      LOOP:  cpu time     12.0679: real time     12.0684

 eigenvalue-minimisations  :   300
 total energy-change (2. order) :-0.1570378E+03  (-0.1253938E+02)
 number of electron      70.9999997 magnetization      21.8136148
 augmentation part        2.9645388 magnetization      20.9705926

 Broyden mixing:
  rms(total) = 0.32105E+01    rms(broyden)= 0.32100E+01
  rms(prec ) = 0.33092E+01
  weight for this iteration     100.00

 Free energy of the ion-electron system (eV)
  ---------------------------------------------------
  alpha Z        PSCENC =         1.42069749
  Ewald energy   TEWEN  =      7379.00950014
  -Hartree energ DENC   =     -9321.05268059
  -exchange      EXHF   =         0.00000000
  -V(xc)+E(xc)   XCENC  =       239.86640976
  PAW double counting   =      2011.48092099    -2021.87904605
  entropy T*S    EENTRO =        -0.00000000
  eigenvalues    EBANDS =     -1201.24187273
  atomic energy  EATOM  =      2755.35822803
  Solvation  Ecorr_sol  =         0.00000000
  ---------------------------------------------------
  free energy    TOTEN  =      -157.03784294 eV

  energy without entropy =     -157.03784294  energy(sigma->0) =     -157.03784294


--------------------------------------------------------------------------------------------------------




--------------------------------------- Iteration      1(   2)  ---------------------------------------


    --------------------------------------------
      INIT:  cpu time      0.5223: real time      0.5223
  FINALIZE:  cpu time     37.3397: real time     37.3398
    --------------------------------------------
    POTLOK:  cpu time     42.5034: real time     42.5306
    SETDIJ:  cpu time      0.0145: real time      0.0145
    EDDIAG:  cpu time      1.2532: real time      1.2533
  RMM-DIIS:  cpu time      2.3332: real time      2.3331
    ORTHCH:  cpu time      0.2074: real time      0.2074
       DOS:  cpu time      0.0022: real time      0.0022
    CHARGE:  cpu time      0.7293: real time      0.7293
    MIXING:  cpu time      0.0382: real time      0.0382
    --------------------------------------------
      LOOP:  cpu time     47.0815: real time     47.1087

 eigenvalue-minimisations  :   240
 total energy-change (2. order) : 0.7039377E+02  (-0.1209533E+02)
 number of electron      70.9999998 magnetization      19.5076760
 augmentation part        2.8512423 magnetization      18.4977517

 Broyden mixing:
  rms(total) = 0.15361E+01    rms(broyden)= 0.15361E+01
  rms(prec ) = 0.16210E+01
  weight for this iteration     100.00

 eigenvalues of (default mixing * dielectric matrix)
  average eigenvalue GAMMA=   0.9718
  0.9718

 Free energy of the ion-electron system (eV)
  ---------------------------------------------------
  alpha Z        PSCENC =         1.42069749
  Ewald energy   TEWEN  =      7379.00950014
  -Hartree energ DENC   =     -9492.08923170
  -exchange      EXHF   =         0.00000000
  -V(xc)+E(xc)   XCENC  =       300.42718312
  PAW double counting   =      3330.46784650    -3342.55833440
  entropy T*S    EENTRO =        -0.00000000
  eigenvalues    EBANDS =     -1002.27776281
  atomic energy  EATOM  =      2755.35822803
  Solvation  Ecorr_sol  =       -16.40219487
  ---------------------------------------------------
  free energy    TOTEN  =       -86.64406850 eV

  energy without entropy =      -86.64406850  energy(sigma->0) =      -86.64406850


--------------------------------------------------------------------------------------------------------




--------------------------------------- Iteration      1(   3)  ---------------------------------------


    --------------------------------------------
      INIT:  cpu time      0.1192: real time      0.1192
  FINALIZE:  cpu time     25.0900: real time     25.0901
    --------------------------------------------
    POTLOK:  cpu time     31.4097: real time     31.4161
    SETDIJ:  cpu time      0.0151: real time      0.0151
    EDDIAG:  cpu time      1.0900: real time      1.0900
  RMM-DIIS:  cpu time      2.3323: real time      2.3323
    ORTHCH:  cpu time      0.2050: real time      0.2050
       DOS:  cpu time      0.0033: real time      0.0033
    CHARGE:  cpu time      0.9402: real time      0.9402
    MIXING:  cpu time      0.0402: real time      0.0401
    --------------------------------------------
      LOOP:  cpu time     36.0357: real time     36.0422

 eigenvalue-minimisations  :   240
 total energy-change (2. order) :-0.3747508E+02  (-0.4910550E+01)
 number of electron      70.9999998 magnetization      17.2002049
 augmentation part        2.7391776 magnetization      16.1515436

 Broyden mixing:
  rms(total) = 0.92723E+00    rms(broyden)= 0.92713E+00
  rms(prec ) = 0.96831E+00
  weight for this iteration     100.00

 eigenvalues of (default mixing * dielectric matrix)
  average eigenvalue GAMMA=   1.1029
  0.7886  1.4172

 Free energy of the ion-electron system (eV)
  ---------------------------------------------------
  alpha Z        PSCENC =         1.42069749
  Ewald energy   TEWEN  =      7379.00950014
  -Hartree energ DENC   =     -9632.92254013
  -exchange      EXHF   =         0.00000000
  -V(xc)+E(xc)   XCENC  =       274.84874480
  PAW double counting   =      4527.68484534    -4540.59826434
  entropy T*S    EENTRO =        -0.00000000
  eigenvalues    EBANDS =      -880.24435204
  atomic energy  EATOM  =      2755.35822803
  Solvation  Ecorr_sol  =        -8.67600770
  ---------------------------------------------------
  free energy    TOTEN  =      -124.11914841 eV

  energy without entropy =     -124.11914841  energy(sigma->0) =     -124.11914841


--------------------------------------------------------------------------------------------------------




--------------------------------------- Iteration      1(   4)  ---------------------------------------


    --------------------------------------------
      INIT:  cpu time      0.1179: real time      0.1179
  FINALIZE:  cpu time     23.7517: real time     23.7518
    --------------------------------------------
    POTLOK:  cpu time     28.2782: real time     28.2859
    SETDIJ:  cpu time      0.0144: real time      0.0144
    EDDIAG:  cpu time      1.0896: real time      1.0896
  RMM-DIIS:  cpu time      2.3763: real time      2.3763
    ORTHCH:  cpu time      0.2042: real time      0.2042
       DOS:  cpu time      0.0043: real time      0.0043
    CHARGE:  cpu time      0.7269: real time      0.7269
    MIXING:  cpu time      0.0398: real time      0.0398
    --------------------------------------------
      LOOP:  cpu time     32.7337: real time     32.7415

 eigenvalue-minimisations  :   241
 total energy-change (2. order) :-0.8619180E+01  (-0.1841460E+01)
 number of electron      70.9999998 magnetization      15.1081344
 augmentation part        2.6872545 magnetization      14.0823896

 Broyden mixing:
  rms(total) = 0.67238E+00    rms(broyden)= 0.67231E+00
  rms(prec ) = 0.69889E+00
  weight for this iteration     100.00

 eigenvalues of (default mixing * dielectric matrix)
  average eigenvalue GAMMA=   1.1065
  1.4261  1.2060  0.6874

 Free energy of the ion-electron system (eV)
  ---------------------------------------------------
  alpha Z        PSCENC =         1.42069749
  Ewald energy   TEWEN  =      7379.00950014
  -Hartree energ DENC   =     -9718.48236830
  -exchange      EXHF   =         0.00000000
  -V(xc)+E(xc)   XCENC  =       271.55365022
  PAW double counting   =      5417.14384262    -5430.18691987
  entropy T*S    EENTRO =        -0.00000000
  eigenvalues    EBANDS =      -813.47477259
  atomic energy  EATOM  =      2755.35822803
  Solvation  Ecorr_sol  =         4.91981409
  ---------------------------------------------------
  free energy    TOTEN  =      -132.73832816 eV

  energy without entropy =     -132.73832816  energy(sigma->0) =     -132.73832816


--------------------------------------------------------------------------------------------------------




--------------------------------------- Iteration      1(   5)  ---------------------------------------


    --------------------------------------------
      INIT:  cpu time      0.1164: real time      0.1164
  FINALIZE:  cpu time     26.6403: real time     26.6401
    --------------------------------------------
    POTLOK:  cpu time     32.1953: real time     32.2009
    SETDIJ:  cpu time      0.0149: real time      0.0149
    EDDIAG:  cpu time      1.0974: real time      1.0974
  RMM-DIIS:  cpu time      2.3319: real time      2.3319
    ORTHCH:  cpu time      0.2063: real time      0.2063
       DOS:  cpu time      0.0026: real time      0.0026
    CHARGE:  cpu time      1.1166: real time      1.1166
    MIXING:  cpu time      0.0418: real time      0.0418
    --------------------------------------------
      LOOP:  cpu time     37.0068: real time     37.0123

 eigenvalue-minimisations  :   240
 total energy-change (2. order) :-0.9154423E+01  (-0.6087267E+00)
 number of electron      70.9999998 magnetization      12.3498368
 augmentation part        2.6725462 magnetization      11.3489336

 Broyden mixing:
  rms(total) = 0.42681E+00    rms(broyden)= 0.42679E+00
  rms(prec ) = 0.44721E+00
  weight for this iteration     100.00

 eigenvalues of (default mixing * dielectric matrix)
  average eigenvalue GAMMA=   1.3251
  2.0423  1.7664  0.8471  0.6445

 Free energy of the ion-electron system (eV)
  ---------------------------------------------------
  alpha Z        PSCENC =         1.42069749
  Ewald energy   TEWEN  =      7379.00950014
  -Hartree energ DENC   =     -9750.25484928
  -exchange      EXHF   =         0.00000000
  -V(xc)+E(xc)   XCENC  =       265.36833418
  PAW double counting   =      5814.22249515    -5827.02503296
  entropy T*S    EENTRO =        -0.00000000
  eigenvalues    EBANDS =      -806.43971704
  atomic energy  EATOM  =      2755.35822803
  Solvation  Ecorr_sol  =        26.44759281
  ---------------------------------------------------
  free energy    TOTEN  =      -141.89275147 eV

  energy without entropy =     -141.89275147  energy(sigma->0) =     -141.89275147


--------------------------------------------------------------------------------------------------------




--------------------------------------- Iteration      1(   6)  ---------------------------------------


    --------------------------------------------
      INIT:  cpu time      0.1206: real time      0.1206
  FINALIZE:  cpu time     23.9355: real time     23.9355
    --------------------------------------------
    POTLOK:  cpu time     29.0524: real time     29.0565
    SETDIJ:  cpu time      0.0136: real time      0.0136
    EDDIAG:  cpu time      1.0933: real time      1.0933
  RMM-DIIS:  cpu time      2.3203: real time      2.3203
    ORTHCH:  cpu time      0.2049: real time      0.2049
       DOS:  cpu time      0.0024: real time      0.0024
    CHARGE:  cpu time      0.7299: real time      0.7299
    MIXING:  cpu time      0.0412: real time      0.0412
    --------------------------------------------
      LOOP:  cpu time     33.4581: real time     33.4621

 eigenvalue-minimisations  :   240
 total energy-change (2. order) :-0.9953527E+01  (-0.6214203E+00)
 number of electron      70.9999998 magnetization      10.9780147
 augmentation part        2.6544448 magnetization      10.0100904

 Broyden mixing:
  rms(total) = 0.26595E+00    rms(broyden)= 0.26593E+00
  rms(prec ) = 0.28103E+00
  weight for this iteration     100.00

 eigenvalues of (default mixing * dielectric matrix)
  average eigenvalue GAMMA=   1.3156
  2.2987  1.8470  0.9724  0.8248  0.6351

 Free energy of the ion-electron system (eV)
  ---------------------------------------------------
  alpha Z        PSCENC =         1.42069749
  Ewald energy   TEWEN  =      7379.00950014
  -Hartree energ DENC   =     -9789.09650310
  -exchange      EXHF   =         0.00000000
  -V(xc)+E(xc)   XCENC  =       258.77606415
  PAW double counting   =      6190.36435788    -6202.92963350
  entropy T*S    EENTRO =        -0.00000000
  eigenvalues    EBANDS =      -801.29523164
  atomic energy  EATOM  =      2755.35822803
  Solvation  Ecorr_sol  =        56.54624221
  ---------------------------------------------------
  free energy    TOTEN  =      -151.84627833 eV

  energy without entropy =     -151.84627833  energy(sigma->0) =     -151.84627833


--------------------------------------------------------------------------------------------------------




--------------------------------------- Iteration      1(   7)  ---------------------------------------


    --------------------------------------------
      INIT:  cpu time      0.1136: real time      0.1136
  FINALIZE:  cpu time     29.0649: real time     29.0650
    --------------------------------------------
    POTLOK:  cpu time     35.0852: real time     35.0923
    SETDIJ:  cpu time      0.0144: real time      0.0144
    EDDIAG:  cpu time      1.2590: real time      1.2590
  RMM-DIIS:  cpu time      2.3447: real time      2.3447
    ORTHCH:  cpu time      0.2066: real time      0.2067
       DOS:  cpu time      0.0011: real time      0.0011
    CHARGE:  cpu time      0.7265: real time      0.7265
    MIXING:  cpu time      0.0437: real time      0.0437
    --------------------------------------------
      LOOP:  cpu time     39.6812: real time     39.6884

 eigenvalue-minimisations  :   241
 total energy-change (2. order) :-0.1687257E+01  (-0.1929443E+00)
 number of electron      70.9999998 magnetization       8.5382532
 augmentation part        2.6266078 magnetization       7.6018873

 Broyden mixing:
  rms(total) = 0.23455E+00    rms(broyden)= 0.23453E+00
  rms(prec ) = 0.24675E+00
  weight for this iteration     100.00

 eigenvalues of (default mixing * dielectric matrix)
  average eigenvalue GAMMA=   1.2549
  2.2205  2.2205  0.8519  0.8519  0.6923  0.6923

 Free energy of the ion-electron system (eV)
  ---------------------------------------------------
  alpha Z        PSCENC =         1.42069749
  Ewald energy   TEWEN  =      7379.00950014
  -Hartree energ DENC   =     -9804.55395957
  -exchange      EXHF   =         0.00000000
  -V(xc)+E(xc)   XCENC  =       257.93733100
  PAW double counting   =      6205.94063310    -6218.48924982
  entropy T*S    EENTRO =        -0.00000000
  eigenvalues    EBANDS =      -802.05201190
  atomic energy  EATOM  =      2755.35822803
  Solvation  Ecorr_sol  =        71.89529636
  ---------------------------------------------------
  free energy    TOTEN  =      -153.53353517 eV

  energy without entropy =     -153.53353517  energy(sigma->0) =     -153.53353517


--------------------------------------------------------------------------------------------------------




--------------------------------------- Iteration      1(   8)  ---------------------------------------


    --------------------------------------------
      INIT:  cpu time      0.1170: real time      0.1170
  FINALIZE:  cpu time     26.9472: real time     26.9489
    --------------------------------------------
    POTLOK:  cpu time     32.3048: real time     32.3103
    SETDIJ:  cpu time      0.0147: real time      0.0147
    EDDIAG:  cpu time      1.0872: real time      1.0872
  RMM-DIIS:  cpu time      2.3208: real time      2.3208
    ORTHCH:  cpu time      0.2068: real time      0.2068
       DOS:  cpu time      0.0014: real time      0.0014
    CHARGE:  cpu time      1.1281: real time      1.1281
    MIXING:  cpu time      0.0431: real time      0.0431
    --------------------------------------------
      LOOP:  cpu time     37.1070: real time     37.1124

 eigenvalue-minimisations  :   240
 total energy-change (2. order) :-0.1624791E+01  (-0.1270370E+00)
 number of electron      70.9999998 magnetization       5.6185249
 augmentation part        2.6337191 magnetization       4.7031294

 Broyden mixing:
  rms(total) = 0.17700E+00    rms(broyden)= 0.17699E+00
  rms(prec ) = 0.18452E+00
  weight for this iteration     100.00

 eigenvalues of (default mixing * dielectric matrix)
  average eigenvalue GAMMA=   1.5408
  3.5354  2.6784  1.4567  1.0139  0.8565  0.6490  0.5958

 Free energy of the ion-electron system (eV)
  ---------------------------------------------------
  alpha Z        PSCENC =         1.42069749
  Ewald energy   TEWEN  =      7379.00950014
  -Hartree energ DENC   =     -9813.37776112
  -exchange      EXHF   =         0.00000000
  -V(xc)+E(xc)   XCENC  =       256.49025061
  PAW double counting   =      6048.53610052    -6060.93043317
  entropy T*S    EENTRO =        -0.00000000
  eigenvalues    EBANDS =      -820.11842607
  atomic energy  EATOM  =      2755.35822803
  Solvation  Ecorr_sol  =        98.45351715
  ---------------------------------------------------
  free energy    TOTEN  =      -155.15832642 eV

  energy without entropy =     -155.15832642  energy(sigma->0) =     -155.15832642


--------------------------------------------------------------------------------------------------------




--------------------------------------- Iteration      1(   9)  ---------------------------------------


    --------------------------------------------
      INIT:  cpu time      0.3235: real time      0.3235
  FINALIZE:  cpu time     27.2198: real time     27.2198
    --------------------------------------------
    POTLOK:  cpu time     31.9519: real time     31.9578
    SETDIJ:  cpu time      0.0145: real time      0.0145
    EDDIAG:  cpu time      1.0881: real time      1.0881
  RMM-DIIS:  cpu time      2.5041: real time      2.5042
    ORTHCH:  cpu time      0.2050: real time      0.2050
       DOS:  cpu time      0.0041: real time      0.0041
    CHARGE:  cpu time      1.1188: real time      1.1188
    MIXING:  cpu time      0.0437: real time      0.0437
    --------------------------------------------
      LOOP:  cpu time     36.9303: real time     36.9362

 eigenvalue-minimisations  :   249
 total energy-change (2. order) :-0.9034460E+00  (-0.1500518E+00)
 number of electron      70.9999998 magnetization       4.9298217
 augmentation part        2.6280170 magnetization       4.0343840

 Broyden mixing:
  rms(total) = 0.12938E+00    rms(broyden)= 0.12936E+00
  rms(prec ) = 0.13452E+00
  weight for this iteration     100.00

 eigenvalues of (default mixing * dielectric matrix)
  average eigenvalue GAMMA=   1.5352
  4.2636  2.2599  1.8464  0.8496  0.8496  0.8539  0.7404  0.6182

 Free energy of the ion-electron system (eV)
  ---------------------------------------------------
  alpha Z        PSCENC =         1.42069749
  Ewald energy   TEWEN  =      7379.00950014
  -Hartree energ DENC   =     -9836.56847874
  -exchange      EXHF   =         0.00000000
  -V(xc)+E(xc)   XCENC  =       256.06256105
  PAW double counting   =      5987.28454924    -5999.63598191
  entropy T*S    EENTRO =        -0.00000000
  eigenvalues    EBANDS =      -825.70079177
  atomic energy  EATOM  =      2755.35822803
  Solvation  Ecorr_sol  =       126.70794407
  ---------------------------------------------------
  free energy    TOTEN  =      -156.06177241 eV

  energy without entropy =     -156.06177241  energy(sigma->0) =     -156.06177241


--------------------------------------------------------------------------------------------------------




--------------------------------------- Iteration      1(  10)  ---------------------------------------


    --------------------------------------------
      INIT:  cpu time      0.5100: real time      0.5099
  FINALIZE:  cpu time     30.6432: real time     30.6434
    --------------------------------------------
    POTLOK:  cpu time     35.9652: real time     35.9693
    SETDIJ:  cpu time      0.0135: real time      0.0135
    EDDIAG:  cpu time      1.0874: real time      1.0874
  RMM-DIIS:  cpu time      2.4825: real time      2.4825
    ORTHCH:  cpu time      0.2063: real time      0.2063
       DOS:  cpu time      0.0009: real time      0.0009
    CHARGE:  cpu time      1.1290: real time      1.1290
    MIXING:  cpu time      0.0422: real time      0.0422
    --------------------------------------------
      LOOP:  cpu time     40.9271: real time     40.9312

 eigenvalue-minimisations  :   248
 total energy-change (2. order) :-0.1128529E+01  (-0.2823501E-01)
 number of electron      70.9999998 magnetization       3.4279671
 augmentation part        2.6176333 magnetization       2.5429619

 Broyden mixing:
  rms(total) = 0.83408E-01    rms(broyden)= 0.83399E-01
  rms(prec ) = 0.87121E-01
  weight for this iteration     100.00

 eigenvalues of (default mixing * dielectric matrix)
  average eigenvalue GAMMA=   1.6038
  5.2684  2.1597  1.8004  1.3950  0.8389  0.8389  0.8132  0.7105  0.6089

 Free energy of the ion-electron system (eV)
  ---------------------------------------------------
  alpha Z        PSCENC =         1.42069749
  Ewald energy   TEWEN  =      7379.00950014
  -Hartree energ DENC   =     -9845.90829506
  -exchange      EXHF   =         0.00000000
  -V(xc)+E(xc)   XCENC  =       255.23236556
  PAW double counting   =      6008.43657114    -6020.84992658
  entropy T*S    EENTRO =        -0.00000000
  eigenvalues    EBANDS =      -821.32038175
  atomic energy  EATOM  =      2755.35822803
  Solvation  Ecorr_sol  =       131.43093973
  ---------------------------------------------------
  free energy    TOTEN  =      -157.19030131 eV

  energy without entropy =     -157.19030131  energy(sigma->0) =     -157.19030131


--------------------------------------------------------------------------------------------------------




--------------------------------------- Iteration      1(  11)  ---------------------------------------


    --------------------------------------------
      INIT:  cpu time      0.1249: real time      0.1249
  FINALIZE:  cpu time     23.4464: real time     23.4462
    --------------------------------------------
    POTLOK:  cpu time     28.2197: real time     28.2275
    SETDIJ:  cpu time      0.0144: real time      0.0144
    EDDIAG:  cpu time      1.0880: real time      1.0880
  RMM-DIIS:  cpu time      2.3809: real time      2.3809
    ORTHCH:  cpu time      0.2070: real time      0.2070
       DOS:  cpu time      0.0019: real time      0.0019
    CHARGE:  cpu time      0.7278: real time      0.7278
    MIXING:  cpu time      0.0472: real time      0.0472
    --------------------------------------------
      LOOP:  cpu time     32.6870: real time     32.6948

 eigenvalue-minimisations  :   245
 total energy-change (2. order) :-0.2475714E+01  (-0.2489402E-01)
 number of electron      70.9999998 magnetization       2.5349455
 augmentation part        2.6138360 magnetization       1.6569514

 Broyden mixing:
  rms(total) = 0.56444E-01    rms(broyden)= 0.56438E-01
  rms(prec ) = 0.58255E-01
  weight for this iteration     100.00

 eigenvalues of (default mixing * dielectric matrix)
  average eigenvalue GAMMA=   1.7780
  6.9439  2.2839  2.2839  1.6283  0.8381  0.8381  0.8217  0.8217  0.6098  0.7108

 Free energy of the ion-electron system (eV)
  ---------------------------------------------------
  alpha Z        PSCENC =         1.42069749
  Ewald energy   TEWEN  =      7379.00950014
  -Hartree energ DENC   =     -9854.90323526
  -exchange      EXHF   =         0.00000000
  -V(xc)+E(xc)   XCENC  =       252.83015466
  PAW double counting   =      5964.45205486    -5976.87926998
  entropy T*S    EENTRO =        -0.00000000
  eigenvalues    EBANDS =      -823.37640381
  atomic energy  EATOM  =      2755.35822803
  Solvation  Ecorr_sol  =       142.42225856
  ---------------------------------------------------
  free energy    TOTEN  =      -159.66601530 eV

  energy without entropy =     -159.66601530  energy(sigma->0) =     -159.66601530


--------------------------------------------------------------------------------------------------------




--------------------------------------- Iteration      1(  12)  ---------------------------------------


    --------------------------------------------
      INIT:  cpu time      0.5134: real time      0.5134
  FINALIZE:  cpu time     22.9147: real time     22.9148
    --------------------------------------------
    POTLOK:  cpu time     28.6554: real time     28.6594
    SETDIJ:  cpu time      0.0150: real time      0.0150
    EDDIAG:  cpu time      1.0872: real time      1.0872
  RMM-DIIS:  cpu time      2.4095: real time      2.4095
    ORTHCH:  cpu time      0.2057: real time      0.2057
       DOS:  cpu time      0.0026: real time      0.0026
    CHARGE:  cpu time      0.7426: real time      0.7427
    MIXING:  cpu time      0.0450: real time      0.0450
    --------------------------------------------
      LOOP:  cpu time     33.1630: real time     33.1671

 eigenvalue-minimisations  :   246
 total energy-change (2. order) :-0.9888904E+00  (-0.1158146E-01)
 number of electron      70.9999998 magnetization       2.1592491
 augmentation part        2.6105191 magnetization       1.2829086

 Broyden mixing:
  rms(total) = 0.37115E-01    rms(broyden)= 0.37113E-01
  rms(prec ) = 0.38921E-01
  weight for this iteration     100.00

 eigenvalues of (default mixing * dielectric matrix)
  average eigenvalue GAMMA=   1.7465
  7.3984  2.3185  2.3185  1.5341  0.8161  0.8161  0.9819  0.9819  0.7618  0.6760
  0.6084

 Free energy of the ion-electron system (eV)
  ---------------------------------------------------
  alpha Z        PSCENC =         1.42069749
  Ewald energy   TEWEN  =      7379.00950014
  -Hartree energ DENC   =     -9860.55107703
  -exchange      EXHF   =         0.00000000
  -V(xc)+E(xc)   XCENC  =       251.91561532
  PAW double counting   =      5958.84931020    -5971.29799245
  entropy T*S    EENTRO =        -0.00000000
  eigenvalues    EBANDS =      -823.57708831
  atomic energy  EATOM  =      2755.35822803
  Solvation  Ecorr_sol  =       148.21790095
  ---------------------------------------------------
  free energy    TOTEN  =      -160.65490565 eV

  energy without entropy =     -160.65490565  energy(sigma->0) =     -160.65490565


--------------------------------------------------------------------------------------------------------




--------------------------------------- Iteration      1(  13)  ---------------------------------------


    --------------------------------------------
      INIT:  cpu time      0.1208: real time      0.1208
  FINALIZE:  cpu time     24.4996: real time     24.4994
    --------------------------------------------
    POTLOK:  cpu time     30.6567: real time     30.6611
    SETDIJ:  cpu time      0.0147: real time      0.0147
    EDDIAG:  cpu time      1.0903: real time      1.0903
  RMM-DIIS:  cpu time      2.4454: real time      2.4454
    ORTHCH:  cpu time      0.2075: real time      0.2075
       DOS:  cpu time      0.0010: real time      0.0010
    CHARGE:  cpu time      0.9435: real time      0.9434
    MIXING:  cpu time      0.0452: real time      0.0452
    --------------------------------------------
      LOOP:  cpu time     35.4042: real time     35.4087

 eigenvalue-minimisations  :   249
 total energy-change (2. order) :-0.3713111E+00  (-0.2953039E-02)
 number of electron      70.9999998 magnetization       1.5446148
 augmentation part        2.6096124 magnetization       0.6691042

 Broyden mixing:
  rms(total) = 0.28680E-01    rms(broyden)= 0.28680E-01
  rms(prec ) = 0.30044E-01
  weight for this iteration     100.00

 eigenvalues of (default mixing * dielectric matrix)
  average eigenvalue GAMMA=   1.8555
  8.1442  2.5701  2.2950  2.2950  1.5469  0.9043  0.9043  0.7745  0.7745  0.8021
  0.6434  0.6122

 Free energy of the ion-electron system (eV)
  ---------------------------------------------------
  alpha Z        PSCENC =         1.42069749
  Ewald energy   TEWEN  =      7379.00950014
  -Hartree energ DENC   =     -9860.52076950
  -exchange      EXHF   =         0.00000000
  -V(xc)+E(xc)   XCENC  =       251.50556150
  PAW double counting   =      5965.01133465    -5977.45085381
  entropy T*S    EENTRO =        -0.00000000
  eigenvalues    EBANDS =      -825.15556137
  atomic energy  EATOM  =      2755.35822803
  Solvation  Ecorr_sol  =       149.79564614
  ---------------------------------------------------
  free energy    TOTEN  =      -161.02621673 eV

  energy without entropy =     -161.02621673  energy(sigma->0) =     -161.02621673


--------------------------------------------------------------------------------------------------------




--------------------------------------- Iteration      1(  14)  ---------------------------------------


    --------------------------------------------
      INIT:  cpu time      0.7250: real time      0.7250
  FINALIZE:  cpu time     25.6405: real time     25.6406
    --------------------------------------------
    POTLOK:  cpu time     31.3793: real time     31.3839
    SETDIJ:  cpu time      0.0147: real time      0.0147
    EDDIAG:  cpu time      1.0995: real time      1.0995
  RMM-DIIS:  cpu time      2.3032: real time      2.3033
    ORTHCH:  cpu time      0.2064: real time      0.2064
       DOS:  cpu time      0.0023: real time      0.0022
    CHARGE:  cpu time      0.9297: real time      0.9297
    MIXING:  cpu time      0.0476: real time      0.0476
    --------------------------------------------
      LOOP:  cpu time     35.9826: real time     35.9873

 eigenvalue-minimisations  :   240
 total energy-change (2. order) :-0.5104949E+00  (-0.1670139E-02)
 number of electron      70.9999998 magnetization       1.3189454
 augmentation part        2.6105214 magnetization       0.4437764

 Broyden mixing:
  rms(total) = 0.15958E-01    rms(broyden)= 0.15957E-01
  rms(prec ) = 0.16792E-01
  weight for this iteration     100.00

 eigenvalues of (default mixing * dielectric matrix)
  average eigenvalue GAMMA=   1.9422
  9.0467  3.9551  2.2146  2.2146  1.3905  1.0329  1.0329  0.7997  0.7997  0.7560
  0.7560  0.6253  0.6253

 Free energy of the ion-electron system (eV)
  ---------------------------------------------------
  alpha Z        PSCENC =         1.42069749
  Ewald energy   TEWEN  =      7379.00950014
  -Hartree energ DENC   =     -9858.98008393
  -exchange      EXHF   =         0.00000000
  -V(xc)+E(xc)   XCENC  =       250.90944628
  PAW double counting   =      5976.38645666    -5988.80820258
  entropy T*S    EENTRO =        -0.00000000
  eigenvalues    EBANDS =      -828.35997231
  atomic energy  EATOM  =      2755.35822803
  Solvation  Ecorr_sol  =       151.52721856
  ---------------------------------------------------
  free energy    TOTEN  =      -161.53671165 eV

  energy without entropy =     -161.53671165  energy(sigma->0) =     -161.53671165


--------------------------------------------------------------------------------------------------------




--------------------------------------- Iteration      1(  15)  ---------------------------------------


    --------------------------------------------
      INIT:  cpu time      0.1185: real time      0.1185
  FINALIZE:  cpu time     25.5946: real time     25.5947
    --------------------------------------------
    POTLOK:  cpu time     30.7462: real time     30.7529
    SETDIJ:  cpu time      0.0146: real time      0.0146
    EDDIAG:  cpu time      1.1170: real time      1.1170
  RMM-DIIS:  cpu time      2.4175: real time      2.4175
    ORTHCH:  cpu time      0.2049: real time      0.2049
       DOS:  cpu time      0.0050: real time      0.0050
    CHARGE:  cpu time      1.3273: real time      1.3273
    MIXING:  cpu time      0.0476: real time      0.0476
    --------------------------------------------
      LOOP:  cpu time     35.8802: real time     35.8870

 eigenvalue-minimisations  :   249
 total energy-change (2. order) :-0.1822668E+00  (-0.6432445E-03)
 number of electron      70.9999998 magnetization       1.2365699
 augmentation part        2.6107055 magnetization       0.3618364

 Broyden mixing:
  rms(total) = 0.92840E-02    rms(broyden)= 0.92837E-02
  rms(prec ) = 0.10032E-01
  weight for this iteration     100.00

 eigenvalues of (default mixing * dielectric matrix)
  average eigenvalue GAMMA=   1.9287
  9.4160  4.3687  2.1120  2.1120  1.4064  1.4064  0.8223  0.8223  0.9248  0.8074
  0.7795  0.7795  0.6157  0.6290

 Free energy of the ion-electron system (eV)
  ---------------------------------------------------
  alpha Z        PSCENC =         1.42069749
  Ewald energy   TEWEN  =      7379.00950014
  -Hartree energ DENC   =     -9858.86213567
  -exchange      EXHF   =         0.00000000
  -V(xc)+E(xc)   XCENC  =       250.72349553
  PAW double counting   =      5979.18409249    -5991.61026635
  entropy T*S    EENTRO =        -0.00000000
  eigenvalues    EBANDS =      -828.78430567
  atomic energy  EATOM  =      2755.35822803
  Solvation  Ecorr_sol  =       151.84171558
  ---------------------------------------------------
  free energy    TOTEN  =      -161.71897843 eV

  energy without entropy =     -161.71897843  energy(sigma->0) =     -161.71897843


--------------------------------------------------------------------------------------------------------




--------------------------------------- Iteration      1(  16)  ---------------------------------------


    --------------------------------------------
      INIT:  cpu time      0.3171: real time      0.3171
  FINALIZE:  cpu time     26.5364: real time     26.5362
    --------------------------------------------
    POTLOK:  cpu time     31.8360: real time     31.8402
    SETDIJ:  cpu time      0.0135: real time      0.0135
    EDDIAG:  cpu time      1.1013: real time      1.1013
  RMM-DIIS:  cpu time      2.4596: real time      2.4596
    ORTHCH:  cpu time      0.2077: real time      0.2077
       DOS:  cpu time      0.0011: real time      0.0011
    CHARGE:  cpu time      0.7285: real time      0.7284
    MIXING:  cpu time      0.0544: real time      0.0544
    --------------------------------------------
      LOOP:  cpu time     36.4022: real time     36.4063

 eigenvalue-minimisations  :   253
 total energy-change (2. order) :-0.6530570E-01  (-0.2569406E-03)
 number of electron      70.9999998 magnetization       1.1329343
 augmentation part        2.6103059 magnetization       0.2585151

 Broyden mixing:
  rms(total) = 0.64199E-02    rms(broyden)= 0.64194E-02
  rms(prec ) = 0.71686E-02
  weight for this iteration     100.00

 eigenvalues of (default mixing * dielectric matrix)
  average eigenvalue GAMMA=   1.9883
  9.7488  4.8705  2.2158  2.2158  2.1465  1.3924  0.9977  0.9977  0.7987  0.7987
  0.8459  0.8459  0.7066  0.6221  0.6221

 Free energy of the ion-electron system (eV)
  ---------------------------------------------------
  alpha Z        PSCENC =         1.42069749
  Ewald energy   TEWEN  =      7379.00950014
  -Hartree energ DENC   =     -9858.56175559
  -exchange      EXHF   =         0.00000000
  -V(xc)+E(xc)   XCENC  =       250.65272367
  PAW double counting   =      5975.85545456    -5988.28642311
  entropy T*S    EENTRO =        -0.00000000
  eigenvalues    EBANDS =      -828.80136107
  atomic energy  EATOM  =      2755.35822803
  Solvation  Ecorr_sol  =       151.56865174
  ---------------------------------------------------
  free energy    TOTEN  =      -161.78428413 eV

  energy without entropy =     -161.78428413  energy(sigma->0) =     -161.78428413


--------------------------------------------------------------------------------------------------------




--------------------------------------- Iteration      1(  17)  ---------------------------------------


    --------------------------------------------
      INIT:  cpu time      0.3179: real time      0.3179
  FINALIZE:  cpu time     26.7101: real time     26.7099
    --------------------------------------------
    POTLOK:  cpu time     32.4762: real time     32.4872
    SETDIJ:  cpu time      0.0148: real time      0.0148
    EDDIAG:  cpu time      1.0876: real time      1.0876
  RMM-DIIS:  cpu time      2.3262: real time      2.3262
    ORTHCH:  cpu time      0.2057: real time      0.2057
       DOS:  cpu time      0.0031: real time      0.0031
    CHARGE:  cpu time      1.1345: real time      1.1345
    MIXING:  cpu time      0.0498: real time      0.0498
    --------------------------------------------
      LOOP:  cpu time     37.2979: real time     37.3088

 eigenvalue-minimisations  :   241
 total energy-change (2. order) :-0.6634082E-01  (-0.9023877E-04)
 number of electron      70.9999998 magnetization       1.1063967
 augmentation part        2.6105338 magnetization       0.2321858

 Broyden mixing:
  rms(total) = 0.32844E-02    rms(broyden)= 0.32841E-02
  rms(prec ) = 0.38774E-02
  weight for this iteration     100.00

 eigenvalues of (default mixing * dielectric matrix)
  average eigenvalue GAMMA=   1.9652
  9.8973  5.1956  2.3518  2.3518  2.2855  1.1716  1.1716  1.0574  0.7998  0.7998
  0.8244  0.8244  0.8043  0.6236  0.6236  0.6601

 Free energy of the ion-electron system (eV)
  ---------------------------------------------------
  alpha Z        PSCENC =         1.42069749
  Ewald energy   TEWEN  =      7379.00950014
  -Hartree energ DENC   =     -9857.50872462
  -exchange      EXHF   =         0.00000000
  -V(xc)+E(xc)   XCENC  =       250.56361451
  PAW double counting   =      5975.26358986    -5987.69384837
  entropy T*S    EENTRO =        -0.00000000
  eigenvalues    EBANDS =      -829.25070442
  atomic energy  EATOM  =      2755.35822803
  Solvation  Ecorr_sol  =       150.98702243
  ---------------------------------------------------
  free energy    TOTEN  =      -161.85062495 eV

  energy without entropy =     -161.85062495  energy(sigma->0) =     -161.85062495


--------------------------------------------------------------------------------------------------------




--------------------------------------- Iteration      1(  18)  ---------------------------------------


    --------------------------------------------
      INIT:  cpu time      0.1225: real time      0.1225
  FINALIZE:  cpu time     22.3624: real time     22.3625
    --------------------------------------------
    POTLOK:  cpu time     28.3138: real time     28.3194
    SETDIJ:  cpu time      0.0130: real time      0.0130
    EDDIAG:  cpu time      1.0883: real time      1.0883
  RMM-DIIS:  cpu time      2.3128: real time      2.3128
    ORTHCH:  cpu time      0.2086: real time      0.2086
       DOS:  cpu time      0.0012: real time      0.0012
[...]
 total energy-change (2. order) :-0.9777350E-05  (-0.7896609E-05)
 number of electron      70.9999998 magnetization       1.0000787
 augmentation part        2.6111630 magnetization       0.1261587

 Free energy of the ion-electron system (eV)
  ---------------------------------------------------
  alpha Z        PSCENC =         1.42069749
  Ewald energy   TEWEN  =      7379.46984844
  -Hartree energ DENC   =     -9856.30826291
  -exchange      EXHF   =         0.00000000
  -V(xc)+E(xc)   XCENC  =       250.52102865
  PAW double counting   =      5977.80861040    -5990.24049815
  entropy T*S    EENTRO =        -0.00000000
  eigenvalues    EBANDS =      -829.44048998
  atomic energy  EATOM  =      2755.35822803
  Solvation  Ecorr_sol  =       149.52267700
  ---------------------------------------------------
  free energy    TOTEN  =      -161.88816103 eV

  energy without entropy =     -161.88816103  energy(sigma->0) =     -161.88816103


--------------------------------------------------------------------------------------------------------




 average (electrostatic) potential at core
  the test charge radii are     0.6991  0.7215  0.5201
  (the norm of the test charge is              1.0000)
       1 -59.3836       2 -58.2906       3 -58.2920       4 -59.3871       5 -58.4320
       6 -58.4298       7 -58.3715       8 -58.4172       9 -58.4175      10 -58.3740
      11 -57.8944      12 -57.8931      13 -78.6693      14 -78.6667      15 -41.5711
      16 -41.7088      17 -41.7090      18 -41.5684      19 -41.3729      20 -41.1630
      21 -41.3730      22 -41.3724      23 -41.1639      24 -41.3719
 
 
 
 E-fermi :  -3.1038     XC(G=0):  -0.2163     alpha+bet : -0.1045

 Fermi energy:        -3.1037694893

 spin component 1

 k-point     1 :       0.0000    0.0000    0.0000
  band No.  band energies     occupation 
      1     -24.3736      1.00000
      2     -24.3002      1.00000
      3     -20.9211      1.00000
      4     -19.9076      1.00000
      5     -18.4055      1.00000
      6     -18.1517      1.00000
      7     -17.5490      1.00000
      8     -16.2828      1.00000
      9     -15.7118      1.00000
     10     -14.3813      1.00000
     11     -14.0333      1.00000
     12     -13.1748      1.00000
     13     -12.1838      1.00000
     14     -11.5579      1.00000
     15     -10.9204      1.00000
     16     -10.5746      1.00000
     17     -10.3545      1.00000
     18      -9.8962      1.00000
     19      -9.6984      1.00000
     20      -9.4438      1.00000
     21      -9.3761      1.00000
     22      -9.2626      1.00000
     23      -8.9664      1.00000
     24      -8.9559      1.00000
     25      -8.7044      1.00000
     26      -8.4557      1.00000
     27      -8.2067      1.00000
     28      -8.1304      1.00000
     29      -7.6973      1.00000
     30      -7.5585      1.00000
     31      -6.0879      1.00000
     32      -6.0129      1.00000
     33      -5.5988      1.00000
     34      -5.0995      1.00000
     35      -4.8578      1.00000
     36      -3.3389      1.00000
     37      -1.4460      0.00000
     38      -0.9269      0.00000
     39      -0.4620      0.00000
     40      -0.1520      0.00000
     41      -0.0103      0.00000
     42       0.0830      0.00000
     43       0.1091      0.00000
     44       0.2051      0.00000
     45       0.2387      0.00000
     46       0.3233      0.00000
     47       0.3384      0.00000
     48       0.3579      0.00000
     49       0.3705      0.00000
     50       0.3732      0.00000
     51       0.4083      0.00000
     52       0.4230      0.00000
     53       0.4528      0.00000
     54       0.4672      0.00000
     55       0.5030      0.00000
     56       0.5112      0.00000
     57       0.5171      0.00000
     58       0.6147      0.00000
     59       0.6606      0.00000
     60       0.6652      0.00000
 Fermi energy:        -3.1037694893

 spin component 2

 k-point     1 :       0.0000    0.0000    0.0000
  band No.  band energies     occupation 
      1     -24.1549      1.00000
      2     -24.0767      1.00000
      3     -20.8739      1.00000
      4     -19.8172      1.00000
      5     -18.3569      1.00000
      6     -18.1112      1.00000
      7     -17.4840      1.00000
      8     -16.2391      1.00000
      9     -15.5787      1.00000
     10     -14.3572      1.00000
     11     -13.9568      1.00000
     12     -13.1158      1.00000
     13     -12.1388      1.00000
     14     -11.5025      1.00000
     15     -10.8661      1.00000
     16     -10.5515      1.00000
     17     -10.2048      1.00000
     18      -9.8848      1.00000
     19      -9.6443      1.00000
     20      -9.3238      1.00000
     21      -9.2384      1.00000
     22      -9.1667      1.00000
     23      -8.9384      1.00000
     24      -8.9254      1.00000
     25      -8.6695      1.00000
     26      -8.1844      1.00000
     27      -8.0843      1.00000
     28      -7.9131      1.00000
     29      -7.6634      1.00000
     30      -7.5171      1.00000
     31      -5.9023      1.00000
     32      -5.8005      1.00000
     33      -5.3523      1.00000
     34      -4.9778      1.00000
     35      -4.7356      1.00000
     36      -2.8438      0.00000
     37      -1.3092      0.00000
     38      -0.7361      0.00000
     39      -0.4364      0.00000
     40      -0.1445      0.00000
     41       0.0103      0.00000
     42       0.1073      0.00000
     43       0.1307      0.00000
     44       0.2146      0.00000
     45       0.2502      0.00000
     46       0.3278      0.00000
     47       0.3627      0.00000
     48       0.3813      0.00000
     49       0.3943      0.00000
     50       0.4001      0.00000
     51       0.4197      0.00000
     52       0.4468      0.00000
     53       0.4713      0.00000
     54       0.4856      0.00000
     55       0.5099      0.00000
     56       0.5264      0.00000
     57       0.5286      0.00000
     58       0.6317      0.00000
     59       0.6657      0.00000
     60       0.6853      0.00000


--------------------------------------------------------------------------------------------------------


 soft charge-density along one line, spin component           1
         0         1         2         3         4         5         6         7         8         9
 total charge-density along one line
 
 soft charge-density along one line, spin component           2
         0         1         2         3         4         5         6         7         8         9
 total charge-density along one line
 
 pseudopotential strength for first ion, spin component:           1
 10.295  13.692  -0.002  -0.003  -0.000   0.007   0.011   0.000
 13.692  18.210  -0.003  -0.004  -0.000   0.009   0.014   0.001
 -0.002  -0.003  -4.411  -0.005  -0.000   8.630   0.009   0.000
 -0.003  -0.004  -0.005  -4.418  -0.000   0.009   8.643  -0.000
 -0.000  -0.000  -0.000  -0.000  -4.420   0.000  -0.000   8.650
  0.007   0.009   8.630   0.009   0.000 -19.026  -0.016   0.000
  0.011   0.014   0.009   8.643  -0.000  -0.016 -19.051   0.000
  0.000   0.001   0.000  -0.000   8.650   0.000   0.000 -19.071
 pseudopotential strength for first ion, spin component:           2
 10.273  13.662  -0.002  -0.004  -0.000   0.007   0.012   0.001
 13.662  18.170  -0.003  -0.005  -0.000   0.010   0.016   0.001
 -0.002  -0.003  -4.412  -0.005  -0.000   8.637   0.009   0.001
 -0.004  -0.005  -0.005  -4.419  -0.001   0.009   8.650   0.001
 -0.000  -0.000  -0.000  -0.001  -4.398   0.001   0.001   8.616
  0.007   0.010   8.637   0.009   0.001 -19.048  -0.016  -0.001
  0.012   0.016   0.009   8.650   0.001  -0.016 -19.073  -0.002
  0.001   0.001   0.001   0.001   8.616  -0.001  -0.002 -19.019
 total augmentation occupancy for first ion, spin component:           1
  8.161  -3.729  -0.149  -0.350  -0.014  -0.042  -0.092  -0.004
 -3.729   1.823   0.124   0.263   0.011   0.029   0.061   0.003
 -0.149   0.124   1.759   0.049   0.012   0.158   0.019   0.002
 -0.350   0.263   0.049   1.785   0.024   0.019   0.181   0.004
 -0.014   0.011   0.012   0.024   1.121   0.002   0.004   0.066
 -0.042   0.029   0.158   0.019   0.002   0.016   0.004   0.000
 -0.092   0.061   0.019   0.181   0.004   0.004   0.022   0.001
 -0.004   0.003   0.002   0.004   0.066   0.000   0.001   0.004
 total augmentation occupancy for first ion, spin component:           2
  0.020  -0.010   0.006   0.009   0.000   0.001   0.001   0.000
 -0.010   0.005  -0.004  -0.004  -0.000  -0.001  -0.001  -0.000
  0.006  -0.004  -0.002  -0.001  -0.002   0.000  -0.000   0.000
  0.009  -0.004  -0.001  -0.002  -0.005  -0.000   0.000   0.000
  0.000  -0.000  -0.002  -0.005   0.129   0.000   0.000  -0.000
  0.001  -0.001   0.000  -0.000   0.000   0.000   0.000   0.000
  0.001  -0.001  -0.000   0.000   0.000   0.000   0.000   0.000
  0.000  -0.000   0.000   0.000  -0.000   0.000   0.000  -0.000


------------------------ aborting loop because EDIFF is reached ----------------------------------------


    CHARGE:  cpu time      1.1346: real time      1.1346
    FORLOC:  cpu time      0.1028: real time      0.1029
    FORNL :  cpu time      1.0746: real time      1.0746
    STRESS:  cpu time      3.2730: real time      3.2730
    FORCOR:  cpu time      4.5682: real time      4.5682
    FORHAR:  cpu time      0.4259: real time      0.4258
    MIXING:  cpu time      0.0259: real time      0.0259
    OFIELD:  cpu time      0.0001: real time      0.0001

 ---------------------------------------------------------------------------------------------

         DFTD3 V3.0 Rev 1        
 Edisp (eV)   -0.33107

 E6    (eV) :    -0.1400
 E8    (eV) :    -0.1911
 % E8        : 57.71
    FORVDW:  cpu time      0.0132: real time      0.0132

  FORCE on cell =-STRESS in cart. coord.  units (eV):
  Direction    XX          YY          ZZ          XY          YZ          ZX
  --------------------------------------------------------------------------------------
  Alpha Z     1.42070     1.42070     1.42070
  Ewald   -1141.21436  4495.71169  4024.97031    87.56696  -272.46743   176.73695
  Hartree   535.69716  4852.72286  4318.03314    62.38781  -315.52908   125.96160
  E(xc)    -276.36158  -270.17699  -269.66539     0.12249     0.34079     0.24791
  Local    -183.85873-10072.06035 -9030.46595  -147.92328   612.12495  -298.61604
  n-local  -111.53207  -121.20542  -121.75224    -0.19398    -0.33915    -0.38630
  augment     9.71831    11.24670     8.98445    -0.02719    -1.50777    -0.05056
  Kinetic  1165.60686  1101.69434  1067.94463    -1.94507   -22.46435    -3.90646
  Fock        0.00000     0.00000     0.00000     0.00000     0.00000     0.00000
  vdW         0.00238    -0.04543    -0.02814    -0.00041     0.01145    -0.00086
  -------------------------------------------------------------------------------------
  Total      -0.52135    -0.69188    -0.55848    -0.01266     0.16942    -0.01377
  in kB      -0.05346    -0.07094    -0.05727    -0.00130     0.01737    -0.00141
  external pressure =       -0.06 kB  Pullay stress =        0.00 kB


 VOLUME and BASIS-vectors are now :
 -----------------------------------------------------------------------------
  energy-cutoff  :      500.00
  volume of cell :    15625.00
      direct lattice vectors                 reciprocal lattice vectors
    25.000000000  0.000000000  0.000000000     0.040000000  0.000000000  0.000000000
     0.000000000 25.000000000  0.000000000     0.000000000  0.040000000  0.000000000
     0.000000000  0.000000000 25.000000000     0.000000000  0.000000000  0.040000000

  length of vectors
    25.000000000 25.000000000 25.000000000     0.040000000  0.040000000  0.040000000


 FORCES acting on ions
    electron-ion (+dipol)            ewald-force                    non-local-force                 convergence-correction
 -----------------------------------------------------------------------------------------------
   0.246E+01 0.101E+02 0.540E+02   -.230E+01 -.795E+01 -.506E+02   -.153E+00 -.212E+01 -.339E+01   0.253E-03 0.138E-02 0.509E-02
   0.311E+01 -.781E+02 0.107E+03   -.313E+01 0.778E+02 -.107E+03   0.207E-01 0.315E+00 0.243E+00   0.648E-04 0.235E-02 0.577E-02
   -.255E+01 -.132E+03 -.197E+01   0.257E+01 0.132E+03 0.239E+01   -.214E-01 -.352E-02 -.405E+00   -.586E-03 -.145E-02 -.662E-02
   -.237E+01 -.372E+02 -.404E+02   0.222E+01 0.357E+02 0.367E+02   0.154E+00 0.145E+01 0.373E+01   -.399E-03 -.307E-02 -.335E-02
   -.291E+01 0.151E+02 -.830E+02   0.294E+01 -.141E+02 0.833E+02   -.252E-01 -.954E+00 -.264E+00   -.129E-03 0.147E-03 -.457E-02
   0.261E+01 0.752E+02 0.373E+02   -.263E+01 -.748E+02 -.382E+02   0.229E-01 -.367E+00 0.907E+00   -.702E-04 0.493E-02 0.210E-02
   0.752E+01 0.195E+03 0.111E+03   -.757E+01 -.195E+03 -.112E+03   0.510E-01 0.684E+00 0.126E+01   -.332E-03 -.159E-02 0.408E-02
   0.393E+01 0.249E+03 -.220E+02   -.396E+01 -.250E+03 0.220E+02   0.253E-01 0.108E+01 0.768E-01   0.105E-03 0.142E-02 -.308E-02
   -.377E+01 0.167E+03 -.186E+03   0.380E+01 -.168E+03 0.187E+03   -.225E-01 0.593E+00 -.904E+00   0.466E-03 0.212E-02 0.351E-03
   -.763E+01 0.281E+02 -.222E+03   0.768E+01 -.275E+02 0.224E+03   -.556E-01 -.595E+00 -.129E+01   0.193E-03 -.259E-02 -.234E-02
   -.515E+01 -.235E+03 -.134E+02   0.519E+01 0.236E+03 0.142E+02   -.399E-01 -.519E+00 -.755E+00   -.511E-03 -.491E-02 -.997E-02
   0.509E+01 -.130E+03 0.197E+03   -.513E+01 0.130E+03 -.197E+03   0.418E-01 0.298E+00 0.863E+00   -.381E-03 0.411E-02 0.632E-02
   -.177E+02 -.215E+03 -.398E+03   0.194E+02 0.235E+03 0.439E+03   -.176E+01 -.203E+02 -.409E+02   -.853E-03 -.150E-01 -.284E-01
   0.177E+02 0.190E+03 0.411E+03   -.195E+02 -.210E+03 -.451E+03   0.176E+01 0.205E+02 0.407E+02   0.604E-03 0.116E-01 0.316E-01
   -.362E+01 -.124E+02 -.931E+02   0.386E+01 0.151E+02 0.982E+02   -.235E+00 -.276E+01 -.512E+01   0.151E-04 -.862E-03 -.623E-03
   -.176E+01 0.556E+02 -.744E+02   0.188E+01 -.588E+02 0.793E+02   -.123E+00 0.319E+01 -.483E+01   0.278E-04 0.647E-03 -.381E-03
   0.166E+01 0.927E+02 0.249E+00   -.178E+01 -.985E+02 -.608E+00   0.113E+00 0.578E+01 0.355E+00   0.116E-04 0.771E-03 -.266E-03
   0.359E+01 0.670E+02 0.659E+02   -.383E+01 -.694E+02 -.711E+02   0.234E+00 0.243E+01 0.529E+01   -.380E-04 -.158E-03 0.108E-02
   0.565E+02 -.664E+02 0.200E+02   -.609E+02 0.686E+02 -.223E+02   0.439E+01 -.228E+01 0.224E+01   0.541E-03 -.116E-02 -.712E-03
   -.376E+01 -.664E+02 -.583E+02   0.401E+01 0.679E+02 0.637E+02   -.250E+00 -.153E+01 -.542E+01   0.763E-05 0.135E-03 -.516E-03
   -.572E+02 -.642E+02 0.246E+02   0.615E+02 0.663E+02 -.272E+02   -.428E+01 -.211E+01 0.259E+01   -.584E-03 -.111E-02 -.664E-03
   -.565E+02 -.558E+02 0.412E+02   0.609E+02 0.590E+02 -.416E+02   -.439E+01 -.316E+01 0.475E+00   -.439E-03 -.911E-04 0.928E-03
   0.365E+01 0.679E+01 0.881E+02   -.390E+01 -.102E+02 -.926E+02   0.243E+00 0.343E+01 0.448E+01   -.527E-04 0.756E-03 0.268E-03
   0.571E+02 -.582E+02 0.368E+02   -.614E+02 0.615E+02 -.370E+02   0.427E+01 -.335E+01 0.143E+00   0.516E-03 -.234E-03 0.915E-03
 -----------------------------------------------------------------------------------------------
   0.226E-01 0.284E+00 -.146E+00   -.711E-14 -.426E-13 -.142E-13   -.307E-01 -.243E+00 0.134E+00   -.157E-02 -.189E-02 -.298E-02
 
 
 POSITION                                       TOTAL-FORCE (eV/Angst)
 -----------------------------------------------------------------------------------
     12.44003     12.00934     11.10686         0.003203      0.009694      0.012222
     12.46927     13.45201     11.24374        -0.000026      0.000481     -0.002915
     12.52821     14.07708     12.49261        -0.001994     -0.001746     -0.000329
     12.55910     13.32191     13.73029        -0.002503     -0.001417     -0.014836
     12.52922     11.85472     13.62014        -0.000326      0.009737     -0.003545
     12.47148     11.21840     12.34663        -0.000293      0.004208     -0.002896
     12.44370      9.80750     12.28786        -0.002546      0.009990     -0.001867
     12.47097      9.03682     13.44349         0.001537      0.003673      0.004359
     12.52889      9.66643     14.70425         0.001943      0.006066     -0.000368
     12.55685     11.05343     14.78346         0.000886      0.006529     -0.005265
     12.56142     15.57916     12.58492         0.001104     -0.004570      0.003551
     12.43813     14.27672      9.98464        -0.000073     -0.004395     -0.002318
     12.60876     13.88892     14.87771         0.000819      0.004461      0.007471
     12.39050     11.43113      9.96488        -0.001558     -0.007712     -0.004215
     12.60103     11.55627     15.75078         0.001143      0.003526     -0.001834
     12.55197      9.06367     15.61445        -0.001204      0.005220      0.005384
     12.44961      7.94703     13.37767        -0.002076      0.000840     -0.004247
     12.39969      9.33760     11.30409        -0.000051      0.000919     -0.000501
     11.66944     16.03588     12.12571        -0.003960     -0.012631      0.003773
     12.61033     15.88993     13.63499         0.000191      0.001165     -0.002970
     13.43023     16.00065     12.05348         0.005658     -0.011646      0.003230
     13.33048     14.91780      9.89636         0.006370     -0.010638      0.003431
     12.39064     13.62210      9.10698         0.000559     -0.001819     -0.001078
     11.57003     14.95555      9.96400        -0.006804     -0.009936      0.005763
 -----------------------------------------------------------------------------------
    total drift:                               -0.009697      0.039719     -0.015169


--------------------------------------------------------------------------------------------------------



  FREE ENERGIE OF THE ION-ELECTRON SYSTEM (eV)
  ---------------------------------------------------
  free  energy   TOTEN  =      -162.21922759 eV

  energy  without entropy=     -162.21922759  energy(sigma->0) =     -162.21922759
 
 d Force = 0.2132310E-03[-0.143E-05, 0.428E-03]  d Energy = 0.2307551E-03-0.175E-04
 d Force = 0.1071433E+01[ 0.107E+01, 0.107E+01]  d Ewald  = 0.1071433E+01 0.608E-06


--------------------------------------------------------------------------------------------------------


    --------------------------------------------
      INIT:  cpu time      0.1162: real time      0.1162
  FINALIZE:  cpu time     44.5558: real time     44.5579
    --------------------------------------------
    POTLOK:  cpu time     50.5079: real time     50.5100


--------------------------------------------------------------------------------------------------------




--------------------------------------------------------------------------------------------------------


  
 reached required accuracy - stopping structural energy minimisation
 writing wavefunctions
     LOOP+:  cpu time    267.5675: real time    268.0127
    4ORBIT:  cpu time      0.0000: real time      0.0000

 total amount of memory used by VASP MPI-rank0   181767. kBytes
=======================================================================

   base      :      30000. kBytes
   nonlr-proj:       1528. kBytes
   fftplans  :      38189. kBytes
   grid      :     103575. kBytes
   one-center:         12. kBytes
   wavefun   :       8463. kBytes
 
  
  
 General timing and accounting informations for this job:
 ========================================================
  
                  Total CPU time used (sec):     1833.449
                            User time (sec):      935.615
                          System time (sec):      897.833
                         Elapsed time (sec):     1835.142
  
                   Maximum memory used (kb):      797360.
                   Average memory used (kb):          N/A
  
                          Minor page faults:      7355498
                          Major page faults:            0
                 Voluntary context switches:         4447
