
                                 *****************
                                 * O   R   C   A *
                                 *****************

                                            #,                                       
                                            ###                                      
                                            ####                                     
                                            #####                                    
                                            ######                                   
                                           ########,                                 
                                     ,,################,,,,,                         
                               ,,#################################,,                 
                          ,,##########################################,,             
                       ,#########################################, ''#####,          
                    ,#############################################,,   '####,        
                  ,##################################################,,,,####,       
                ,###########''''           ''''###############################       
              ,#####''   ,,,,##########,,,,          '''####'''          '####       
            ,##' ,,,,###########################,,,                        '##       
           ' ,,###''''                  '''############,,,                           
         ,,##''                                '''############,,,,        ,,,,,,###''
      ,#''                                            '''#######################'''  
     '                                                          ''''####''''         
             ,#######,   #######,   ,#######,      ##                                
            ,#'     '#,  ##    ##  ,#'     '#,    #''#        ,####,   ,####,        
            ##       ##  ##   ,#'  ##            #'  '#       #'       #'  '#        
            ##       ##  #######   ##           ,######,      #####,   #    #        
            '#,     ,#'  ##    ##  '#,     ,#' ,#      #,     #,   #   #,  ,#        
             '#######'   ##     ##  '#######'  #'      '#     '####' # '####'        



                #########################################################
                #                        -***-                          #
                #          Department of theory and spectroscopy        #
                #                                                       #
                #                      Frank Neese                      #
                #                                                       #
                #     Directorship, Architecture, Infrastructure        #
                #                    SHARK, DRIVERS                     #
                #        Core code/Algorithms in most modules           #
                #                                                       #
                #        Max Planck Institute fuer Kohlenforschung      #
                #                Kaiser Wilhelm Platz 1                 #
                #                 D-45470 Muelheim/Ruhr                 #
                #                      Germany                          #
                #                                                       #
                #                  All rights reserved                  #
                #                        -***-                          #
                #########################################################


                         Program Version 6.0.0  -   RELEASE  -


 With contributions from (in alphabetic order):
   Daniel Aravena         : Magnetic Suceptibility
   Michael Atanasov       : Ab Initio Ligand Field Theory (pilot matlab implementation)
   Alexander A. Auer      : GIAO ZORA, VPT2 properties, NMR spectrum
   Ute Becker             : All parallelization in ORCA, NUMFREQ, NUMCALC
   Giovanni Bistoni       : ED, misc. LED, open-shell LED, HFLD
   Martin Brehm           : Molecular dynamics
   Dmytro Bykov           : pre 5.0 version of the SCF Hessian
   Marcos Casanova-Páez   : Triplet and SCS-CIS(D). UHF-(DLPNO)-IP/EA/STEOM-CCSD. UHF-CVS-IP/STEOM-CCSD
   Vijay G. Chilkuri      : MRCI spin determinant printing, contributions to CSF-ICE
   Pauline Colinet        : FMM embedding
   Dipayan Datta          : RHF DLPNO-CCSD density
   Achintya Kumar Dutta   : EOM-CC, STEOM-CC
   Nicolas Foglia         : Exact transition moments, OPA infrastructure, MCD improvements
   Dmitry Ganyushin       : Spin-Orbit,Spin-Spin,Magnetic field MRCI
   Miquel Garcia          : C-PCM and meta-GGA Hessian, CCSD/C-PCM, Gaussian charge scheme
   Tiago L. C. Gouveia    : GS-ROHF, GS-ROCIS
   Yang Guo               : DLPNO-NEVPT2, F12-NEVPT2, CIM, IAO-localization
   Andreas Hansen         : Spin unrestricted coupled pair/coupled cluster methods
   Ingolf Harden          : AUTO-CI MPn and infrastructure 
   Benjamin Helmich-Paris : MC-RPA, TRAH-(SCF,CASSCF), AVAS, COSX integrals, SCF dyn. polar.
   Lee Huntington         : MR-EOM, pCC
   Robert Izsak           : Overlap fitted RIJCOSX, COSX-SCS-MP3, EOM
   Riya Kayal             : Wick's Theorem for AUTO-CI, AUTO-CI UHF-CCSDT
   Emily Kempfer          : AUTO-CI, RHF CISDT and CCSDT
   Christian Kollmar      : KDIIS, OOCD, Brueckner-CCSD(T), CCSD density, CASPT2, CASPT2-K, improved NEVPT2
   Axel Koslowski         : Symmetry handling
   Simone Kossmann        : Meta GGA functionals, TD-DFT gradient, OOMP2, (MP2 Hessian; deprecated post 5.0)
   Lucas Lang             : DCDCAS
   Marvin Lechner         : AUTO-CI (C++ implementation), FIC-MRCC
   Spencer Leger          : CASSCF response
   Dagmar Lenk            : GEPOL surface, SMD, ORCA-2-JSON
   Dimitrios Liakos       : Extrapolation schemes; Compound Job, initial MDCI parallelization
   Dimitrios Manganas     : Further ROCIS development; embedding schemes. LFT, Crystal Embedding
   Dimitrios Pantazis     : SARC Basis sets
   Anastasios Papadopoulos: AUTO-CI, single reference methods and gradients
   Taras Petrenko         : pre 6.0 DFT Hessian and TD-DFT gradient, (ASA, deprecated), ECA, 1-Electron XAS/XES, NRVS
   Peter Pinski           : DLPNO-MP2, DLPNO-MP2 Gradient
   Christoph Reimann      : Effective Core Potentials
   Marius Retegan         : Local ZFS, SOC
   Christoph Riplinger    : Optimizer, TS searches, QM/MM, DLPNO-CCSD(T), (RO)-DLPNO pert. Triples
   Michael Roemelt        : Original ROCIS implementation
   Masaaki Saitow         : Open-shell DLPNO-CCSD energy and density
   Barbara Sandhoefer     : DKH picture change effects
   Kantharuban Sivalingam : CASSCF convergence/infrastructure, NEVPT2 and variants, FIC-MRCI
   Bernardo de Souza      : ESD, SOC TD-DFT
   Georgi Stoychev        : AutoAux, RI-MP2 NMR, DLPNO-MP2 response, X2C
   Van Anh Tran           : RI-MP2 g-tensors
   Willem Van den Heuvel  : Paramagnetic NMR
   Zikuan Wang            : NOTCH, Electric field optimization 
   Frank Wennmohs         : Technical directorship and infrastructure
   Hang Xu                : AUTO-CI-Response properties 


 We gratefully acknowledge several colleagues who have allowed us to
 interface, adapt or use parts of their codes:
   Stefan Grimme, W. Hujo, H. Kruse, P. Pracht,  : VdW corrections, initial TS optimization,
                  C. Bannwarth, S. Ehlert,         DFT functionals, gCP, sTDA/sTD-DF
                  L. Wittmann, M. Mueller
   Ed Valeev, F. Pavosevic, A. Kumar             : LibInt (2-el integral package), F12 methods
   Garnet Chan, S. Sharma, J. Yang, R. Olivares  : DMRG
   Ulf Ekstrom                                   : XCFun DFT Library
   Mihaly Kallay                                 : mrcc  (arbitrary order and MRCC methods)
   Frank Weinhold                                : gennbo (NPA and NBO analysis)
   Simon Mueller                                 : openCOSMO-RS
   Christopher J. Cramer and Donald G. Truhlar   : smd solvation model
   Lars Goerigk                                  : TD-DFT with DH, B97 family of functionals
   V. Asgeirsson, H. Jonsson                     : NEB implementation
   FAccTs GmbH                                   : IRC, NEB, NEB-TS, DLPNO-Multilevel, CI-OPT
                                                   MM, QMMM, 2- and 3-layer-ONIOM, Crystal-QMMM,
                                                   LR-CPCM, SF, NACMEs, symmetry and pop. for TD-DFT,
                                                   nearIR, NL-DFT gradient (VV10), updates on ESD,
                                                   ML-optimized integration grids, MBIS, APM,
                                                   GOAT, DOCKER, SOLVATOR, interface openCOSMO-RS
   S Lehtola, MJT Oliveira, MAL Marques          : LibXC Library
   Liviu Ungur et al                             : ANISO software


 Your calculation uses the libint2 library for the computation of 2-el integrals
 For citations please refer to: http://libint.valeyev.net

 Your ORCA version has been built with support for libXC version: 6.2.2
 For citations please refer to: https://libxc.gitlab.io

 This ORCA versions uses:
   CBLAS   interface :  Fast vector & matrix operations
   LAPACKE interface :  Fast linear algebra routines
   SCALAPACK package :  Parallel linear algebra routines
   Shared memory     :  Shared parallel matrices
   BLAS/LAPACK       :  OpenBLAS 0.3.27  USE64BITINT DYNAMIC_ARCH NO_AFFINITY Sandybridge SINGLE_THREADED
        Core in use  :  Sandybridge
   Copyright (c) 2011-2014, The OpenBLAS Project


NOTE: MaxCore=5000 MB was set to SCF,MP2,MDCI,CIPSI,MRCI and CIS
      => If you want to overwrite this, your respective input block should be placed after the MaxCore statement
Your calculation utilizes the atom-pairwise dispersion correction
with the Becke-Johnson damping scheme (D3BJ)


Your calculation utilizes the SMD solvation module
Please cite in your paper:
A.V. Marenich, C.J. Cramer, D.G. Truhlar J. Phys. Chem. B, 113, (2009), 6378 

Warning: RI is on but no J-basis has been assigned. Assigning Def2/J (nothing to worry about!)
================================================================================

----- Orbital basis set information -----
Your calculation utilizes the basis: aug-cc-pVTZ 
    H, B-Ne : Obtained from the ccRepo (grant-hill.group.shef.ac.uk/ccrepo) Feb. 2017
              R. A. Kendall, T. H. Dunning, Jr., R. J. Harrison, J. Chem. Phys. 96, 6796 (1992)
         He : Obtained from the ccRepo (grant-hill.group.shef.ac.uk/ccrepo) Feb. 2017
              D. E. Woon, T. H. Dunning, Jr., J. Chem. Phys. 100, 2975 (1994)
  Li-Be, Na : Obtained from the ccRepo (grant-hill.group.shef.ac.uk/ccrepo) Feb. 2017
              B. P. Prascher, D. E. Woon, K. A. Peterson, T. H. Dunning, Jr., A. K. Wilson, Theor. Chem. Acc. 128, 69 (2011)
         Mg : Obtained from the Peterson Research Group Website (tyr0.chem.wsu.edu/~kipeters) Feb. 2017
              B. P. Prascher, D. E. Woon, K. A. Peterson, T. H. Dunning, Jr., A. K. Wilson, Theor. Chem. Acc. 128, 69 (2011)
      Al-Ar : Obtained from the ccRepo (grant-hill.group.shef.ac.uk/ccrepo) Feb. 2017
              D. E. Woon, T. H. Dunning, Jr., J. Chem. Phys. 98, 1358 (1993)
      Sc-Zn : Obtained from the ccRepo (grant-hill.group.shef.ac.uk/ccrepo) Feb. 2017
              N. B. Balabanov, K. A. Peterson, J. Chem. Phys. 123, 064107 (2005)
              N. B. Balabanov, K. A. Peterson, J. Chem. Phys. 125, 074110 (2006)
      Ga-Kr : Obtained from the ccRepo (grant-hill.group.shef.ac.uk/ccrepo) Feb. 2017
              A. K. Wilson, D. E. Woon, K. A. Peterson, T. H. Dunning, Jr., J. Chem. Phys. 110, 7667 (1999)
     Ag, Au : Obtained from the Peterson Research Group Website (tyr0.chem.wsu.edu/~kipeters) Feb. 2017
              K. A. Peterson, C. Puzzarini, Theor. Chem. Acc. 114, 283 (2005)

----- AuxJ basis set information -----
Your calculation utilizes the auxiliary basis: def2/J
   F. Weigend, Phys. Chem. Chem. Phys. 8, 1057 (2006).

================================================================================
                                        WARNINGS
                       Please study these warnings very carefully!
================================================================================

Using LibXC functional ID 497 : Re-regularized SCAN exchange by Furness et al
[ 1]  J. W. Furness, A. D. Kaplan, J. Ning, J. P. Perdew, and J. Sun.,  J. Phys. Chem. Lett. 11, 8208-8215 (2020)
[ 2]  J. W. Furness, A. D. Kaplan, J. Ning, J. P. Perdew, and J. Sun.,  J. Phys. Chem. Lett. 11, 9248-9248 (2020)
Using LibXC functional ID 498 : Re-regularized SCAN correlation by Furness et al
[ 1]  J. W. Furness, A. D. Kaplan, J. Ning, J. P. Perdew, and J. Sun.,  J. Phys. Chem. Lett. 11, 8208-8215 (2020)
[ 2]  J. W. Furness, A. D. Kaplan, J. Ning, J. P. Perdew, and J. Sun.,  J. Phys. Chem. Lett. 11, 9248-9248 (2020)
Using LibXC functional ID 497 : Re-regularized SCAN exchange by Furness et al
[ 1]  J. W. Furness, A. D. Kaplan, J. Ning, J. P. Perdew, and J. Sun.,  J. Phys. Chem. Lett. 11, 8208-8215 (2020)
[ 2]  J. W. Furness, A. D. Kaplan, J. Ning, J. P. Perdew, and J. Sun.,  J. Phys. Chem. Lett. 11, 9248-9248 (2020)
Using LibXC functional ID 498 : Re-regularized SCAN correlation by Furness et al
[ 1]  J. W. Furness, A. D. Kaplan, J. Ning, J. P. Perdew, and J. Sun.,  J. Phys. Chem. Lett. 11, 8208-8215 (2020)
[ 2]  J. W. Furness, A. D. Kaplan, J. Ning, J. P. Perdew, and J. Sun.,  J. Phys. Chem. Lett. 11, 9248-9248 (2020)


WARNING: Found flag for RIJCOSX approximation but no HF exchange needed!
  ===> : RIJCOSX  will be disabled and Split-RI-J is turned on

================================================================================
                                       INPUT FILE
================================================================================
NAME = cs_rporg_015_red_freq_06.inp
|  1> !r2SCAN freq aug-cc-pVTZ d3 TightSCF SlowConv RIJCOSX defgrid2
|  2> 
|  3> %pal
|  4> nprocs 12
|  5> end
|  6> 
|  7> %scf
|  8> MaxIter 1500
|  9> end
| 10> 
| 11> %maxcore 5000
| 12> 
| 13> !CPCM
| 14> %cpcm smd true
| 15> SMDsolvent "MeCN"
| 16> surfacetype gepol_ses
| 17> rsolv 2.19
| 18> end 
| 19> 
| 20> * xyz 0 1
| 21> C           2.39799904774097     -0.84170475013996      0.66406186184395
| 22> C           1.27130253107814     -0.39260604914774     -0.03534333457165
| 23> C           1.38288684509620      0.77897078387100     -0.79507492654858
| 24> C           2.58785637187567      1.46565656385727     -0.87059517869341
| 25> C           3.70206262570835      1.00446509840193     -0.17559128812917
| 26> C           3.60115478910062     -0.15051916781221      0.59414887047724
| 27> H           4.45913094691557     -0.50890785498132      1.15109179288271
| 28> H           4.63936521203849      1.54579130160377     -0.22693072274349
| 29> H           2.65686826982401      2.36366188403640     -1.47348014698033
| 30> H           0.52193686267628      1.14468073127389     -1.34241840189250
| 31> C          -0.00000891725154     -1.15255927902960      0.00013134891559
| 32> C           0.00003883193952     -2.49486069605219      0.00007775196521
| 33> H          -0.92264564046574     -3.05824706412729      0.06617450497562
| 34> H           0.92276553225265     -3.05817249407437     -0.06609371056772
| 35> C          -1.27136215764240     -0.39267921887755      0.03555096372824
| 36> C          -2.39793214639787     -0.84165577106647     -0.66412172785698
| 37> C          -3.60104711114163     -0.15036935348116     -0.59446331435686
| 38> C          -3.70204116483577      1.00460436363500      0.17527368647783
| 39> C          -2.58798593716891      1.46563725530105      0.87060932343335
| 40> C          -1.38310665933081      0.77880314275481      0.79536382775196
| 41> H          -0.52234149854255      1.14427651909681      1.34314395752249
| 42> H          -2.65705336033089      2.36360671528818      1.47354062699638
| 43> H          -4.63929835356913      1.54603177658647      0.22637667217744
| 44> H          -4.45892150504286     -0.50867216442773     -1.15161894760940
| 45> H          -2.32087101818649     -1.72897490068561     -1.28160622725007
| 46> H           2.32101750366014     -1.72905137180337      1.28151623805214
| 47> *
| 48> 
| 49>                          ****END OF INPUT****
================================================================================

                       ****************************
                       * Single Point Calculation *
                       ****************************

---------------------------------
CARTESIAN COORDINATES (ANGSTROEM)
---------------------------------
  C      2.397999   -0.841705    0.664062
  C      1.271303   -0.392606   -0.035343
  C      1.382887    0.778971   -0.795075
  C      2.587856    1.465657   -0.870595
  C      3.702063    1.004465   -0.175591
  C      3.601155   -0.150519    0.594149
  H      4.459131   -0.508908    1.151092
  H      4.639365    1.545791   -0.226931
  H      2.656868    2.363662   -1.473480
  H      0.521937    1.144681   -1.342418
  C     -0.000009   -1.152559    0.000131
  C      0.000039   -2.494861    0.000078
  H     -0.922646   -3.058247    0.066175
  H      0.922766   -3.058172   -0.066094
  C     -1.271362   -0.392679    0.035551
  C     -2.397932   -0.841656   -0.664122
  C     -3.601047   -0.150369   -0.594463
  C     -3.702041    1.004604    0.175274
  C     -2.587986    1.465637    0.870609
  C     -1.383107    0.778803    0.795364
  H     -0.522341    1.144277    1.343144
  H     -2.657053    2.363607    1.473541
  H     -4.639298    1.546032    0.226377
  H     -4.458922   -0.508672   -1.151619
  H     -2.320871   -1.728975   -1.281606
  H      2.321018   -1.729051    1.281516

----------------------------
CARTESIAN COORDINATES (A.U.)
----------------------------
  NO LB      ZA    FRAG     MASS         X           Y           Z
   0 C     6.0000    0    12.011    4.531561   -1.590591    1.254895
   1 C     6.0000    0    12.011    2.402414   -0.741918   -0.066789
   2 C     6.0000    0    12.011    2.613277    1.472041   -1.502474
   3 C     6.0000    0    12.011    4.890340    2.769690   -1.645186
   4 C     6.0000    0    12.011    6.995884    1.898164   -0.331819
   5 C     6.0000    0    12.011    6.805196   -0.284440    1.122779
   6 H     1.0000    0     1.008    8.426536   -0.961696    2.175248
   7 H     1.0000    0     1.008    8.767130    2.921122   -0.428837
   8 H     1.0000    0     1.008    5.020753    4.466674   -2.784474
   9 H     1.0000    0     1.008    0.986318    2.163133   -2.536803
  10 C     6.0000    0    12.011   -0.000017   -2.178021    0.000248
  11 C     6.0000    0    12.011    0.000073   -4.714603    0.000147
  12 H     1.0000    0     1.008   -1.743548   -5.779249    0.125052
  13 H     1.0000    0     1.008    1.743774   -5.779108   -0.124899
  14 C     6.0000    0    12.011   -2.402526   -0.742056    0.067182
  15 C     6.0000    0    12.011   -4.531435   -1.590499   -1.255008
  16 C     6.0000    0    12.011   -6.804993   -0.284157   -1.123373
  17 C     6.0000    0    12.011   -6.995844    1.898427    0.331219
  18 C     6.0000    0    12.011   -4.890585    2.769653    1.645213
  19 C     6.0000    0    12.011   -2.613693    1.471725    1.503020
  20 H     1.0000    0     1.008   -0.987082    2.162369    2.538174
  21 H     1.0000    0     1.008   -5.021103    4.466569    2.784588
  22 H     1.0000    0     1.008   -8.767003    2.921577    0.427790
  23 H     1.0000    0     1.008   -8.426140   -0.961251   -2.176244
  24 H     1.0000    0     1.008   -4.385811   -3.267289   -2.421885
  25 H     1.0000    0     1.008    4.386087   -3.267434    2.421715

--------------------------------
INTERNAL COORDINATES (ANGSTROEM)
--------------------------------
 C      0   0   0     0.000000000000     0.00000000     0.00000000
 C      1   0   0     1.400107964646     0.00000000     0.00000000
 C      2   1   0     1.400798139151   118.36564450     0.00000000
 C      3   2   1     1.388953645514   120.80284578     1.06640881
 C      4   3   2     1.391827414512   120.23340987   359.23346061
 C      1   2   3     1.389319644123   120.80887593   359.28867159
 H      6   1   2     1.083859288509   119.68043300   179.38000009
 H      5   4   3     1.083607832272   120.21582786   180.60067381
 H      4   3   2     1.083811091526   119.67762996   179.26127224
 H      3   2   1     1.083772816535   119.52825860   180.11873494
 C      2   1   3     1.481560043815   120.93270328   178.60855807
 C     11   2   1     1.342301418942   120.85784169   322.53021684
 H     12  11   2     1.083106465731   121.34064624   177.50099897
 H     12  11   2     1.083108216069   121.34036425   357.49917235
 C     11   2   1     1.481557058227   118.28334147   142.53528323
 C     15  11   2     1.400100624716   120.93427097   142.51647398
 C     16  15  11     1.389321713679   120.80901801   177.91044889
 C     17  16  15     1.391639010866   120.23387350     0.05538187
 C     18  17  16     1.391819681392   119.54803851     0.26090774
 C     19  18  17     1.388933784218   120.23146487     0.08954908
 H     20  19  18     1.083766820591   119.65953350   180.19592000
 H     19  18  17     1.083810692339   120.09011040   180.06274005
 H     18  17  16     1.083607953309   120.23421194   179.74951025
 H     17  16  15     1.083859667904   119.68005655   179.37983845
 H     16  15  11     1.083771545235   119.34435248   356.72222206
 H      1   2   3     1.083771235919   119.34481684   178.10212725

---------------------------
INTERNAL COORDINATES (A.U.)
---------------------------
 C      0   0   0     0.000000000000     0.00000000     0.00000000
 C      1   0   0     2.645820611104     0.00000000     0.00000000
 C      2   1   0     2.647124851902   118.36564450     0.00000000
 C      3   2   1     2.624742002733   120.80284578     1.06640881
 C      4   3   2     2.630172639112   120.23340987   359.23346061
 C      1   2   3     2.625433639870   120.80887593   359.28867159
 H      6   1   2     2.048197222989   119.68043300   179.38000009
 H      5   4   3     2.047722039566   120.21582786   180.60067381
 H      4   3   2     2.048106143890   119.67762996   179.26127224
 H      3   2   1     2.048033814639   119.52825860   180.11873494
 C      2   1   3     2.799742733772   120.93270328   178.60855807
 C     11   2   1     2.536582070974   120.85784169   322.53021684
 H     12  11   2     2.046774594112   121.34064624   177.50099897
 H     12  11   2     2.046777901770   121.34036425   357.49917235
 C     11   2   1     2.799737091827   118.28334147   142.53528323
 C     15  11   2     2.645806740645   120.93427097   142.51647398
 C     16  15  11     2.625437550763   120.80901801   177.91044889
 C     17  16  15     2.629816607818   120.23387350     0.05538187
 C     18  17  16     2.630158025632   119.54803851     0.26090774
 C     19  18  17     2.624704470322   120.23146487     0.08954908
 H     20  19  18     2.048022483947   119.65953350   180.19592000
 H     19  18  17     2.048105389536   120.09011040   180.06274005
 H     18  17  16     2.047722268293   120.23421194   179.74951025
 H     17  16  15     2.048197939941   119.68005655   179.37983845
 H     16  15  11     2.048031412230   119.34435248   356.72222206
 H      1   2   3     2.048030827708   119.34481684   178.10212725

---------------------
BASIS SET INFORMATION
---------------------
There are 2 groups of distinct atoms

 Group   1 Type C   : 19s6p3d2f contracted to 5s4p3d2f pattern {88111/3111/111/11}
 Group   2 Type H   : 6s3p2d contracted to 4s3p2d pattern {3111/111/11}

Atom   0C    basis set group =>   1
Atom   1C    basis set group =>   1
Atom   2C    basis set group =>   1
Atom   3C    basis set group =>   1
Atom   4C    basis set group =>   1
Atom   5C    basis set group =>   1
Atom   6H    basis set group =>   2
Atom   7H    basis set group =>   2
Atom   8H    basis set group =>   2
Atom   9H    basis set group =>   2
Atom  10C    basis set group =>   1
Atom  11C    basis set group =>   1
Atom  12H    basis set group =>   2
Atom  13H    basis set group =>   2
Atom  14C    basis set group =>   1
Atom  15C    basis set group =>   1
Atom  16C    basis set group =>   1
Atom  17C    basis set group =>   1
Atom  18C    basis set group =>   1
Atom  19C    basis set group =>   1
Atom  20H    basis set group =>   2
Atom  21H    basis set group =>   2
Atom  22H    basis set group =>   2
Atom  23H    basis set group =>   2
Atom  24H    basis set group =>   2
Atom  25H    basis set group =>   2
---------------------------------
AUXILIARY/J BASIS SET INFORMATION
---------------------------------
There are 2 groups of distinct atoms

 Group   1 Type C   : 12s5p4d2f1g contracted to 6s4p3d1f1g pattern {711111/2111/211/2/1}
 Group   2 Type H   : 5s2p1d contracted to 3s1p1d pattern {311/2/1}

Atom   0C    basis set group =>   1
Atom   1C    basis set group =>   1
Atom   2C    basis set group =>   1
Atom   3C    basis set group =>   1
Atom   4C    basis set group =>   1
Atom   5C    basis set group =>   1
Atom   6H    basis set group =>   2
Atom   7H    basis set group =>   2
Atom   8H    basis set group =>   2
Atom   9H    basis set group =>   2
Atom  10C    basis set group =>   1
Atom  11C    basis set group =>   1
Atom  12H    basis set group =>   2
Atom  13H    basis set group =>   2
Atom  14C    basis set group =>   1
Atom  15C    basis set group =>   1
Atom  16C    basis set group =>   1
Atom  17C    basis set group =>   1
Atom  18C    basis set group =>   1
Atom  19C    basis set group =>   1
Atom  20H    basis set group =>   2
Atom  21H    basis set group =>   2
Atom  22H    basis set group =>   2
Atom  23H    basis set group =>   2
Atom  24H    basis set group =>   2
Atom  25H    basis set group =>   2


           ************************************************************
           *        Program running with 12 parallel MPI-processes    *
           *              working on a common directory               *
           ************************************************************
------------------------------------------------------------------------------
                             ORCA STARTUP CALCULATIONS
                           -- RI-GTO INTEGRALS CHOSEN --
------------------------------------------------------------------------------
------------------------------------------------------------------------------
                   ___                                                        
                  /   \      - P O W E R E D   B Y -                         
                 /     \                                                     
                 |  |  |   _    _      __       _____    __    __             
                 |  |  |  | |  | |    /  \     |  _  \  |  |  /  |          
                  \  \/   | |  | |   /    \    | | | |  |  | /  /          
                 / \  \   | |__| |  /  /\  \   | |_| |  |  |/  /          
                |  |  |   |  __  | /  /__\  \  |    /   |      \           
                |  |  |   | |  | | |   __   |  |    \   |  |\   \          
                \     /   | |  | | |  |  |  |  | |\  \  |  | \   \       
                 \___/    |_|  |_| |__|  |__|  |_| \__\ |__|  \__/        
                                                                              
                      - O R C A' S   B I G   F R I E N D -                    
                                      &                                       
                       - I N T E G R A L  F E E D E R -                       
                                                                              
 v1 FN, 2020, v2 2021, v3 2022-2024                                           
------------------------------------------------------------------------------


----------------------
SHARK INTEGRAL PACKAGE
----------------------

Number of atoms                             ...     26
Number of basis functions                   ...   1004
Number of shells                            ...    388
Maximum angular momentum                    ...      3
Integral batch strategy                     ... SHARK/LIBINT Hybrid
RI-J (if used) integral strategy            ... SPLIT-RIJ (Revised 2003 algorithm where possible)
Printlevel                                  ...      1
Contraction scheme used                     ... PARTIAL GENERAL contraction
Prescreening option                         ... SCHWARTZ
   Thresh                                   ... 2.500e-11
   Tcut                                     ... 2.500e-12
   Tpresel                                  ... 2.500e-12 
Coulomb Range Separation                    ... NOT USED
Exchange Range Separation                   ... NOT USED
Multipole approximations                    ... NOT USED
Finite Nucleus Model                        ... NOT USED
CABS basis                                  ... NOT available
Auxiliary Coulomb fitting basis             ... AVAILABLE
   # of basis functions in Aux-J            ...    818
   # of shells in Aux-J                     ...    270
   Maximum angular momentum in Aux-J        ...      4
Auxiliary J/K fitting basis                 ... NOT available
Auxiliary Correlation fitting basis         ... NOT available
Auxiliary 'external' fitting basis          ... NOT available

Checking pre-screening integrals            ... done (  0.1 sec) Dimension = 388
Save PGC pre-screening integrals            ... done (  0.1 sec) Dimension = 388
Calculate PGC overlap integrals             ... done (  0.2 sec) Dimension = 304
Calculating pre-screening integrals (ORCA)  ... done (  0.3 sec) Dimension = 304
Check shell pair data                       ... done (  0.0 sec)
Shell pair information
Shell pair cut-off parameter TPreSel        ...   2.5e-12
Total number of shell pairs                 ...     75466
Shell pairs after pre-screening             ...     58829
Total number of primitive shell pairs       ...     97098
Primitive shell pairs kept                  ...     69589
          la=0 lb=0:  13151 shell pairs
          la=1 lb=0:  15080 shell pairs
          la=1 lb=1:   3852 shell pairs
          la=2 lb=0:  10410 shell pairs
          la=2 lb=1:   5388 shell pairs
          la=2 lb=2:   1931 shell pairs
          la=3 lb=0:   4614 shell pairs
          la=3 lb=1:   2346 shell pairs
          la=3 lb=2:   1678 shell pairs
          la=3 lb=3:    379 shell pairs

Calculating one electron integrals          ... done (  0.1 sec)
Calculating RI/J V-Matrix + Cholesky decomp.... done (  0.1 sec)
Calculating Nuclear repulsion               ... done (  0.0 sec) ENN=    775.895731215431 Eh

Diagonalization of the overlap matrix:
Smallest eigenvalue                        ... 3.381e-07
Time for diagonalization                   ...    0.285 sec
Threshold for overlap eigenvalues          ... 1.000e-07
Number of eigenvalues below threshold      ... 0

IMPORTANT:
Smallest eigenvalue of S below the DiffSThresh (1.000e-06) while
Thresh>1e-12 and/or TCut>1e-13! In order to avoid SCF convergence issues,
Thresh will be set to at least 1e-12 and TCut to at least 1e-13.
This can be turned off by adding %SCF DiffSThresh -1 END to the input.

Time for construction of square roots      ...    0.207 sec
Total time needed                          ...    0.546 sec

-------------------
DFT GRID GENERATION
-------------------

General Integration Accuracy     IntAcc      ... 4.388
Radial Grid Type                 RadialGrid  ... OptM3 with GC (2021)
Angular Grid (max. ang.)         AngularGrid ... 4 (Lebedev-302)
Angular grid pruning method      GridPruning ... 4 (adaptive)
Weight generation scheme         WeightScheme... mBecke (2022)
Basis function cutoff            BFCut       ... 1.0000e-11
Integration weight cutoff        WCut        ... 1.0000e-14
Partially contracted basis set               ... off
Rotationally invariant grid construction     ... off
Angular grids for H and He will be reduced by one unit
Diffuse basis detected: some atoms will have their outermost
                        angular grid increased by 1.

Total number of grid points                  ...   127939
Total number of batches                      ...     2015
Average number of points per batch           ...       63
Average number of grid points per atom       ...     4921

---------------------
SHARK GRID GENERATION
---------------------

General Integration Accuracy     IntAcc      ... 4.388
Radial Grid Type                 RadialGrid  ... OptM3 with GC (2021)
Angular Grid (max. ang.)         AngularGrid ... 4 (Lebedev-302)
Angular grid pruning method      GridPruning ... 4 (adaptive)
Weight generation scheme         WeightScheme... mBecke (2022)
Basis function cutoff            BFCut       ... 1.0000e-11
Integration weight cutoff        WCut        ... 1.0000e-14
Partially contracted basis set               ... off
Rotationally invariant grid construction     ... off
Angular grids for H and He will be reduced by one unit
Diffuse basis detected: some atoms will have their outermost
                        angular grid increased by 1.
Steep s-basis detected: some atoms will have their radial
                        grid points doubled.

Total number of grid points                  ...   215520
Total number of batches                      ...     3379
Average number of points per batch           ...       63
Average number of grid points per atom       ...     8289
Initializing property integral containers    ... done (  0.1 sec)

SHARK setup successfully completed in   7.3 seconds

Maximum memory used throughout the entire STARTUP-calculation: 107.5 MB


           ************************************************************
           *        Program running with 12 parallel MPI-processes    *
           *              working on a common directory               *
           ************************************************************
-------------------------------------------------------------------------------
                                 ORCA GUESS
                   Start orbitals & Density for SCF / CASSCF
-------------------------------------------------------------------------------

------------
SCF SETTINGS
------------
Hamiltonian:
 Density Functional     Method          .... DFT(GTOs)
  Functional kind                       .... Exchange
  Functional name                       .... Re-regularized SCAN exchange by Furness et al
  Functional family                     .... MGGA
  Functional refs                              
    [ 0] J. W. Furness, A. D. Kaplan, J. Ning, J. P. Perdew, and J. Sun.,  J. Phys. Chem. Lett. 11, 8208-8215 (2020), doi: 10.1021/acs.jpclett.0c02405
    [ 1] J. W. Furness, A. D. Kaplan, J. Ning, J. P. Perdew, and J. Sun.,  J. Phys. Chem. Lett. 11, 9248-9248 (2020), doi: 10.1021/acs.jpclett.0c03077
  Functional external parameters        .... 6
    Parameter  0 _c1        =  6.670000e-01 : c1 parameter        
    Parameter  1 _c2        =  8.000000e-01 : c2 parameter        
    Parameter  2 _d         =  1.240000e+00 : d parameter         
    Parameter  3 _k1        =  6.500000e-02 : k1 parameter        
    Parameter  4 _eta       =  1.000000e-03 : eta parameter       
    Parameter  5 _dp2       =  3.610000e-01 : dp2 parameter       
  Functional kind                       .... Correlation
  Functional name                       .... Re-regularized SCAN correlation by Furness et al
  Functional family                     .... MGGA
  Functional refs                              
    [ 0] J. W. Furness, A. D. Kaplan, J. Ning, J. P. Perdew, and J. Sun.,  J. Phys. Chem. Lett. 11, 8208-8215 (2020), doi: 10.1021/acs.jpclett.0c02405
    [ 1] J. W. Furness, A. D. Kaplan, J. Ning, J. P. Perdew, and J. Sun.,  J. Phys. Chem. Lett. 11, 9248-9248 (2020), doi: 10.1021/acs.jpclett.0c03077
  Functional external parameters        .... 1
    Parameter  0 _eta       =  1.000000e-03 : Regularization parameter
 Gradients option       PostSCFGGA      .... off
   NL short-range parameter             .... 12.300000
 RI-approximation to the Coulomb term is turned on
   Number of AuxJ basis functions       .... 818


General Settings:
 Integral files         IntName         .... cs_rporg_015_red_freq_06
 Hartree-Fock type      HFTyp           .... RHF
 Total Charge           Charge          ....    0
 Multiplicity           Mult            ....    1
 Number of Electrons    NEL             ....   96
 Basis Dimension        Dim             ....  920
 Nuclear Repulsion      ENuc            ....    775.8957312154 Eh

Convergence Acceleration:
 AO-DIIS                CNVDIIS         .... on
   Start iteration      DIISMaxIt       ....     0
   Startup error        DIISStart       ....  0.200000
   # of expansion vecs  DIISMaxEq       ....     5
   Bias factor          DIISBfac        ....   1.050
   Max. coefficient     DIISMaxC        ....  10.000
 MO-DIIS                CNVKDIIS        .... off
 Trust-Rad. Augm. Hess. CNVTRAH         .... auto
   Auto Start mean grad. ratio tolernc. ....  1.125000
   Auto Start start iteration           ....    50
   Auto Start num. interpolation iter.  ....    10
   Max. Number of Micro iterations      ....    24
   Max. Number of Macro iterations      .... Maxiter - #DIIS iter
   Number of Davidson start vectors     ....     2
   Converg. threshold    (grad. norm)   ....   1.000e-05
   Grad. Scal. Fac. for Micro threshold ....   0.100
   Minimum threshold for Micro iter.    ....   1.000e-02
   NR start threshold (gradient norm)   ....   1.000e-04
   Initial trust radius                 ....   0.400
   Minimum AH scaling param. (alpha)    ....   1.000
   Maximum AH scaling param. (alpha)    .... 1000.000
   Quad. conv. algorithm                .... NR
   White noise on init. David. guess    .... on
   Maximum white noise                  ....   0.010
   Pseudo random numbers                .... off
   Inactive MOs                         .... canonical
   Orbital update algorithm             .... Taylor
   Preconditioner                       .... Diag
   Full preconditioner red. dimension   ....   250
 SOSCF                  CNVSOSCF        .... on
   Start iteration      SOSCFMaxIt      ....   150
   Startup grad/error   SOSCFStart      ....  0.001000
   Hessian update       SOSCFHessUp     .... L-BFGS
 Level Shifting         CNVShift        .... on
   Level shift para.    LevelShift      ....    0.2500
   Turn off err/grad.   ShiftErr        ....    0.0000
 Zerner damping         CNVZerner       .... off
 Static damping         CNVDamp         .... on
   Fraction old density DampFac         ....    0.8500
   Max. Damping (<1)    DampMax         ....    0.9800
   Min. Damping (>=0)   DampMin         ....    0.0000
   Turn off err/grad.   DampErr         ....    0.0300

SCF Procedure:
 Maximum # iterations   MaxIter         ....  1500
 SCF integral mode      SCFMode         .... Direct
   Integral package                     .... SHARK and LIBINT hybrid scheme
 Reset frequency        DirectResetFreq ....    20
 Integral Threshold     Thresh          ....  1.000e-12 Eh
 Primitive CutOff       TCut            ....  1.000e-13 Eh

Convergence Tolerance:
 Convergence Check Mode ConvCheckMode   .... Total+1el-Energy
 Convergence forced     ConvForced      .... 0
 Energy Change          TolE            ....  1.000e-08 Eh
 1-El. energy change                    ....  1.000e-05 Eh
 Orbital Gradient       TolG            ....  1.000e-05
 Orbital Rotation angle TolX            ....  1.000e-05
 DIIS Error             TolErr          ....  5.000e-07

------------------------------
INITIAL GUESS: MODEL POTENTIAL
------------------------------
Loading Hartree-Fock densities                     ... done
Calculating cut-offs                               ... done
Initializing the effective Hamiltonian             ... done
Setting up the integral package (SHARK)            ... done
Starting the Coulomb interaction                   ... done (   0.8 sec)
Making the grid                                    ... done (   0.4 sec)
Mapping shells                                     ... done
Starting the XC term evaluation                    ... done (   0.7 sec)
  promolecular density results
     # of electrons  =     95.998613665
     EX              =    -75.121859453
     EC              =     -3.172870494
     EX+EC           =    -78.294729947
Transforming the Hamiltonian                       ... done (   0.2 sec)
Diagonalizing the Hamiltonian                      ... done (   0.3 sec)
Back transforming the eigenvectors                 ... done (   0.2 sec)
Now organizing SCF variables                       ... done
                      ------------------
                      INITIAL GUESS DONE (   3.3 sec)
                      ------------------
             **** ENERGY FILE WAS UPDATED (cs_rporg_015_red_freq_06.en.tmp) ****
Finished Guess after   5.6 sec
Maximum memory used throughout the entire GUESS-calculation: 89.0 MB


           ************************************************************
           *        Program running with 12 parallel MPI-processes    *
           *              working on a common directory               *
           ************************************************************

-------------------------------------------------------------------------------------------
                                      ORCA LEAN-SCF
                              memory conserving SCF solver
-------------------------------------------------------------------------------------------

--------------------
CPCM SOLVATION MODEL
--------------------
CPCM parameters:
  Epsilon                                         ...      35.6880
  Refrac                                          ...       1.3442
  Rsolv                                           ...       2.1900
  Surface type                                    ...    GEPOL SES
  Discretization scheme                           ... Constant num. charges
  Epsilon function type                           ...         CPCM
Solvent:                                          ... ACETONITRILE
SMD-CDS solvent descriptors:
  Soln                                            ...       1.3442
  Soln25                                          ...       1.3416
  Sola                                            ...       0.0700
  Solb                                            ...       0.3200
  Solg                                            ...      41.2500
  Solc                                            ...       0.0000
  Solh                                            ...       0.0000
Radii:
  Scheme                                          ... Element-dependent radii
  Radius for C  used is    3.4960 Bohr (=   1.8500 Ang.)
  Radius for H  used is    2.2677 Bohr (=   1.2000 Ang.)
Calculating surface                               ...        done! (  0.1s)
Cavity surface points                             ...          954
Cavity Volume                                     ...    1413.2822
Cavity Surface-area                               ...     771.1568
Calculating surface distance matrix               ...        done! (  0.0s)
Performing Cholesky decomposition & store         ...        done! (  0.0s)
Overall time for CPCM initialization              ...                 0.2s

----------------------------------------D-I-I-S--------------------------------------------
Iteration    Energy (Eh)           Delta-E    RMSDP     MaxDP     DIISErr   Damp  Time(sec)
-------------------------------------------------------------------------------------------
               ***  Starting incremental Fock matrix formation  ***
    1    -540.2946883233538529     0.00e+00  1.09e-03  8.60e-02  1.64e-01  0.850  12.2
    2    -540.3648606432462884    -7.02e-02  1.04e-03  8.36e-02  1.26e-01  0.850  11.5
                               ***Turning on AO-DIIS***
    3    -540.4140571375327227    -4.92e-02  8.01e-04  5.24e-02  9.00e-02  0.850   9.9
    4    -540.4467642193745860    -3.27e-02  6.50e-04  3.71e-02  7.13e-02  0.850  11.3
    5    -540.4706320271260438    -2.39e-02  5.39e-04  3.18e-02  5.89e-02  0.850  10.4
    6    -540.4893449318966532    -1.87e-02  4.51e-04  2.88e-02  4.96e-02  0.850   9.6
    7    -540.5045904668942285    -1.52e-02  3.79e-04  2.60e-02  4.18e-02  0.850   9.4
    8    -540.5171552934108377    -1.26e-02  3.21e-04  2.25e-02  3.52e-02  0.850  11.0
    9    -540.5275022175684398    -1.03e-02  2.71e-04  1.90e-02  2.96e-02  0.850  10.8
   10    -540.5360409283040326    -8.54e-03  1.53e-03  1.07e-01  2.49e-02  0.000  10.1
   11    -540.5804263279768520    -4.44e-02  5.59e-05  3.96e-03  1.99e-03  0.000  10.9
                              *** Initializing SOSCF ***
---------------------------------------S-O-S-C-F--------------------------------------
Iteration    Energy (Eh)           Delta-E    RMSDP     MaxDP     MaxGrad    Time(sec)
--------------------------------------------------------------------------------------
   12    -540.5804590385058646    -3.27e-05  1.74e-05  1.21e-03  7.13e-04    11.3
               *** Restarting incremental Fock matrix formation ***
   13    -540.5804623326772571    -3.29e-06  1.58e-05  1.01e-03  5.02e-05    10.6
   14    -540.5804621539274422     1.79e-07  4.39e-06  2.26e-04  1.31e-04     8.0
   15    -540.5804624893074788    -3.35e-07  4.99e-06  3.36e-04  1.30e-05     7.7
   16    -540.5804624616149567     2.77e-08  3.00e-06  3.81e-04  9.73e-06    10.5
   17    -540.5804624602877766     1.33e-09  5.10e-06  4.23e-04  4.38e-06    10.1
                 **** Energy Check signals convergence ****

               *****************************************************
               *                     SUCCESS                       *
               *           SCF CONVERGED AFTER  17 CYCLES          *
               *****************************************************


SMD CDS free energy correction energy :                -3.07706     Kcal/mol
Total Energy after SMD CDS correction =              -540.585366065 Eh
             **** ENERGY FILE WAS UPDATED (cs_rporg_015_red_freq_06.en.tmp) ****

----------------
TOTAL SCF ENERGY
----------------

Total Energy       :       -540.58536606535631 Eh          -14710.07566 eV

Components:
Nuclear Repulsion  :        775.89573121543128 Eh           21113.19622 eV
Electronic Energy  :      -1316.46458969467267 Eh          -35822.82268 eV
One Electron Energy:      -2268.09537041108115 Eh          -61718.01271 eV
Two Electron Energy:        951.63078071640859 Eh           25895.19003 eV
CPCM Dielectric    :         -0.01160398104650 Eh              -0.31576 eV
SMD CDS (Gcds)     :         -0.00490360506858 Eh              -0.13343 eV

Virial components:
Potential Energy   :      -1078.29817128247532 Eh          -29341.98496 eV
Kinetic Energy     :        537.71280521711901 Eh           14631.90930 eV
Virial Ratio       :          2.00534218419269

DFT components:
N(Alpha)           :       47.999965244086 electrons
N(Beta)            :       47.999965244086 electrons
N(Total)           :       95.999930488173 electrons
E(X)               :      -77.140662845173 Eh       
E(C)               :       -3.083742832595 Eh       
E(XC)              :      -80.224405677768 Eh       

CPCM Solvation Model Properties:
Surface-charge          :         -0.05439435539683
Corrected charge        :         -0.00000000000000
Outlying charge corr.   :          0.00018800462792 Eh               0.00512 eV
Free-energy (cav+disp)  :         -0.00490360506858 Eh              -0.13343 eV

---------------
SCF CONVERGENCE
---------------

  Last Energy change         ...   -1.3272e-09  Tolerance :   1.0000e-08
  Last MAX-Density change    ...    4.2287e-04  Tolerance :   1.0000e-07
  Last RMS-Density change    ...    5.1044e-06  Tolerance :   5.0000e-09
  Last DIIS Error            ...    7.1304e-04  Tolerance :   5.0000e-07
  Last Orbital Gradient      ...    4.3793e-06  Tolerance :   1.0000e-05
  Last Orbital Rotation      ...    9.3872e-06  Tolerance :   1.0000e-05


----------------
ORBITAL ENERGIES
----------------

  NO   OCC          E(Eh)            E(eV) 
   0   2.0000     -10.056364      -273.6476 
   1   2.0000     -10.052755      -273.5494 
   2   2.0000     -10.052754      -273.5493 
   3   2.0000     -10.039784      -273.1964 
   4   2.0000     -10.039758      -273.1957 
   5   2.0000     -10.039514      -273.1891 
   6   2.0000     -10.039512      -273.1890 
   7   2.0000     -10.039199      -273.1805 
   8   2.0000     -10.039195      -273.1804 
   9   2.0000     -10.039011      -273.1754 
  10   2.0000     -10.039010      -273.1753 
  11   2.0000     -10.038524      -273.1621 
  12   2.0000     -10.038519      -273.1620 
  13   2.0000     -10.028013      -272.8761 
  14   2.0000      -0.839501       -22.8440 
  15   2.0000      -0.823150       -22.3991 
  16   2.0000      -0.773955       -21.0604 
  17   2.0000      -0.717924       -19.5357 
  18   2.0000      -0.717544       -19.5254 
  19   2.0000      -0.712119       -19.3777 
  20   2.0000      -0.686499       -18.6806 
  21   2.0000      -0.601091       -16.3565 
  22   2.0000      -0.577905       -15.7256 
  23   2.0000      -0.569715       -15.5027 
  24   2.0000      -0.566559       -15.4169 
  25   2.0000      -0.520073       -14.1519 
  26   2.0000      -0.492226       -13.3942 
  27   2.0000      -0.468785       -12.7563 
  28   2.0000      -0.435607       -11.8535 
  29   2.0000      -0.429768       -11.6946 
  30   2.0000      -0.419325       -11.4104 
  31   2.0000      -0.409984       -11.1562 
  32   2.0000      -0.406949       -11.0736 
  33   2.0000      -0.387782       -10.5521 
  34   2.0000      -0.387231       -10.5371 
  35   2.0000      -0.383731       -10.4419 
  36   2.0000      -0.352903        -9.6030 
  37   2.0000      -0.348735        -9.4895 
  38   2.0000      -0.347187        -9.4474 
  39   2.0000      -0.323901        -8.8138 
  40   2.0000      -0.313262        -8.5243 
  41   2.0000      -0.305497        -8.3130 
  42   2.0000      -0.300756        -8.1840 
  43   2.0000      -0.280860        -7.6426 
  44   2.0000      -0.245152        -6.6709 
  45   2.0000      -0.241424        -6.5695 
  46   2.0000      -0.238880        -6.5003 
  47   2.0000      -0.209455        -5.6996 
  48   0.0000      -0.069455        -1.8900 
  49   0.0000      -0.045804        -1.2464 
  50   0.0000      -0.041313        -1.1242 
  51   0.0000      -0.029854        -0.8124 
  52   0.0000       0.004864         0.1324 
  53   0.0000       0.017092         0.4651 
  54   0.0000       0.019197         0.5224 
  55   0.0000       0.021617         0.5882 
  56   0.0000       0.025294         0.6883 
  57   0.0000       0.033201         0.9034 
  58   0.0000       0.036521         0.9938 
*Only the first 10 virtual orbitals were printed.

                    ********************************
                    * MULLIKEN POPULATION ANALYSIS *
                    ********************************

-----------------------
MULLIKEN ATOMIC CHARGES
-----------------------
   0 C :   -1.222982
   1 C :    2.500770
   2 C :   -0.772514
   3 C :   -0.865606
   4 C :   -0.123993
   5 C :   -0.781478
   6 H :    0.482927
   7 H :    0.496129
   8 H :    0.466364
   9 H :   -0.032429
  10 C :    0.902810
  11 C :   -1.303349
  12 H :    0.195881
  13 H :    0.195964
  14 C :    2.500405
  15 C :   -1.222987
  16 C :   -0.781350
  17 C :   -0.123931
  18 C :   -0.865198
  19 C :   -0.771012
  20 H :   -0.035197
  21 H :    0.466671
  22 H :    0.495908
  23 H :    0.482994
  24 H :   -0.142428
  25 H :   -0.142370
Sum of atomic charges:    0.0000000

--------------------------------
MULLIKEN REDUCED ORBITAL CHARGES
--------------------------------
  0 C s       :     4.267693  s :     4.267693
      pz      :     1.073774  p :     2.817284
      px      :     0.873067
      py      :     0.870444
      dz2     :     0.020276  d :     0.158538
      dxz     :     0.052052
      dyz     :    -0.015478
      dx2y2   :     0.139215
      dxy     :    -0.037527
      f0      :    -0.001914  f :    -0.020533
      f+1     :    -0.001932
      f-1     :    -0.000343
      f+2     :     0.000286
      f-2     :    -0.006258
      f+3     :    -0.011338
      f-3     :     0.000966

  1 C s       :     2.740524  s :     2.740524
      pz      :     0.711143  p :     0.961913
      px      :    -0.130113
      py      :     0.380882
      dz2     :    -0.025881  d :    -0.093819
      dxz     :    -0.050863
      dyz     :    -0.047005
      dx2y2   :    -0.045422
      dxy     :     0.075352
      f0      :    -0.002106  f :    -0.109388
      f+1     :    -0.006558
      f-1     :    -0.004363
      f+2     :    -0.010774
      f-2     :    -0.019044
      f+3     :    -0.064719
      f-3     :    -0.001824

  2 C s       :     3.951827  s :     3.951827
      pz      :     1.046155  p :     2.748720
      px      :     0.861320
      py      :     0.841245
      dz2     :    -0.000634  d :     0.086887
      dxz     :     0.021100
      dyz     :    -0.044623
      dx2y2   :     0.063228
      dxy     :     0.047816
      f0      :    -0.000918  f :    -0.014920
      f+1     :    -0.000706
      f-1     :    -0.001820
      f+2     :     0.000963
      f-2     :    -0.004934
      f+3     :    -0.008996
      f-3     :     0.001491

  3 C s       :     3.747069  s :     3.747069
      pz      :     0.914944  p :     2.967633
      px      :     1.070461
      py      :     0.982229
      dz2     :    -0.005396  d :     0.159205
      dxz     :     0.024857
      dyz     :     0.068990
      dx2y2   :     0.063455
      dxy     :     0.007299
      f0      :    -0.000203  f :    -0.008302
      f+1     :    -0.001159
      f-1     :     0.000381
      f+2     :     0.002975
      f-2     :    -0.004756
      f+3     :    -0.005608
      f-3     :     0.000069

  4 C s       :     3.467824  s :     3.467824
      pz      :     0.903763  p :     2.737183
      px      :     0.933669
      py      :     0.899752
      dz2     :    -0.001800  d :    -0.072678
      dxz     :    -0.004730
      dyz     :    -0.001796
      dx2y2   :    -0.009023
      dxy     :    -0.055329
      f0      :    -0.000298  f :    -0.008336
      f+1     :     0.001434
      f-1     :     0.000326
      f+2     :    -0.004058
      f-2     :    -0.002650
      f+3     :    -0.005795
      f-3     :     0.002706

  5 C s       :     3.678918  s :     3.678918
      pz      :     0.908759  p :     2.965369
      px      :     1.048372
      py      :     1.008238
      dz2     :     0.003645  d :     0.147720
      dxz     :     0.047022
      dyz     :    -0.004821
      dx2y2   :     0.086575
      dxy     :     0.015299
      f0      :    -0.000078  f :    -0.010529
      f+1     :    -0.000168
      f-1     :    -0.001098
      f+2     :    -0.000931
      f-2     :    -0.003016
      f+3     :    -0.005623
      f-3     :     0.000385

  6 H s       :     0.507584  s :     0.507584
      pz      :     0.012581  p :    -0.000372
      px      :    -0.028797
      py      :     0.015844
      dz2     :     0.003191  d :     0.009861
      dxz     :     0.001900
      dyz     :     0.000306
      dx2y2   :     0.002143
      dxy     :     0.002321

  7 H s       :     0.507436  s :     0.507436
      pz      :     0.008385  p :    -0.012535
      px      :    -0.021048
      py      :     0.000129
      dz2     :    -0.000156  d :     0.008970
      dxz     :     0.003608
      dyz     :     0.001241
      dx2y2   :     0.002616
      dxy     :     0.001661

  8 H s       :     0.519437  s :     0.519437
      pz      :     0.010633  p :     0.004322
      px      :     0.010919
      py      :    -0.017230
      dz2     :     0.003667  d :     0.009877
      dxz     :     0.000973
      dyz     :     0.000652
      dx2y2   :     0.002123
      dxy     :     0.002463

  9 H s       :     0.947717  s :     0.947717
      pz      :     0.036306  p :     0.076390
      px      :     0.025541
      py      :     0.014542
      dz2     :     0.002607  d :     0.008322
      dxz     :     0.001680
      dyz     :     0.000737
      dx2y2   :    -0.000034
      dxy     :     0.003332

 10 C s       :     3.305890  s :     3.305890
      pz      :     1.153865  p :     2.109433
      px      :     0.537650
      py      :     0.417919
      dz2     :     0.009457  d :    -0.225677
      dxz     :     0.009143
      dyz     :    -0.028962
      dx2y2   :    -0.203482
      dxy     :    -0.011833
      f0      :    -0.001800  f :    -0.092457
      f+1     :    -0.001790
      f-1     :    -0.003262
      f+2     :    -0.001318
      f-2     :    -0.002024
      f+3     :    -0.068955
      f-3     :    -0.013309

 11 C s       :     4.150759  s :     4.150759
      pz      :     1.016747  p :     3.155419
      px      :     1.202521
      py      :     0.936151
      dz2     :     0.007950  d :    -0.011692
      dxz     :    -0.002965
      dyz     :     0.029239
      dx2y2   :    -0.016987
      dxy     :    -0.028929
      f0      :    -0.000241  f :     0.008864
      f+1     :     0.001068
      f-1     :     0.002408
      f+2     :     0.000396
      f-2     :    -0.000277
      f+3     :    -0.001747
      f-3     :     0.007257

 12 H s       :     0.754122  s :     0.754122
      pz      :     0.028683  p :     0.039639
      px      :    -0.002425
      py      :     0.013381
      dz2     :    -0.000095  d :     0.010357
      dxz     :     0.004358
      dyz     :     0.000669
      dx2y2   :     0.002800
      dxy     :     0.002625

 13 H s       :     0.754037  s :     0.754037
      pz      :     0.028681  p :     0.039642
      px      :    -0.002412
      py      :     0.013373
      dz2     :    -0.000094  d :     0.010356
      dxz     :     0.004358
      dyz     :     0.000668
      dx2y2   :     0.002799
      dxy     :     0.002626

 14 C s       :     2.740553  s :     2.740553
      pz      :     0.711139  p :     0.962405
      px      :    -0.130059
      py      :     0.381325
      dz2     :    -0.025921  d :    -0.093939
      dxz     :    -0.050986
      dyz     :    -0.046868
      dx2y2   :    -0.045420
      dxy     :     0.075254
      f0      :    -0.002109  f :    -0.109424
      f+1     :    -0.006564
      f-1     :    -0.004365
      f+2     :    -0.010777
      f-2     :    -0.019068
      f+3     :    -0.064712
      f-3     :    -0.001829

 15 C s       :     4.267696  s :     4.267696
      pz      :     1.073850  p :     2.817299
      px      :     0.872884
      py      :     0.870565
      dz2     :     0.020308  d :     0.158531
      dxz     :     0.052042
      dyz     :    -0.015518
      dx2y2   :     0.139166
      dxy     :    -0.037467
      f0      :    -0.001916  f :    -0.020539
      f+1     :    -0.001934
      f-1     :    -0.000343
      f+2     :     0.000285
      f-2     :    -0.006254
      f+3     :    -0.011341
      f-3     :     0.000964

 16 C s       :     3.678786  s :     3.678786
      pz      :     0.908703  p :     2.965437
      px      :     1.048352
      py      :     1.008383
      dz2     :     0.003642  d :     0.147660
      dxz     :     0.047018
      dyz     :    -0.004845
      dx2y2   :     0.086520
      dxy     :     0.015325
      f0      :    -0.000081  f :    -0.010533
      f+1     :    -0.000167
      f-1     :    -0.001102
      f+2     :    -0.000933
      f-2     :    -0.003014
      f+3     :    -0.005618
      f-3     :     0.000382

 17 C s       :     3.467887  s :     3.467887
      pz      :     0.903683  p :     2.737044
      px      :     0.933667
      py      :     0.899693
      dz2     :    -0.001914  d :    -0.072661
      dxz     :    -0.004742
      dyz     :    -0.001793
      dx2y2   :    -0.009036
      dxy     :    -0.055175
      f0      :    -0.000299  f :    -0.008338
      f+1     :     0.001429
      f-1     :     0.000326
      f+2     :    -0.004060
      f-2     :    -0.002652
      f+3     :    -0.005791
      f-3     :     0.002708

 18 C s       :     3.746887  s :     3.746887
      pz      :     0.915036  p :     2.967784
      px      :     1.070488
      py      :     0.982260
      dz2     :    -0.005433  d :     0.158837
      dxz     :     0.024805
      dyz     :     0.068990
      dx2y2   :     0.063177
      dxy     :     0.007298
      f0      :    -0.000202  f :    -0.008311
      f+1     :    -0.001159
      f-1     :     0.000379
      f+2     :     0.002963
      f-2     :    -0.004758
      f+3     :    -0.005607
      f-3     :     0.000073

 19 C s       :     3.950243  s :     3.950243
      pz      :     1.046101  p :     2.748789
      px      :     0.861028
      py      :     0.841659
      dz2     :    -0.000675  d :     0.086931
      dxz     :     0.021073
      dyz     :    -0.044650
      dx2y2   :     0.063337
      dxy     :     0.047846
      f0      :    -0.000921  f :    -0.014952
      f+1     :    -0.000703
      f-1     :    -0.001827
      f+2     :     0.000954
      f-2     :    -0.004938
      f+3     :    -0.009000
      f-3     :     0.001483

 20 H s       :     0.950588  s :     0.950588
      pz      :     0.036373  p :     0.076282
      px      :     0.025407
      py      :     0.014503
      dz2     :     0.002609  d :     0.008327
      dxz     :     0.001690
      dyz     :     0.000746
      dx2y2   :    -0.000035
      dxy     :     0.003316

 21 H s       :     0.519186  s :     0.519186
      pz      :     0.010586  p :     0.004264
      px      :     0.010916
      py      :    -0.017238
      dz2     :     0.003664  d :     0.009879
      dxz     :     0.000971
      dyz     :     0.000655
      dx2y2   :     0.002125
      dxy     :     0.002463

 22 H s       :     0.507637  s :     0.507637
      pz      :     0.008379  p :    -0.012515
      px      :    -0.021010
      py      :     0.000117
      dz2     :    -0.000156  d :     0.008970
      dxz     :     0.003606
      dyz     :     0.001242
      dx2y2   :     0.002619
      dxy     :     0.001660

 23 H s       :     0.507527  s :     0.507527
      pz      :     0.012552  p :    -0.000382
      px      :    -0.028791
      py      :     0.015857
      dz2     :     0.003192  d :     0.009861
      dxz     :     0.001898
      dyz     :     0.000307
      dx2y2   :     0.002142
      dxy     :     0.002321

 24 H s       :     1.056376  s :     1.056376
      pz      :     0.041618  p :     0.075975
      px      :     0.007468
      py      :     0.026889
      dz2     :     0.004367  d :     0.010078
      dxz     :     0.000006
      dyz     :     0.000821
      dx2y2   :     0.003132
      dxy     :     0.001751

 25 H s       :     1.056325  s :     1.056325
      pz      :     0.041614  p :     0.075970
      px      :     0.007475
      py      :     0.026880
      dz2     :     0.004366  d :     0.010076
      dxz     :     0.000005
      dyz     :     0.000821
      dx2y2   :     0.003134
      dxy     :     0.001750



                     *******************************
                     * LOEWDIN POPULATION ANALYSIS *
                     *******************************

----------------------
LOEWDIN ATOMIC CHARGES
----------------------
   0 C :    0.211059
   1 C :   -0.143734
   2 C :    0.208457
   3 C :    0.204450
   4 C :    0.195092
   5 C :    0.202433
   6 H :   -0.177032
   7 H :   -0.178973
   8 H :   -0.176424
   9 H :   -0.169802
  10 C :   -0.143442
  11 C :    0.558543
  12 H :   -0.205477
  13 H :   -0.205479
  14 C :   -0.143723
  15 C :    0.211088
  16 C :    0.202456
  17 C :    0.195129
  18 C :    0.204491
  19 C :    0.208382
  20 H :   -0.169907
  21 H :   -0.176409
  22 H :   -0.178971
  23 H :   -0.177032
  24 H :   -0.177586
  25 H :   -0.177590

-------------------------------
LOEWDIN REDUCED ORBITAL CHARGES
-------------------------------
  0 C s       :     2.475623  s :     2.475623
      pz      :     0.688151  p :     2.266594
      px      :     0.827901
      py      :     0.750543
      dz2     :     0.084080  d :     0.704602
      dxz     :     0.146037
      dyz     :     0.101690
      dx2y2   :     0.210719
      dxy     :     0.162075
      f0      :     0.034866  f :     0.342122
      f+1     :     0.050838
      f-1     :     0.015832
      f+2     :     0.040202
      f-2     :     0.056951
      f+3     :     0.095646
      f-3     :     0.047787

  1 C s       :     2.453357  s :     2.453357
      pz      :     0.693834  p :     2.254624
      px      :     0.794756
      py      :     0.766033
      dz2     :     0.138191  d :     0.934900
      dxz     :     0.169730
      dyz     :     0.162734
      dx2y2   :     0.226212
      dxy     :     0.238034
      f0      :     0.040299  f :     0.500853
      f+1     :     0.056425
      f-1     :     0.046776
      f+2     :     0.056299
      f-2     :     0.097337
      f+3     :     0.135206
      f-3     :     0.068511

  2 C s       :     2.472087  s :     2.472087
      pz      :     0.682681  p :     2.265907
      px      :     0.817819
      py      :     0.765407
      dz2     :     0.085836  d :     0.710616
      dxz     :     0.147245
      dyz     :     0.109569
      dx2y2   :     0.174852
      dxy     :     0.193114
      f0      :     0.038513  f :     0.342933
      f+1     :     0.020184
      f-1     :     0.041776
      f+2     :     0.039798
      f-2     :     0.061764
      f+3     :     0.093569
      f-3     :     0.047328

  3 C s       :     2.488704  s :     2.488704
      pz      :     0.688315  p :     2.281122
      px      :     0.832802
      py      :     0.760005
      dz2     :     0.079664  d :     0.690540
      dxz     :     0.145411
      dyz     :     0.097759
      dx2y2   :     0.218434
      dxy     :     0.149273
      f0      :     0.034118  f :     0.335183
      f+1     :     0.049026
      f-1     :     0.014835
      f+2     :     0.038493
      f-2     :     0.056289
      f+3     :     0.096999
      f-3     :     0.045423

  4 C s       :     2.491260  s :     2.491260
      pz      :     0.694534  p :     2.284819
      px      :     0.817769
      py      :     0.772516
      dz2     :     0.119012  d :     0.694173
      dxz     :     0.109827
      dyz     :     0.130463
      dx2y2   :     0.143944
      dxy     :     0.190926
      f0      :     0.022794  f :     0.334656
      f+1     :     0.042731
      f-1     :     0.038545
      f+2     :     0.048949
      f-2     :     0.065773
      f+3     :     0.069529
      f-3     :     0.046335

  5 C s       :     2.489426  s :     2.489426
      pz      :     0.690694  p :     2.281831
      px      :     0.817628
      py      :     0.773509
      dz2     :     0.082074  d :     0.691352
      dxz     :     0.140378
      dyz     :     0.112235
      dx2y2   :     0.165019
      dxy     :     0.191647
      f0      :     0.039020  f :     0.334957
      f+1     :     0.018575
      f-1     :     0.040199
      f+2     :     0.037660
      f-2     :     0.062951
      f+3     :     0.092245
      f-3     :     0.044306

  6 H s       :     0.661679  s :     0.661679
      pz      :     0.097422  p :     0.301312
      px      :     0.117313
      py      :     0.086577
      dz2     :     0.039704  d :     0.214041
      dxz     :     0.045814
      dyz     :     0.031359
      dx2y2   :     0.052244
      dxy     :     0.044920

  7 H s       :     0.663613  s :     0.663613
      pz      :     0.080989  p :     0.302098
      px      :     0.125558
      py      :     0.095550
      dz2     :     0.019130  d :     0.213262
      dxz     :     0.051672
      dyz     :     0.021992
      dx2y2   :     0.067561
      dxy     :     0.052907

  8 H s       :     0.661385  s :     0.661385
      pz      :     0.100099  p :     0.301002
      px      :     0.078368
      py      :     0.122535
      dz2     :     0.041733  d :     0.214037
      dxz     :     0.027554
      dyz     :     0.052284
      dx2y2   :     0.035231
      dxy     :     0.057234

  9 H s       :     0.637473  s :     0.637473
      pz      :     0.095950  p :     0.309884
      px      :     0.128538
      py      :     0.085396
      dz2     :     0.038681  d :     0.222444
      dxz     :     0.050731
      dyz     :     0.031426
      dx2y2   :     0.054207
      dxy     :     0.047399

 10 C s       :     2.464707  s :     2.464707
      pz      :     0.605638  p :     2.257924
      px      :     0.786754
      py      :     0.865533
      dz2     :     0.081197  d :     0.941447
      dxz     :     0.126260
      dyz     :     0.154175
      dx2y2   :     0.276552
      dxy     :     0.303262
      f0      :     0.034809  f :     0.479364
      f+1     :     0.029140
      f-1     :     0.033119
      f+2     :     0.056151
      f-2     :     0.054006
      f+3     :     0.197867
      f-3     :     0.074271

 11 C s       :     2.506162  s :     2.506162
      pz      :     0.604316  p :     2.291688
      px      :     0.818372
      py      :     0.869001
      dz2     :     0.046729  d :     0.461799
      dxz     :     0.017693
      dyz     :     0.062893
      dx2y2   :     0.112786
      dxy     :     0.221698
      f0      :     0.011275  f :     0.181808
      f+1     :     0.011032
      f-1     :     0.022695
      f+2     :     0.024716
      f-2     :     0.004557
      f+3     :     0.067408
      f-3     :     0.040124

 12 H s       :     0.654920  s :     0.654920
      pz      :     0.087775  p :     0.329779
      px      :     0.146845
      py      :     0.095159
      dz2     :     0.023881  d :     0.220778
      dxz     :     0.038955
      dyz     :     0.025193
      dx2y2   :     0.076297
      dxy     :     0.056451

 13 H s       :     0.654912  s :     0.654912
      pz      :     0.087775  p :     0.329783
      px      :     0.146853
      py      :     0.095156
      dz2     :     0.023883  d :     0.220784
      dxz     :     0.038960
      dyz     :     0.025189
      dx2y2   :     0.076292
      dxy     :     0.056459

 14 C s       :     2.453351  s :     2.453351
      pz      :     0.693871  p :     2.254615
      px      :     0.794741
      py      :     0.766003
      dz2     :     0.138224  d :     0.934894
      dxz     :     0.169741
      dyz     :     0.162744
      dx2y2   :     0.226186
      dxy     :     0.237998
      f0      :     0.040307  f :     0.500862
      f+1     :     0.056435
      f-1     :     0.046796
      f+2     :     0.056309
      f-2     :     0.097336
      f+3     :     0.135174
      f-3     :     0.068505

 15 C s       :     2.475621  s :     2.475621
      pz      :     0.688183  p :     2.266590
      px      :     0.827868
      py      :     0.750539
      dz2     :     0.084092  d :     0.704582
      dxz     :     0.146041
      dyz     :     0.101710
      dx2y2   :     0.210690
      dxy     :     0.162049
      f0      :     0.034882  f :     0.342119
      f+1     :     0.050826
      f-1     :     0.015840
      f+2     :     0.040213
      f-2     :     0.056952
      f+3     :     0.095622
      f-3     :     0.047784

 16 C s       :     2.489424  s :     2.489424
      pz      :     0.690716  p :     2.281821
      px      :     0.817595
      py      :     0.773510
      dz2     :     0.082073  d :     0.691345
      dxz     :     0.140389
      dyz     :     0.112237
      dx2y2   :     0.165012
      dxy     :     0.191634
      f0      :     0.039022  f :     0.334954
      f+1     :     0.018573
      f-1     :     0.040210
      f+2     :     0.037660
      f-2     :     0.062947
      f+3     :     0.092241
      f-3     :     0.044301

 17 C s       :     2.491255  s :     2.491255
      pz      :     0.694568  p :     2.284811
      px      :     0.817727
      py      :     0.772515
      dz2     :     0.119035  d :     0.694150
      dxz     :     0.109820
      dyz     :     0.130486
      dx2y2   :     0.143908
      dxy     :     0.190902
      f0      :     0.022794  f :     0.334655
      f+1     :     0.042738
      f-1     :     0.038559
      f+2     :     0.048960
      f-2     :     0.065771
      f+3     :     0.069505
      f-3     :     0.046328

 18 C s       :     2.488698  s :     2.488698
      pz      :     0.688343  p :     2.281097
      px      :     0.832761
      py      :     0.759993
      dz2     :     0.079672  d :     0.690523
      dxz     :     0.145421
      dyz     :     0.097788
      dx2y2   :     0.218387
      dxy     :     0.149256
      f0      :     0.034143  f :     0.335191
      f+1     :     0.049009
      f-1     :     0.014845
      f+2     :     0.038511
      f-2     :     0.056294
      f+3     :     0.096966
      f-3     :     0.045423

 19 C s       :     2.472071  s :     2.472071
      pz      :     0.682758  p :     2.265916
      px      :     0.817739
      py      :     0.765419
      dz2     :     0.085839  d :     0.710674
      dxz     :     0.147300
      dyz     :     0.109576
      dx2y2   :     0.174857
      dxy     :     0.193103
      f0      :     0.038523  f :     0.342956
      f+1     :     0.020184
      f-1     :     0.041793
      f+2     :     0.039802
      f-2     :     0.061770
      f+3     :     0.093559
      f-3     :     0.047325

 20 H s       :     0.637588  s :     0.637588
      pz      :     0.095982  p :     0.309880
      px      :     0.128500
      py      :     0.085398
      dz2     :     0.038704  d :     0.222438
      dxz     :     0.050728
      dyz     :     0.031448
      dx2y2   :     0.054181
      dxy     :     0.047379

 21 H s       :     0.661380  s :     0.661380
      pz      :     0.100099  p :     0.300995
      px      :     0.078368
      py      :     0.122528
      dz2     :     0.041734  d :     0.214034
      dxz     :     0.027556
      dyz     :     0.052285
      dx2y2   :     0.035230
      dxy     :     0.057229

 22 H s       :     0.663613  s :     0.663613
      pz      :     0.080988  p :     0.302096
      px      :     0.125552
      py      :     0.095556
      dz2     :     0.019127  d :     0.213261
      dxz     :     0.051673
      dyz     :     0.021996
      dx2y2   :     0.067562
      dxy     :     0.052904

 23 H s       :     0.661680  s :     0.661680
      pz      :     0.097435  p :     0.301312
      px      :     0.117304
      py      :     0.086574
      dz2     :     0.039716  d :     0.214040
      dxz     :     0.045813
      dyz     :     0.031369
      dx2y2   :     0.052231
      dxy     :     0.044911

 24 H s       :     0.641454  s :     0.641454
      pz      :     0.100817  p :     0.312658
      px      :     0.085165
      py      :     0.126676
      dz2     :     0.042533  d :     0.223475
      dxz     :     0.030745
      dyz     :     0.054159
      dx2y2   :     0.037209
      dxy     :     0.058828

 25 H s       :     0.641450  s :     0.641450
      pz      :     0.100813  p :     0.312661
      px      :     0.085168
      py      :     0.126681
      dz2     :     0.042529  d :     0.223478
      dxz     :     0.030744
      dyz     :     0.054161
      dx2y2   :     0.037210
      dxy     :     0.058834



                      *****************************
                      * MAYER POPULATION ANALYSIS *
                      *****************************

  NA   - Mulliken gross atomic population
  ZA   - Total nuclear charge
  QA   - Mulliken gross atomic charge
  VA   - Mayer's total valence
  BVA  - Mayer's bonded valence
  FA   - Mayer's free valence

  ATOM       NA         ZA         QA         VA         BVA        FA
  0 C      7.2230     6.0000    -1.2230     2.5672     2.5672     0.0000
  1 C      3.4992     6.0000     2.5008    -1.2794    -1.2794    -0.0000
  2 C      6.7725     6.0000    -0.7725     2.8204     2.8204     0.0000
  3 C      6.8656     6.0000    -0.8656     2.9783     2.9783     0.0000
  4 C      6.1240     6.0000    -0.1240     2.6664     2.6664     0.0000
  5 C      6.7815     6.0000    -0.7815     2.8683     2.8683    -0.0000
  6 H      0.5171     1.0000     0.4829     0.5868     0.5868    -0.0000
  7 H      0.5039     1.0000     0.4961     0.5717     0.5717    -0.0000
  8 H      0.5336     1.0000     0.4664     0.6335     0.6335     0.0000
  9 H      1.0324     1.0000    -0.0324     1.2883     1.2883    -0.0000
 10 C      5.0972     6.0000     0.9028     1.3592     1.3592     0.0000
 11 C      7.3033     6.0000    -1.3033     2.5208     2.5208    -0.0000
 12 H      0.8041     1.0000     0.1959     0.9628     0.9628    -0.0000
 13 H      0.8040     1.0000     0.1960     0.9627     0.9627     0.0000
 14 C      3.4996     6.0000     2.5004    -1.2772    -1.2772    -0.0000
 15 C      7.2230     6.0000    -1.2230     2.5672     2.5672     0.0000
 16 C      6.7813     6.0000    -0.7813     2.8679     2.8679     0.0000
 17 C      6.1239     6.0000    -0.1239     2.6666     2.6666     0.0000
 18 C      6.8652     6.0000    -0.8652     2.9789     2.9789     0.0000
 19 C      6.7710     6.0000    -0.7710     2.8244     2.8244     0.0000
 20 H      1.0352     1.0000    -0.0352     1.2889     1.2889     0.0000
 21 H      0.5333     1.0000     0.4667     0.6327     0.6327    -0.0000
 22 H      0.5041     1.0000     0.4959     0.5721     0.5721    -0.0000
 23 H      0.5170     1.0000     0.4830     0.5866     0.5866     0.0000
 24 H      1.1424     1.0000    -0.1424     1.3494     1.3494     0.0000
 25 H      1.1424     1.0000    -0.1424     1.3495     1.3495    -0.0000

  Mayer bond orders larger than 0.100000
B(  0-C ,  1-C ) :  -0.2017 B(  0-C ,  2-C ) :  -0.7984 B(  0-C ,  4-C ) :  -0.1514 
B(  0-C ,  5-C ) :   1.3177 B(  0-C ,  6-H ) :  -0.1573 B(  0-C ,  9-H ) :   0.1145 
B(  0-C , 10-C ) :   0.3311 B(  0-C , 25-H ) :   1.8485 B(  1-C ,  2-C ) :   0.2540 
B(  1-C ,  4-C ) :  -0.1444 B(  1-C ,  8-H ) :   0.1001 B(  1-C ,  9-H ) :  -0.1094 
B(  1-C , 10-C ) :  -0.3148 B(  1-C , 11-C ) :  -0.3579 B(  1-C , 14-C ) :  -0.1871 
B(  1-C , 25-H ) :  -0.1941 B(  2-C ,  3-C ) :   1.2504 B(  2-C ,  4-C ) :  -0.1200 
B(  2-C ,  9-H ) :   1.5589 B(  2-C , 10-C ) :   0.2776 B(  2-C , 11-C ) :   0.1467 
B(  2-C , 19-C ) :   0.1399 B(  3-C ,  4-C ) :   1.1901 B(  3-C ,  5-C ) :   0.2816 
B(  3-C ,  8-H ) :   0.5007 B(  3-C , 25-H ) :  -0.1546 B(  4-C ,  5-C ) :   1.0594 
B(  4-C ,  7-H ) :   0.5606 B(  4-C ,  9-H ) :  -0.1020 B(  4-C , 10-C ) :   0.1997 
B(  5-C ,  6-H ) :   0.5152 B(  5-C ,  9-H ) :  -0.1274 B(  9-H , 25-H ) :   0.2148 
B( 10-C , 11-C ) :   0.6753 B( 10-C , 14-C ) :  -0.3154 B( 10-C , 15-C ) :   0.3308 
B( 10-C , 17-C ) :   0.2000 B( 10-C , 19-C ) :   0.2783 B( 10-C , 24-H ) :  -0.2252 
B( 10-C , 25-H ) :  -0.2250 B( 11-C , 12-H ) :   1.0213 B( 11-C , 13-H ) :   1.0213 
B( 11-C , 14-C ) :  -0.3575 B( 11-C , 19-C ) :   0.1467 B( 14-C , 15-C ) :  -0.2017 
B( 14-C , 17-C ) :  -0.1443 B( 14-C , 19-C ) :   0.2559 B( 14-C , 20-H ) :  -0.1102 
B( 14-C , 21-H ) :   0.1004 B( 14-C , 24-H ) :  -0.1940 B( 15-C , 16-C ) :   1.3178 
B( 15-C , 17-C ) :  -0.1513 B( 15-C , 19-C ) :  -0.7985 B( 15-C , 20-H ) :   0.1152 
B( 15-C , 23-H ) :  -0.1573 B( 15-C , 24-H ) :   1.8484 B( 16-C , 17-C ) :   1.0593 
B( 16-C , 18-C ) :   0.2815 B( 16-C , 20-H ) :  -0.1274 B( 16-C , 23-H ) :   0.5151 
B( 17-C , 18-C ) :   1.1901 B( 17-C , 19-C ) :  -0.1202 B( 17-C , 20-H ) :  -0.1021 
B( 17-C , 22-H ) :   0.5609 B( 18-C , 19-C ) :   1.2517 B( 18-C , 21-H ) :   0.5003 
B( 18-C , 24-H ) :  -0.1545 B( 19-C , 20-H ) :   1.5595 B( 20-H , 24-H ) :   0.2149 


-------
TIMINGS
-------

Total SCF time: 0 days 0 hours 2 min 59 sec 

Total time                  ....     179.241 sec
Sum of individual times     ....     177.332 sec  ( 98.9%)

[...]
       cm**-1   L/(mol*cm) km/mol    a.u.
----------------------------------------------------------------------------
  6:     36.39   0.000032    0.16  0.000276  (-0.009757  0.000043  0.013446)
  7:     57.99   0.000011    0.06  0.000060  ( 0.000085 -0.007755 -0.000084)
  8:     77.45   0.000098    0.50  0.000396  ( 0.000028  0.019899 -0.000001)
  9:    133.21   0.000721    3.64  0.001688  (-0.004559  0.000037 -0.040834)
 10:    216.50   0.000016    0.08  0.000022  (-0.000039  0.004742 -0.000013)
 11:    234.74   0.000192    0.97  0.000255  (-0.008109 -0.000048 -0.013751)
 12:    297.20   0.000045    0.23  0.000048  (-0.000014  0.006894 -0.000011)
 13:    342.46   0.000464    2.35  0.000423  (-0.020314  0.000009 -0.003238)
 14:    410.66   0.000020    0.10  0.000015  (-0.003813  0.000061 -0.000621)
 15:    415.24   0.000086    0.44  0.000065  (-0.000065 -0.008045  0.000031)
 16:    444.20   0.000467    2.36  0.000328  (-0.000018 -0.018112  0.000014)
 17:    453.28   0.002432   12.29  0.001674  ( 0.008872  0.000004 -0.039946)
 18:    576.23   0.002981   15.06  0.001614  (-0.000023  0.040180 -0.000001)
 19:    599.12   0.006489   32.79  0.003380  ( 0.052331  0.000109 -0.025326)
 20:    623.44   0.000737    3.72  0.000369  (-0.015906  0.000017  0.010755)
 21:    629.14   0.000014    0.07  0.000007  (-0.000025  0.002639 -0.000035)
 22:    652.35   0.004009   20.26  0.001918  ( 0.027824  0.000027 -0.033814)
 23:    703.70   0.001908    9.64  0.000846  (-0.000044 -0.029085  0.000081)
 24:    712.88   0.025324  127.98  0.011086  (-0.040124 -0.000737  0.097341)
 25:    716.96   0.010203   51.56  0.004441  (-0.000439  0.066630  0.001074)
 26:    735.56   0.000060    0.31  0.000026  ( 0.000016 -0.005064  0.000014)
 27:    791.98   0.016266   82.20  0.006409  ( 0.000158 -0.000084  0.080058)
 28:    800.94   0.008587   43.40  0.003346  ( 0.000035  0.057842  0.000113)
 29:    843.69   0.000187    0.94  0.000069  ( 0.003581  0.000005 -0.007498)
 30:    858.28   0.000119    0.60  0.000043  ( 0.000568 -0.006543 -0.000207)
 31:    859.07   0.000060    0.30  0.000022  (-0.004253 -0.000839  0.001730)
 32:    908.07   0.017601   88.95  0.006049  ( 0.021765  0.000041  0.074665)
 33:    937.92   0.000852    4.31  0.000283  ( 0.003086  0.013093 -0.010125)
 34:    938.15   0.000861    4.35  0.000286  (-0.003067  0.013059  0.010322)
 35:    992.13   0.000108    0.55  0.000034  (-0.005304  0.002312 -0.000759)
 36:    992.36   0.000096    0.48  0.000030  (-0.002420 -0.004911 -0.000280)
 37:   1009.61   0.000078    0.39  0.000024  (-0.002613  0.000467  0.004123)
 38:   1009.70   0.000016    0.08  0.000005  (-0.000975 -0.001255  0.001519)
 39:   1016.00   0.000024    0.12  0.000007  ( 0.001669  0.000077  0.002143)
 40:   1016.43   0.000003    0.02  0.000001  (-0.000106  0.000977 -0.000119)
 41:   1044.49   0.006203   31.35  0.001853  ( 0.043048  0.000093 -0.000458)
 42:   1046.92   0.001347    6.81  0.000402  (-0.000110  0.020038  0.000023)
 43:   1081.85   0.002236   11.30  0.000645  (-0.018172 -0.000014 -0.017744)
 44:   1099.44   0.002380   12.03  0.000676  (-0.000007  0.025993  0.000016)
 45:   1105.43   0.001817    9.18  0.000513  (-0.003804 -0.000025 -0.022323)
 46:   1162.47   0.000006    0.03  0.000002  (-0.000465 -0.000021  0.001181)
 47:   1162.60   0.000005    0.03  0.000001  (-0.000004  0.001167  0.000030)
 48:   1171.44   0.000022    0.11  0.000006  ( 0.000009  0.002394  0.000006)
 49:   1187.69   0.000121    0.61  0.000032  (-0.005592  0.000001  0.000699)
 50:   1189.45   0.000000    0.00  0.000000  (-0.000021  0.000291 -0.000017)
 51:   1308.05   0.002801   14.15  0.000668  ( 0.025334 -0.000029 -0.005138)
 52:   1332.09   0.000001    0.00  0.000000  ( 0.000003 -0.000386 -0.000013)
 53:   1346.56   0.005041   25.47  0.001168  ( 0.033995  0.000001 -0.003545)
 54:   1361.14   0.000707    3.57  0.000162  ( 0.011758  0.000019 -0.004879)
 55:   1363.25   0.000119    0.60  0.000027  (-0.000061  0.005212  0.000038)
 56:   1423.39   0.001172    5.92  0.000257  (-0.000016 -0.016032 -0.000007)
 57:   1465.73   0.002956   14.94  0.000629  ( 0.020452 -0.000057  0.014528)
 58:   1467.75   0.000959    4.84  0.000204  ( 0.000081  0.014276  0.000051)
 59:   1513.51   0.002615   13.21  0.000539  (-0.000054 -0.023218  0.000011)
 60:   1516.26   0.004113   20.79  0.000847  ( 0.028993 -0.000087 -0.002435)
 61:   1604.04   0.002265   11.45  0.000441  (-0.000013 -0.020990  0.000045)
 62:   1606.34   0.000524    2.65  0.000102  ( 0.000741 -0.000181 -0.010059)
 63:   1628.82   0.000899    4.55  0.000172  ( 0.013127 -0.000019  0.000007)
 64:   1630.97   0.000004    0.02  0.000001  ( 0.000133  0.000840 -0.000001)
 65:   1644.96   0.009006   45.51  0.001708  ( 0.000003 -0.041334  0.000013)
 66:   3136.21   0.001052    5.32  0.000105  ( 0.000019  0.010233 -0.000006)
 67:   3158.99   0.001266    6.40  0.000125  ( 0.011178  0.000051 -0.000311)
 68:   3159.14   0.000269    1.36  0.000027  ( 0.000109 -0.005156  0.000008)
 69:   3164.23   0.000004    0.02  0.000000  (-0.000037 -0.000033  0.000607)
 70:   3164.72   0.000141    0.71  0.000014  (-0.000016  0.003726 -0.000003)
 71:   3172.43   0.006266   31.67  0.000616  ( 0.024798  0.000187 -0.001197)
 72:   3172.68   0.001234    6.24  0.000121  ( 0.000494 -0.011007 -0.000032)
 73:   3178.45   0.011546   58.35  0.001134  (-0.018416  0.000699 -0.028178)
 74:   3178.68   0.008961   45.29  0.000880  (-0.000494 -0.029649 -0.000672)
 75:   3187.41   0.006229   31.48  0.000610  (-0.024653 -0.000494  0.001337)
 76:   3187.60   0.002328   11.76  0.000228  (-0.000841  0.015072  0.000061)
 77:   3226.24   0.002460   12.43  0.000238  (-0.015261  0.000005  0.002241)

* The epsilon (eps) is given for a Dirac delta lineshape.
** The dipole moment derivative (T) already includes vibrational overlap.

The first frequency considered to be a vibration is 6
The total number of vibrations considered is 72


--------------------------
THERMOCHEMISTRY AT 298.15K
--------------------------

Temperature         ...   298.15 K
Pressure            ...     1.00 atm
Total Mass          ...   180.25 AMU
Quasi RRHO          ...     True
Cut-Off Frequency   ...     1.00 cm^-1

Throughout the following assumptions are being made:
  (1) The electronic state is orbitally nondegenerate
  (2) There are no thermally accessible electronically excited states
  (3) Hindered rotations indicated by low frequency modes are not
      treated as such but are treated as vibrations and this may
      cause some error
  (4) All equations used are the standard statistical mechanics
      equations for an ideal gas
  (5) All vibrations are strictly harmonic

freq.      36.39  E(vib)   ...       0.54 
freq.      57.99  E(vib)   ...       0.51 
freq.      77.45  E(vib)   ...       0.49 
freq.     133.21  E(vib)   ...       0.42 
freq.     216.50  E(vib)   ...       0.34 
freq.     234.74  E(vib)   ...       0.32 
freq.     297.20  E(vib)   ...       0.27 
freq.     342.46  E(vib)   ...       0.23 
freq.     410.66  E(vib)   ...       0.19 
freq.     415.24  E(vib)   ...       0.19 
freq.     444.20  E(vib)   ...       0.17 
freq.     453.28  E(vib)   ...       0.16 
freq.     576.23  E(vib)   ...       0.11 
freq.     599.12  E(vib)   ...       0.10 
freq.     623.44  E(vib)   ...       0.09 
freq.     629.14  E(vib)   ...       0.09 
freq.     652.35  E(vib)   ...       0.08 
freq.     703.70  E(vib)   ...       0.07 
freq.     712.88  E(vib)   ...       0.07 
freq.     716.96  E(vib)   ...       0.07 
freq.     735.56  E(vib)   ...       0.06 
freq.     791.98  E(vib)   ...       0.05 
freq.     800.94  E(vib)   ...       0.05 
freq.     843.69  E(vib)   ...       0.04 
freq.     858.28  E(vib)   ...       0.04 
freq.     859.07  E(vib)   ...       0.04 
freq.     908.07  E(vib)   ...       0.03 
freq.     937.92  E(vib)   ...       0.03 
freq.     938.15  E(vib)   ...       0.03 
freq.     992.13  E(vib)   ...       0.02 
freq.     992.36  E(vib)   ...       0.02 
freq.    1009.61  E(vib)   ...       0.02 
freq.    1009.70  E(vib)   ...       0.02 
freq.    1016.00  E(vib)   ...       0.02 
freq.    1016.43  E(vib)   ...       0.02 
freq.    1044.49  E(vib)   ...       0.02 
freq.    1046.92  E(vib)   ...       0.02 
freq.    1081.85  E(vib)   ...       0.02 
freq.    1099.44  E(vib)   ...       0.02 
freq.    1105.43  E(vib)   ...       0.02 
freq.    1162.47  E(vib)   ...       0.01 
freq.    1162.60  E(vib)   ...       0.01 
freq.    1171.44  E(vib)   ...       0.01 
freq.    1187.69  E(vib)   ...       0.01 
freq.    1189.45  E(vib)   ...       0.01 
freq.    1308.05  E(vib)   ...       0.01 
freq.    1332.09  E(vib)   ...       0.01 
freq.    1346.56  E(vib)   ...       0.01 
freq.    1361.14  E(vib)   ...       0.01 
freq.    1363.25  E(vib)   ...       0.01 
freq.    1423.39  E(vib)   ...       0.00 
freq.    1465.73  E(vib)   ...       0.00 
freq.    1467.75  E(vib)   ...       0.00 
freq.    1513.51  E(vib)   ...       0.00 
freq.    1516.26  E(vib)   ...       0.00 
freq.    1604.04  E(vib)   ...       0.00 
freq.    1606.34  E(vib)   ...       0.00 
freq.    1628.82  E(vib)   ...       0.00 
freq.    1630.97  E(vib)   ...       0.00 
freq.    1644.96  E(vib)   ...       0.00 
freq.    3136.21  E(vib)   ...       0.00 
freq.    3158.99  E(vib)   ...       0.00 
freq.    3159.14  E(vib)   ...       0.00 
freq.    3164.23  E(vib)   ...       0.00 
freq.    3164.72  E(vib)   ...       0.00 
freq.    3172.43  E(vib)   ...       0.00 
freq.    3172.68  E(vib)   ...       0.00 
freq.    3178.45  E(vib)   ...       0.00 
freq.    3178.68  E(vib)   ...       0.00 
freq.    3187.41  E(vib)   ...       0.00 
freq.    3187.60  E(vib)   ...       0.00 
freq.    3226.24  E(vib)   ...       0.00 

------------
INNER ENERGY
------------

The inner energy is: U= E(el) + E(ZPE) + E(vib) + E(rot) + E(trans)
    E(el)   - is the total energy from the electronic structure calculation
              = E(kin-el) + E(nuc-el) + E(el-el) + E(nuc-nuc)
    E(ZPE)  - the the zero temperature vibrational energy from the frequency calculation
    E(vib)  - the the finite temperature correction to E(ZPE) due to population
              of excited vibrational states
    E(rot)  - is the rotational thermal energy
    E(trans)- is the translational thermal energy

Summary of contributions to the inner energy U:
Electronic energy                ...   -540.59573420 Eh
Zero point energy                ...      0.21322380 Eh     133.80 kcal/mol
Thermal vibrational correction   ...      0.00831189 Eh       5.22 kcal/mol
Thermal rotational correction    ...      0.00141627 Eh       0.89 kcal/mol
Thermal translational correction ...      0.00141627 Eh       0.89 kcal/mol
-----------------------------------------------------------------------
Total thermal energy                   -540.37136597 Eh


Summary of corrections to the electronic energy:
(perhaps to be used in another calculation)
Total thermal correction                  0.01114443 Eh       6.99 kcal/mol
Non-thermal (ZPE) correction              0.21322380 Eh     133.80 kcal/mol
-----------------------------------------------------------------------
Total correction                          0.22436823 Eh     140.79 kcal/mol


--------
ENTHALPY
--------

The enthalpy is H = U + kB*T
                kB is Boltzmann's constant
Total thermal energy              ...   -540.37136597 Eh 
Thermal Enthalpy correction       ...      0.00094421 Eh       0.59 kcal/mol
-----------------------------------------------------------------------
Total Enthalpy                    ...   -540.37042176 Eh


Note: Only C1 symmetry has been detected, increase convergence thresholds 
      if your molecule has a higher symmetry. Symmetry factor of 1.0 is   
      used for the rotational entropy correction. 
 

Note: Rotational entropy computed according to Herzberg 
Infrared and Raman Spectra, Chapter V,1, Van Nostrand Reinhold, 1945 
Point Group:  C1, Symmetry Number:   1  
Rotational constants in cm-1:     0.053709     0.014016     0.012199 

Vibrational entropy computed according to the QRRHO of S. Grimme
Chem.Eur.J. 2012 18 9955 using a reference frequency of 100.0 cm-1


-------
ENTROPY
-------

The entropy contributions are T*S = T*(S(el)+S(vib)+S(rot)+S(trans))
     S(el)   - electronic entropy
     S(vib)  - vibrational entropy
     S(rot)  - rotational entropy
     S(trans)- translational entropy
The entropies will be listed as multiplied by the temperature to get
units of energy

Electronic entropy                ...      0.00000000 Eh      0.00 kcal/mol
Vibrational entropy               ...      0.01396127 Eh      8.76 kcal/mol
Rotational entropy                ...      0.01498617 Eh      9.40 kcal/mol
Translational entropy             ...      0.01970567 Eh     12.37 kcal/mol
-----------------------------------------------------------------------
Final entropy term                ...      0.04865311 Eh     30.53 kcal/mol

In case the symmetry of your molecule has not been determined correctly
or in case you have a reason to use a different symmetry number we print 
out the resulting rotational entropy values for sn=1,12:

 non-linear molecules -----------------------------------
|  sn= 1 | S(rot)=       0.01498617 Eh      9.40 kcal/mol|
|  sn= 2 | S(rot)=       0.01433171 Eh      8.99 kcal/mol|
|  sn= 3 | S(rot)=       0.01394888 Eh      8.75 kcal/mol|
|  sn= 4 | S(rot)=       0.01367725 Eh      8.58 kcal/mol|
|  sn= 5 | S(rot)=       0.01346656 Eh      8.45 kcal/mol|
|  sn= 6 | S(rot)=       0.01329442 Eh      8.34 kcal/mol|
|  sn= 7 | S(rot)=       0.01314887 Eh      8.25 kcal/mol|
|  sn= 8 | S(rot)=       0.01302280 Eh      8.17 kcal/mol|
|  sn= 9 | S(rot)=       0.01291159 Eh      8.10 kcal/mol|
|  sn=10 | S(rot)=       0.01281211 Eh      8.04 kcal/mol|
|  sn=11 | S(rot)=       0.01272212 Eh      7.98 kcal/mol|
|  sn=12 | S(rot)=       0.01263996 Eh      7.93 kcal/mol|
 linear molecules ---------------------------------------
|  Dinfh | S(rot)=       0.00948625 Eh      5.95 kcal/mol|
|  Cinfv | S(rot)=       0.01014070 Eh      6.36 kcal/mol|
 --------------------------------------------------------


-------------------
GIBBS FREE ENERGY
-------------------

The Gibbs free energy is G = H - T*S

Total enthalpy                    ...   -540.37042176 Eh 
Total entropy correction          ...     -0.04865311 Eh    -30.53 kcal/mol
-----------------------------------------------------------------------
Final Gibbs free energy         ...   -540.41907487 Eh

For completeness - the Gibbs free energy minus the electronic energy
G-E(el)                           ...      0.17665933 Eh    110.86 kcal/mol


Maximum memory used throughout the entire PROP-calculation: 229.5 MB

--------------------------------
SUGGESTED CITATIONS FOR THIS RUN
--------------------------------

Below you find a list of papers that are relevant to this ORCA run
We neither can nor want to force you to cite these papers, but we appreciate if you do
You receive ORCA, which is the product of decades of hard work by many enthusiastic individuals, for free
The only thing we kindly ask in return is that you cite our papers,
We deeply appreciate it, if you show your appreciation for ORCA by not just citing the generic ORCA reference.

Please note that relegating all ORCA citations to the supporting information does *not* help us.
SI sections are not indexed - citations you put there will not count into any citation statistics
But we need these citations in order to attract the funding resources that allow us to do what we are doing

Therefore, if you are a happy ORCA user, please consider citing a few of the papers listed below in the main body of your paper

In addition to the list printed below, the program has created the file cs_rporg_015_red_freq_06.bibtex that contains the list in bibtex format
You can import this file easily into all common literature databanks and citation aid programs


List of essential papers. We consider these as the minimum necessary citations

  1. Neese,F.
     Software update: the ORCA program system, version 5.0
     WIRES Comput. Molec. Sci., 2022 12(1)e1606
     doi.org/10.1002/wcms.1606

List of papers to cite with high priority. The work reported in these papers was absolutely
necessary for this run to complete.
Our perspective: the developers of density functionals and basis sets usually get cited in chemistry papers
Good! But without the algorithms to do something with them, the functionals or basis sets would not do anything.
Hence, in our opinion, the algorithm design and method developments papers are equally worthy of getting cited

  1. Neese,F.
     An improvement of the resolution of the identity approximation for the formation of the Coulomb matrix
     J. Comp. Chem., 2003 24(14)1740-1747
     doi.org/10.1002/jcc.10318
  2. Bykov,D.; Petrenko,T.; Izsak,R.; Kossmann,S.; Becker,U.; Valeev,E.; Neese,F.
     Efficient implementation of the analytic second derivatives of Hartree-Fock and hybrid DFT energies: a detailed analysis of different approximations
     Molec. Phys., 2015 113 1961-1977
     doi.org/10.1080/00268976.2015.1025114
  3. Garcia-Rates,M.; Neese,F.
     Efficient implementation of the analytical second derivatives of hartree-fock and hybrid DFT energies within the framework of the conductor-like polarizable continuum model
     J. Comput. Chem., 2019 40 1816-1828
     doi.org/10.1002/jcc.25833
  4. Garcia-Rates,M.; Neese,F.
     Effect of the Solute Cavity on the Solvation Energy and its Derivatives within the Framework of the Gaussian Charge Scheme
     J. Comput. Chem., 2020 41 922-939
     doi.org/10.1002/jcc.26139
  5. Neese,F.
     The SHARK Integral Generation and Digestion System
     J. Comp. Chem., 2022  1-16
     doi.org/10.1002/jcc.26942
  6. Lehtola,S.; Steigemann,C.; Oliveira,M.; Marques,M.
     Recent developments in Libxc - A comprehensive library of functionals for density functional theory
     Software X, 2018 7 
     doi.org/10.1016/j.softx.2017.11.002
  7. Grimme,S.; Antony,J.; Ehrlich,S.; Krieg,H.
     A consistent and accurate ab initio parametrization of density functional dispersion correction (DFT-D) for the 94 elements H-Pu
     J. Chem. Phys., 2010 132 154104-XXXX
     doi.org/10.1063/1.3382344
  8. Grimme,S.; Ehrlich,S.; Goerigk,L.
     Effect of the damping function in dispersion corrected density functional theory
     J. Comput. Chem., 2011 32(7)1456-1465
     doi.org/10.1002/jcc.21759

List of suggested additional citations. These are papers that are important in the 'surrounding' of 
of this run, or papers that preceded the highly important papers. If you like your results we are grateful for a citation.

  1. Neese,F.
     The ORCA program system
     WIRES Comput. Molec. Sci., 2012 2(1)73-78
     doi.org/10.1002/wcms.81
  2. Neese,F.
     Software update: the ORCA program system, version 4.0
     WIRES Comput. Molec. Sci., 2018 8(1)1-6
     doi.org/10.1002/wcms.1327
  3. Neese,F.; Wennmohs,F.; Becker,U.; Riplinger,C.
     The ORCA quantum chemistry program package
     J. Chem. Phys., 2020 152 Art. No. L224108
     doi.org/10.1063/5.0004608

List of optional additional citations

  1. Neese,F.
     Approximate second-order SCF convergence for spin unrestricted wavefunctions
     Chem. Phys. Lett., 2000 325(1-3)93-98
     doi.org/10.1016/s0009-2614(00)00662-x

Timings for individual modules:

Sum of individual times          ...     3525.909 sec (=  58.765 min)
Startup calculation              ...        9.029 sec (=   0.150 min)   0.3 %
SCF iterations                   ...      187.895 sec (=   3.132 min)   5.3 %
Property integrals               ...     1751.898 sec (=  29.198 min)  49.7 %
SCF Response                     ...     1250.876 sec (=  20.848 min)  35.5 %
Property calculations            ...      326.211 sec (=   5.437 min)   9.3 %
                             ****ORCA TERMINATED NORMALLY****
TOTAL RUN TIME: 0 days 0 hours 58 minutes 49 seconds 647 msec
