
                                 *****************
                                 * O   R   C   A *
                                 *****************

                                            #,                                       
                                            ###                                      
                                            ####                                     
                                            #####                                    
                                            ######                                   
                                           ########,                                 
                                     ,,################,,,,,                         
                               ,,#################################,,                 
                          ,,##########################################,,             
                       ,#########################################, ''#####,          
                    ,#############################################,,   '####,        
                  ,##################################################,,,,####,       
                ,###########''''           ''''###############################       
              ,#####''   ,,,,##########,,,,          '''####'''          '####       
            ,##' ,,,,###########################,,,                        '##       
           ' ,,###''''                  '''############,,,                           
         ,,##''                                '''############,,,,        ,,,,,,###''
      ,#''                                            '''#######################'''  
     '                                                          ''''####''''         
             ,#######,   #######,   ,#######,      ##                                
            ,#'     '#,  ##    ##  ,#'     '#,    #''#        ,####,   ,####,        
            ##       ##  ##   ,#'  ##            #'  '#       #'       #'  '#        
            ##       ##  #######   ##           ,######,      #####,   #    #        
            '#,     ,#'  ##    ##  '#,     ,#' ,#      #,     #,   #   #,  ,#        
             '#######'   ##     ##  '#######'  #'      '#     '####' # '####'        



                #########################################################
                #                        -***-                          #
                #          Department of theory and spectroscopy        #
                #                                                       #
                #                      Frank Neese                      #
                #                                                       #
                #     Directorship, Architecture, Infrastructure        #
                #                    SHARK, DRIVERS                     #
                #        Core code/Algorithms in most modules           #
                #                                                       #
                #        Max Planck Institute fuer Kohlenforschung      #
                #                Kaiser Wilhelm Platz 1                 #
                #                 D-45470 Muelheim/Ruhr                 #
                #                      Germany                          #
                #                                                       #
                #                  All rights reserved                  #
                #                        -***-                          #
                #########################################################


                         Program Version 6.0.0  -   RELEASE  -


 With contributions from (in alphabetic order):
   Daniel Aravena         : Magnetic Suceptibility
   Michael Atanasov       : Ab Initio Ligand Field Theory (pilot matlab implementation)
   Alexander A. Auer      : GIAO ZORA, VPT2 properties, NMR spectrum
   Ute Becker             : All parallelization in ORCA, NUMFREQ, NUMCALC
   Giovanni Bistoni       : ED, misc. LED, open-shell LED, HFLD
   Martin Brehm           : Molecular dynamics
   Dmytro Bykov           : pre 5.0 version of the SCF Hessian
   Marcos Casanova-Páez   : Triplet and SCS-CIS(D). UHF-(DLPNO)-IP/EA/STEOM-CCSD. UHF-CVS-IP/STEOM-CCSD
   Vijay G. Chilkuri      : MRCI spin determinant printing, contributions to CSF-ICE
   Pauline Colinet        : FMM embedding
   Dipayan Datta          : RHF DLPNO-CCSD density
   Achintya Kumar Dutta   : EOM-CC, STEOM-CC
   Nicolas Foglia         : Exact transition moments, OPA infrastructure, MCD improvements
   Dmitry Ganyushin       : Spin-Orbit,Spin-Spin,Magnetic field MRCI
   Miquel Garcia          : C-PCM and meta-GGA Hessian, CCSD/C-PCM, Gaussian charge scheme
   Tiago L. C. Gouveia    : GS-ROHF, GS-ROCIS
   Yang Guo               : DLPNO-NEVPT2, F12-NEVPT2, CIM, IAO-localization
   Andreas Hansen         : Spin unrestricted coupled pair/coupled cluster methods
   Ingolf Harden          : AUTO-CI MPn and infrastructure 
   Benjamin Helmich-Paris : MC-RPA, TRAH-(SCF,CASSCF), AVAS, COSX integrals, SCF dyn. polar.
   Lee Huntington         : MR-EOM, pCC
   Robert Izsak           : Overlap fitted RIJCOSX, COSX-SCS-MP3, EOM
   Riya Kayal             : Wick's Theorem for AUTO-CI, AUTO-CI UHF-CCSDT
   Emily Kempfer          : AUTO-CI, RHF CISDT and CCSDT
   Christian Kollmar      : KDIIS, OOCD, Brueckner-CCSD(T), CCSD density, CASPT2, CASPT2-K, improved NEVPT2
   Axel Koslowski         : Symmetry handling
   Simone Kossmann        : Meta GGA functionals, TD-DFT gradient, OOMP2, (MP2 Hessian; deprecated post 5.0)
   Lucas Lang             : DCDCAS
   Marvin Lechner         : AUTO-CI (C++ implementation), FIC-MRCC
   Spencer Leger          : CASSCF response
   Dagmar Lenk            : GEPOL surface, SMD, ORCA-2-JSON
   Dimitrios Liakos       : Extrapolation schemes; Compound Job, initial MDCI parallelization
   Dimitrios Manganas     : Further ROCIS development; embedding schemes. LFT, Crystal Embedding
   Dimitrios Pantazis     : SARC Basis sets
   Anastasios Papadopoulos: AUTO-CI, single reference methods and gradients
   Taras Petrenko         : pre 6.0 DFT Hessian and TD-DFT gradient, (ASA, deprecated), ECA, 1-Electron XAS/XES, NRVS
   Peter Pinski           : DLPNO-MP2, DLPNO-MP2 Gradient
   Christoph Reimann      : Effective Core Potentials
   Marius Retegan         : Local ZFS, SOC
   Christoph Riplinger    : Optimizer, TS searches, QM/MM, DLPNO-CCSD(T), (RO)-DLPNO pert. Triples
   Michael Roemelt        : Original ROCIS implementation
   Masaaki Saitow         : Open-shell DLPNO-CCSD energy and density
   Barbara Sandhoefer     : DKH picture change effects
   Kantharuban Sivalingam : CASSCF convergence/infrastructure, NEVPT2 and variants, FIC-MRCI
   Bernardo de Souza      : ESD, SOC TD-DFT
   Georgi Stoychev        : AutoAux, RI-MP2 NMR, DLPNO-MP2 response, X2C
   Van Anh Tran           : RI-MP2 g-tensors
   Willem Van den Heuvel  : Paramagnetic NMR
   Zikuan Wang            : NOTCH, Electric field optimization 
   Frank Wennmohs         : Technical directorship and infrastructure
   Hang Xu                : AUTO-CI-Response properties 


 We gratefully acknowledge several colleagues who have allowed us to
 interface, adapt or use parts of their codes:
   Stefan Grimme, W. Hujo, H. Kruse, P. Pracht,  : VdW corrections, initial TS optimization,
                  C. Bannwarth, S. Ehlert,         DFT functionals, gCP, sTDA/sTD-DF
                  L. Wittmann, M. Mueller
   Ed Valeev, F. Pavosevic, A. Kumar             : LibInt (2-el integral package), F12 methods
   Garnet Chan, S. Sharma, J. Yang, R. Olivares  : DMRG
   Ulf Ekstrom                                   : XCFun DFT Library
   Mihaly Kallay                                 : mrcc  (arbitrary order and MRCC methods)
   Frank Weinhold                                : gennbo (NPA and NBO analysis)
   Simon Mueller                                 : openCOSMO-RS
   Christopher J. Cramer and Donald G. Truhlar   : smd solvation model
   Lars Goerigk                                  : TD-DFT with DH, B97 family of functionals
   V. Asgeirsson, H. Jonsson                     : NEB implementation
   FAccTs GmbH                                   : IRC, NEB, NEB-TS, DLPNO-Multilevel, CI-OPT
                                                   MM, QMMM, 2- and 3-layer-ONIOM, Crystal-QMMM,
                                                   LR-CPCM, SF, NACMEs, symmetry and pop. for TD-DFT,
                                                   nearIR, NL-DFT gradient (VV10), updates on ESD,
                                                   ML-optimized integration grids, MBIS, APM,
                                                   GOAT, DOCKER, SOLVATOR, interface openCOSMO-RS
   S Lehtola, MJT Oliveira, MAL Marques          : LibXC Library
   Liviu Ungur et al                             : ANISO software


 Your calculation uses the libint2 library for the computation of 2-el integrals
 For citations please refer to: http://libint.valeyev.net

 Your ORCA version has been built with support for libXC version: 6.2.2
 For citations please refer to: https://libxc.gitlab.io

 This ORCA versions uses:
   CBLAS   interface :  Fast vector & matrix operations
   LAPACKE interface :  Fast linear algebra routines
   SCALAPACK package :  Parallel linear algebra routines
   Shared memory     :  Shared parallel matrices
   BLAS/LAPACK       :  OpenBLAS 0.3.27  USE64BITINT DYNAMIC_ARCH NO_AFFINITY SkylakeX SINGLE_THREADED
        Core in use  :  SkylakeX
   Copyright (c) 2011-2014, The OpenBLAS Project


NOTE: MaxCore=3000 MB was set to SCF,MP2,MDCI,CIPSI,MRCI and CIS
      => If you want to overwrite this, your respective input block should be placed after the MaxCore statement
Your calculation utilizes the atom-pairwise dispersion correction
with the Becke-Johnson damping scheme (D3BJ)


Your calculation utilizes the SMD solvation module
Please cite in your paper:
A.V. Marenich, C.J. Cramer, D.G. Truhlar J. Phys. Chem. B, 113, (2009), 6378 

Warning: RI is on but no J-basis has been assigned. Assigning Def2/J (nothing to worry about!)
================================================================================

----- Orbital basis set information -----
Your calculation utilizes the basis: aug-cc-pVTZ 
    H, B-Ne : Obtained from the ccRepo (grant-hill.group.shef.ac.uk/ccrepo) Feb. 2017
              R. A. Kendall, T. H. Dunning, Jr., R. J. Harrison, J. Chem. Phys. 96, 6796 (1992)
         He : Obtained from the ccRepo (grant-hill.group.shef.ac.uk/ccrepo) Feb. 2017
              D. E. Woon, T. H. Dunning, Jr., J. Chem. Phys. 100, 2975 (1994)
  Li-Be, Na : Obtained from the ccRepo (grant-hill.group.shef.ac.uk/ccrepo) Feb. 2017
              B. P. Prascher, D. E. Woon, K. A. Peterson, T. H. Dunning, Jr., A. K. Wilson, Theor. Chem. Acc. 128, 69 (2011)
         Mg : Obtained from the Peterson Research Group Website (tyr0.chem.wsu.edu/~kipeters) Feb. 2017
              B. P. Prascher, D. E. Woon, K. A. Peterson, T. H. Dunning, Jr., A. K. Wilson, Theor. Chem. Acc. 128, 69 (2011)
      Al-Ar : Obtained from the ccRepo (grant-hill.group.shef.ac.uk/ccrepo) Feb. 2017
              D. E. Woon, T. H. Dunning, Jr., J. Chem. Phys. 98, 1358 (1993)
      Sc-Zn : Obtained from the ccRepo (grant-hill.group.shef.ac.uk/ccrepo) Feb. 2017
              N. B. Balabanov, K. A. Peterson, J. Chem. Phys. 123, 064107 (2005)
              N. B. Balabanov, K. A. Peterson, J. Chem. Phys. 125, 074110 (2006)
      Ga-Kr : Obtained from the ccRepo (grant-hill.group.shef.ac.uk/ccrepo) Feb. 2017
              A. K. Wilson, D. E. Woon, K. A. Peterson, T. H. Dunning, Jr., J. Chem. Phys. 110, 7667 (1999)
     Ag, Au : Obtained from the Peterson Research Group Website (tyr0.chem.wsu.edu/~kipeters) Feb. 2017
              K. A. Peterson, C. Puzzarini, Theor. Chem. Acc. 114, 283 (2005)

----- AuxJ basis set information -----
Your calculation utilizes the auxiliary basis: def2/J
   F. Weigend, Phys. Chem. Chem. Phys. 8, 1057 (2006).

================================================================================
                                        WARNINGS
                       Please study these warnings very carefully!
================================================================================

Using LibXC functional ID 497 : Re-regularized SCAN exchange by Furness et al
[ 1]  J. W. Furness, A. D. Kaplan, J. Ning, J. P. Perdew, and J. Sun.,  J. Phys. Chem. Lett. 11, 8208-8215 (2020)
[ 2]  J. W. Furness, A. D. Kaplan, J. Ning, J. P. Perdew, and J. Sun.,  J. Phys. Chem. Lett. 11, 9248-9248 (2020)
Using LibXC functional ID 498 : Re-regularized SCAN correlation by Furness et al
[ 1]  J. W. Furness, A. D. Kaplan, J. Ning, J. P. Perdew, and J. Sun.,  J. Phys. Chem. Lett. 11, 8208-8215 (2020)
[ 2]  J. W. Furness, A. D. Kaplan, J. Ning, J. P. Perdew, and J. Sun.,  J. Phys. Chem. Lett. 11, 9248-9248 (2020)
Using LibXC functional ID 497 : Re-regularized SCAN exchange by Furness et al
[ 1]  J. W. Furness, A. D. Kaplan, J. Ning, J. P. Perdew, and J. Sun.,  J. Phys. Chem. Lett. 11, 8208-8215 (2020)
[ 2]  J. W. Furness, A. D. Kaplan, J. Ning, J. P. Perdew, and J. Sun.,  J. Phys. Chem. Lett. 11, 9248-9248 (2020)
Using LibXC functional ID 498 : Re-regularized SCAN correlation by Furness et al
[ 1]  J. W. Furness, A. D. Kaplan, J. Ning, J. P. Perdew, and J. Sun.,  J. Phys. Chem. Lett. 11, 8208-8215 (2020)
[ 2]  J. W. Furness, A. D. Kaplan, J. Ning, J. P. Perdew, and J. Sun.,  J. Phys. Chem. Lett. 11, 9248-9248 (2020)


WARNING: Found flag for RIJCOSX approximation but no HF exchange needed!
  ===> : RIJCOSX  will be disabled and Split-RI-J is turned on

================================================================================
                                       INPUT FILE
================================================================================
NAME = cs_rporg_064_red_solv_03.inp
|  1> !r2SCAN aug-cc-pVTZ d3 TightSCF SlowConv RIJCOSX defgrid2
|  2>  
|  3> %pal
|  4> nprocs 4
|  5> end
|  6>  
|  7> %scf
|  8> MaxIter 1500
|  9> end
| 10>  
| 11> %maxcore 3000
| 12>  
| 13> !CPCM
| 14> %cpcm smd true
| 15> SMDsolvent "MeCN"
| 16> surfacetype gepol_ses
| 17> rsolv 2.19
| 18> end 
| 19>  
| 20> * xyz 0 1
| 21> C          -0.70040560978015      1.38862025457992      0.01444069210645
| 22> C          -1.91245524702018      0.69567306005554      0.01462586157947
| 23> C          -1.91249387248428     -0.69558156366748     -0.01462751179559
| 24> C          -0.70048149668899     -1.38859471559027     -0.01444474347923
| 25> C           0.51701567119323     -0.70749863359451      0.00344351300980
| 26> N           1.75688785576029     -1.35032496518044     -0.01869709041630
| 27> H           2.43013802514878     -0.92879340551386      0.62128772624243
| 28> H           1.70402046370050     -2.35551735549936      0.11662272713410
| 29> C           0.51705531626238      0.70745871640913     -0.00345498008622
| 30> N           1.75696057869555      1.35021757408851      0.01868096018628
| 31> H           2.43019999443086      0.92862198390732     -0.62127304374208
| 32> H           1.70415275870095      2.35540776572739     -0.11667373624575
| 33> H          -0.69435322474112     -2.48383255240663     -0.01483473135793
| 34> H          -2.85473613557899     -1.25061144525607     -0.02611079663032
| 35> H          -2.85466720705613      1.25075497082180      0.02610952373100
| 36> H          -0.69421807054270      2.48385751111900      0.01483302976389
| 37> *
| 38> 
| 39>                          ****END OF INPUT****
================================================================================

                       ****************************
                       * Single Point Calculation *
                       ****************************

---------------------------------
CARTESIAN COORDINATES (ANGSTROEM)
---------------------------------
  C     -0.700406    1.388620    0.014441
  C     -1.912455    0.695673    0.014626
  C     -1.912494   -0.695582   -0.014628
  C     -0.700481   -1.388595   -0.014445
  C      0.517016   -0.707499    0.003444
  N      1.756888   -1.350325   -0.018697
  H      2.430138   -0.928793    0.621288
  H      1.704020   -2.355517    0.116623
  C      0.517055    0.707459   -0.003455
  N      1.756961    1.350218    0.018681
  H      2.430200    0.928622   -0.621273
  H      1.704153    2.355408   -0.116674
  H     -0.694353   -2.483833   -0.014835
  H     -2.854736   -1.250611   -0.026111
  H     -2.854667    1.250755    0.026110
  H     -0.694218    2.483858    0.014833

----------------------------
CARTESIAN COORDINATES (A.U.)
----------------------------
  NO LB      ZA    FRAG     MASS         X           Y           Z
   0 C     6.0000    0    12.011   -1.323575    2.624112    0.027289
   1 C     6.0000    0    12.011   -3.614017    1.314632    0.027639
   2 C     6.0000    0    12.011   -3.614090   -1.314459   -0.027642
   3 C     6.0000    0    12.011   -1.323718   -2.624064   -0.027297
   4 C     6.0000    0    12.011    0.977018   -1.336979    0.006507
   5 N     7.0000    0    14.007    3.320037   -2.551744   -0.035332
   6 H     1.0000    0     1.008    4.592295   -1.755165    1.174064
   7 H     1.0000    0     1.008    3.220132   -4.451283    0.220385
   8 C     6.0000    0    12.011    0.977093    1.336903   -0.006529
   9 N     7.0000    0    14.007    3.320174    2.551541    0.035302
  10 H     1.0000    0     1.008    4.592412    1.754841   -1.174036
  11 H     1.0000    0     1.008    3.220382    4.451076   -0.220481
  12 H     1.0000    0     1.008   -1.312137   -4.693763   -0.028034
  13 H     1.0000    0     1.008   -5.394669   -2.363313   -0.049342
  14 H     1.0000    0     1.008   -5.394539    2.363584    0.049340
  15 H     1.0000    0     1.008   -1.311882    4.693810    0.028030

--------------------------------
INTERNAL COORDINATES (ANGSTROEM)
--------------------------------
 C      0   0   0     0.000000000000     0.00000000     0.00000000
 C      1   0   0     1.396151915739     0.00000000     0.00000000
 C      2   1   0     1.391562139962   119.75142707     0.00000000
 C      3   2   1     1.396152305883   119.75135688     1.39463495
 C      4   3   2     1.395174260238   121.01325305   359.46090939
 N      5   4   3     1.396781633958   123.34954432   181.13810441
 H      6   5   4     1.020066278205   112.68954741   221.89487476
 H      6   5   4     1.015636822747   114.02712005   349.72390849
 C      1   2   3     1.395174685338   121.01328817   359.46114824
 N      9   1   2     1.396779871271   123.34955011   181.13800872
 H     10   9   1     1.020066311425   112.68957202   221.89195073
 H     10   9   1     1.015636195232   114.02728907   349.72155549
 H      4   3   2     1.095255051119   120.08095132   178.63615799
 H      3   2   1     1.093622657798   120.50725600   180.68596610
 H      2   1   3     1.093622960527   119.73756697   180.70325807
 H      1   2   3     1.095254804912   120.08094297   178.63629980

---------------------------
INTERNAL COORDINATES (A.U.)
---------------------------
 C      0   0   0     0.000000000000     0.00000000     0.00000000
 C      1   0   0     2.638344762095     0.00000000     0.00000000
 C      2   1   0     2.629671342862   119.75142707     0.00000000
 C      3   2   1     2.638345499362   119.75135688     1.39463495
 C      4   3   2     2.636497260947   121.01325305   359.46090939
 N      5   4   3     2.639534757072   123.34954432   181.13810441
 H      6   5   4     1.927645904255   112.68954741   221.89487476
 H      6   5   4     1.919275446518   114.02712005   349.72390849
 C      1   2   3     2.636498064268   121.01328817   359.46114824
 N      9   1   2     2.639531426075   123.34955011   181.13800872
 H     10   9   1     1.927645967032   112.68957202   221.89195073
 H     10   9   1     1.919274260687   114.02728907   349.72155549
 H      4   3   2     2.069732093409   120.08095132   178.63615799
 H      3   2   1     2.066647317089   120.50725600   180.68596610
 H      2   1   3     2.066647889164   119.73756697   180.70325807
 H      1   2   3     2.069731628144   120.08094297   178.63629980

---------------------
BASIS SET INFORMATION
---------------------
There are 3 groups of distinct atoms

 Group   1 Type C   : 19s6p3d2f contracted to 5s4p3d2f pattern {88111/3111/111/11}
 Group   2 Type N   : 19s6p3d2f contracted to 5s4p3d2f pattern {88111/3111/111/11}
 Group   3 Type H   : 6s3p2d contracted to 4s3p2d pattern {3111/111/11}

Atom   0C    basis set group =>   1
Atom   1C    basis set group =>   1
Atom   2C    basis set group =>   1
Atom   3C    basis set group =>   1
Atom   4C    basis set group =>   1
Atom   5N    basis set group =>   2
Atom   6H    basis set group =>   3
Atom   7H    basis set group =>   3
Atom   8C    basis set group =>   1
Atom   9N    basis set group =>   2
Atom  10H    basis set group =>   3
Atom  11H    basis set group =>   3
Atom  12H    basis set group =>   3
Atom  13H    basis set group =>   3
Atom  14H    basis set group =>   3
Atom  15H    basis set group =>   3
---------------------------------
AUXILIARY/J BASIS SET INFORMATION
---------------------------------
There are 3 groups of distinct atoms

 Group   1 Type C   : 12s5p4d2f1g contracted to 6s4p3d1f1g pattern {711111/2111/211/2/1}
 Group   2 Type N   : 12s5p4d2f1g contracted to 6s4p3d1f1g pattern {711111/2111/211/2/1}
 Group   3 Type H   : 5s2p1d contracted to 3s1p1d pattern {311/2/1}

Atom   0C    basis set group =>   1
Atom   1C    basis set group =>   1
Atom   2C    basis set group =>   1
Atom   3C    basis set group =>   1
Atom   4C    basis set group =>   1
Atom   5N    basis set group =>   2
Atom   6H    basis set group =>   3
Atom   7H    basis set group =>   3
Atom   8C    basis set group =>   1
Atom   9N    basis set group =>   2
Atom  10H    basis set group =>   3
Atom  11H    basis set group =>   3
Atom  12H    basis set group =>   3
Atom  13H    basis set group =>   3
Atom  14H    basis set group =>   3
Atom  15H    basis set group =>   3


           ************************************************************
           *        Program running with 4 parallel MPI-processes     *
           *              working on a common directory               *
           ************************************************************
------------------------------------------------------------------------------
                             ORCA STARTUP CALCULATIONS
                           -- RI-GTO INTEGRALS CHOSEN --
------------------------------------------------------------------------------
------------------------------------------------------------------------------
                   ___                                                        
                  /   \      - P O W E R E D   B Y -                         
                 /     \                                                     
                 |  |  |   _    _      __       _____    __    __             
                 |  |  |  | |  | |    /  \     |  _  \  |  |  /  |          
                  \  \/   | |  | |   /    \    | | | |  |  | /  /          
                 / \  \   | |__| |  /  /\  \   | |_| |  |  |/  /          
                |  |  |   |  __  | /  /__\  \  |    /   |      \           
                |  |  |   | |  | | |   __   |  |    \   |  |\   \          
                \     /   | |  | | |  |  |  |  | |\  \  |  | \   \       
                 \___/    |_|  |_| |__|  |__|  |_| \__\ |__|  \__/        
                                                                              
                      - O R C A' S   B I G   F R I E N D -                    
                                      &                                       
                       - I N T E G R A L  F E E D E R -                       
                                                                              
 v1 FN, 2020, v2 2021, v3 2022-2024                                           
------------------------------------------------------------------------------


----------------------
SHARK INTEGRAL PACKAGE
----------------------

Number of atoms                             ...     16
Number of basis functions                   ...    600
Number of shells                            ...    232
Maximum angular momentum                    ...      3
Integral batch strategy                     ... SHARK/LIBINT Hybrid
RI-J (if used) integral strategy            ... SPLIT-RIJ (Revised 2003 algorithm where possible)
Printlevel                                  ...      1
Contraction scheme used                     ... PARTIAL GENERAL contraction
Prescreening option                         ... SCHWARTZ
   Thresh                                   ... 2.500e-11
   Tcut                                     ... 2.500e-12
   Tpresel                                  ... 2.500e-12 
Coulomb Range Separation                    ... NOT USED
Exchange Range Separation                   ... NOT USED
Multipole approximations                    ... NOT USED
Finite Nucleus Model                        ... NOT USED
CABS basis                                  ... NOT available
Auxiliary Coulomb fitting basis             ... AVAILABLE
   # of basis functions in Aux-J            ...    480
   # of shells in Aux-J                     ...    160
   Maximum angular momentum in Aux-J        ...      4
Auxiliary J/K fitting basis                 ... NOT available
Auxiliary Correlation fitting basis         ... NOT available
Auxiliary 'external' fitting basis          ... NOT available

Checking pre-screening integrals            ... done (  0.0 sec) Dimension = 232
Save PGC pre-screening integrals            ... done (  0.0 sec) Dimension = 232
Calculate PGC overlap integrals             ... done (  0.1 sec) Dimension = 184
Calculating pre-screening integrals (ORCA)  ... done (  0.3 sec) Dimension = 184
Check shell pair data                       ... done (  0.0 sec)
Shell pair information
Shell pair cut-off parameter TPreSel        ...   2.5e-12
Total number of shell pairs                 ...     27028
Shell pairs after pre-screening             ...     23688
Total number of primitive shell pairs       ...     35028
Primitive shell pairs kept                  ...     28682
          la=0 lb=0:   5422 shell pairs
          la=1 lb=0:   6028 shell pairs
          la=1 lb=1:   1528 shell pairs
          la=2 lb=0:   4312 shell pairs
          la=2 lb=1:   2140 shell pairs
          la=2 lb=2:    788 shell pairs
          la=3 lb=0:   1824 shell pairs
          la=3 lb=1:    878 shell pairs
          la=3 lb=2:    632 shell pairs
          la=3 lb=3:    136 shell pairs

Calculating one electron integrals          ... done (  0.1 sec)
Calculating RI/J V-Matrix + Cholesky decomp.... done (  0.1 sec)
Calculating Nuclear repulsion               ... done (  0.0 sec) ENN=    351.092478595064 Eh

Diagonalization of the overlap matrix:
Smallest eigenvalue                        ... 5.174e-07
Time for diagonalization                   ...    0.048 sec
Threshold for overlap eigenvalues          ... 1.000e-07
Number of eigenvalues below threshold      ... 0

IMPORTANT:
Smallest eigenvalue of S below the DiffSThresh (1.000e-06) while
Thresh>1e-12 and/or TCut>1e-13! In order to avoid SCF convergence issues,
Thresh will be set to at least 1e-12 and TCut to at least 1e-13.
This can be turned off by adding %SCF DiffSThresh -1 END to the input.

Time for construction of square roots      ...    0.047 sec
Total time needed                          ...    0.129 sec

-------------------
DFT GRID GENERATION
-------------------

General Integration Accuracy     IntAcc      ... 4.388
Radial Grid Type                 RadialGrid  ... OptM3 with GC (2021)
Angular Grid (max. ang.)         AngularGrid ... 4 (Lebedev-302)
Angular grid pruning method      GridPruning ... 4 (adaptive)
Weight generation scheme         WeightScheme... mBecke (2022)
Basis function cutoff            BFCut       ... 1.0000e-11
Integration weight cutoff        WCut        ... 1.0000e-14
Partially contracted basis set               ... off
Rotationally invariant grid construction     ... off
Angular grids for H and He will be reduced by one unit
Diffuse basis detected: some atoms will have their outermost
                        angular grid increased by 1.

Total number of grid points                  ...    77488
Total number of batches                      ...     1220
Average number of points per batch           ...       63
Average number of grid points per atom       ...     4843

---------------------
SHARK GRID GENERATION
---------------------

General Integration Accuracy     IntAcc      ... 4.388
Radial Grid Type                 RadialGrid  ... OptM3 with GC (2021)
Angular Grid (max. ang.)         AngularGrid ... 4 (Lebedev-302)
Angular grid pruning method      GridPruning ... 4 (adaptive)
Weight generation scheme         WeightScheme... mBecke (2022)
Basis function cutoff            BFCut       ... 1.0000e-11
Integration weight cutoff        WCut        ... 1.0000e-14
Partially contracted basis set               ... off
Rotationally invariant grid construction     ... off
Angular grids for H and He will be reduced by one unit
Diffuse basis detected: some atoms will have their outermost
                        angular grid increased by 1.
Steep s-basis detected: some atoms will have their radial
                        grid points doubled.

Total number of grid points                  ...   128000
Total number of batches                      ...     2010
Average number of points per batch           ...       63
Average number of grid points per atom       ...     8000
Initializing property integral containers    ... done (  0.0 sec)

SHARK setup successfully completed in   5.5 seconds

Maximum memory used throughout the entire STARTUP-calculation: 61.9 MB


           ************************************************************
           *        Program running with 4 parallel MPI-processes     *
           *              working on a common directory               *
           ************************************************************
-------------------------------------------------------------------------------
                                 ORCA GUESS
                   Start orbitals & Density for SCF / CASSCF
-------------------------------------------------------------------------------

------------
SCF SETTINGS
------------
Hamiltonian:
 Density Functional     Method          .... DFT(GTOs)
  Functional kind                       .... Exchange
  Functional name                       .... Re-regularized SCAN exchange by Furness et al
  Functional family                     .... MGGA
  Functional refs                              
    [ 0] J. W. Furness, A. D. Kaplan, J. Ning, J. P. Perdew, and J. Sun.,  J. Phys. Chem. Lett. 11, 8208-8215 (2020), doi: 10.1021/acs.jpclett.0c02405
    [ 1] J. W. Furness, A. D. Kaplan, J. Ning, J. P. Perdew, and J. Sun.,  J. Phys. Chem. Lett. 11, 9248-9248 (2020), doi: 10.1021/acs.jpclett.0c03077
  Functional external parameters        .... 6
    Parameter  0 _c1        =  6.670000e-01 : c1 parameter        
    Parameter  1 _c2        =  8.000000e-01 : c2 parameter        
    Parameter  2 _d         =  1.240000e+00 : d parameter         
    Parameter  3 _k1        =  6.500000e-02 : k1 parameter        
    Parameter  4 _eta       =  1.000000e-03 : eta parameter       
    Parameter  5 _dp2       =  3.610000e-01 : dp2 parameter       
  Functional kind                       .... Correlation
  Functional name                       .... Re-regularized SCAN correlation by Furness et al
  Functional family                     .... MGGA
  Functional refs                              
    [ 0] J. W. Furness, A. D. Kaplan, J. Ning, J. P. Perdew, and J. Sun.,  J. Phys. Chem. Lett. 11, 8208-8215 (2020), doi: 10.1021/acs.jpclett.0c02405
    [ 1] J. W. Furness, A. D. Kaplan, J. Ning, J. P. Perdew, and J. Sun.,  J. Phys. Chem. Lett. 11, 9248-9248 (2020), doi: 10.1021/acs.jpclett.0c03077
  Functional external parameters        .... 1
    Parameter  0 _eta       =  1.000000e-03 : Regularization parameter
 Gradients option       PostSCFGGA      .... off
   NL short-range parameter             .... 12.300000
 RI-approximation to the Coulomb term is turned on
   Number of AuxJ basis functions       .... 480


General Settings:
 Integral files         IntName         .... cs_rporg_064_red_solv_03
 Hartree-Fock type      HFTyp           .... RHF
 Total Charge           Charge          ....    0
 Multiplicity           Mult            ....    1
 Number of Electrons    NEL             ....   58
 Basis Dimension        Dim             ....  552
 Nuclear Repulsion      ENuc            ....    351.0924785951 Eh

Convergence Acceleration:
 AO-DIIS                CNVDIIS         .... on
   Start iteration      DIISMaxIt       ....     0
   Startup error        DIISStart       ....  0.200000
   # of expansion vecs  DIISMaxEq       ....     5
   Bias factor          DIISBfac        ....   1.050
   Max. coefficient     DIISMaxC        ....  10.000
 MO-DIIS                CNVKDIIS        .... off
 Trust-Rad. Augm. Hess. CNVTRAH         .... auto
   Auto Start mean grad. ratio tolernc. ....  1.125000
   Auto Start start iteration           ....    50
   Auto Start num. interpolation iter.  ....    10
   Max. Number of Micro iterations      ....    24
   Max. Number of Macro iterations      .... Maxiter - #DIIS iter
   Number of Davidson start vectors     ....     2
   Converg. threshold    (grad. norm)   ....   1.000e-05
   Grad. Scal. Fac. for Micro threshold ....   0.100
   Minimum threshold for Micro iter.    ....   1.000e-02
   NR start threshold (gradient norm)   ....   1.000e-04
   Initial trust radius                 ....   0.400
   Minimum AH scaling param. (alpha)    ....   1.000
   Maximum AH scaling param. (alpha)    .... 1000.000
   Quad. conv. algorithm                .... NR
   White noise on init. David. guess    .... on
   Maximum white noise                  ....   0.010
   Pseudo random numbers                .... off
   Inactive MOs                         .... canonical
   Orbital update algorithm             .... Taylor
   Preconditioner                       .... Diag
   Full preconditioner red. dimension   ....   250
 SOSCF                  CNVSOSCF        .... on
   Start iteration      SOSCFMaxIt      ....   150
   Startup grad/error   SOSCFStart      ....  0.001000
   Hessian update       SOSCFHessUp     .... L-BFGS
 Level Shifting         CNVShift        .... on
   Level shift para.    LevelShift      ....    0.2500
   Turn off err/grad.   ShiftErr        ....    0.0000
 Zerner damping         CNVZerner       .... off
 Static damping         CNVDamp         .... on
   Fraction old density DampFac         ....    0.8500
   Max. Damping (<1)    DampMax         ....    0.9800
   Min. Damping (>=0)   DampMin         ....    0.0000
   Turn off err/grad.   DampErr         ....    0.0300

SCF Procedure:
 Maximum # iterations   MaxIter         ....  1500
 SCF integral mode      SCFMode         .... Direct
   Integral package                     .... SHARK and LIBINT hybrid scheme
 Reset frequency        DirectResetFreq ....    20
 Integral Threshold     Thresh          ....  1.000e-12 Eh
 Primitive CutOff       TCut            ....  1.000e-13 Eh

Convergence Tolerance:
 Convergence Check Mode ConvCheckMode   .... Total+1el-Energy
 Convergence forced     ConvForced      .... 0
 Energy Change          TolE            ....  1.000e-08 Eh
 1-El. energy change                    ....  1.000e-05 Eh
 Orbital Gradient       TolG            ....  1.000e-05
 Orbital Rotation angle TolX            ....  1.000e-05
 DIIS Error             TolErr          ....  5.000e-07

------------------------------
INITIAL GUESS: MODEL POTENTIAL
------------------------------
Loading Hartree-Fock densities                     ... done
Calculating cut-offs                               ... done
Initializing the effective Hamiltonian             ... done
Setting up the integral package (SHARK)            ... done
Starting the Coulomb interaction                   ... done (   0.4 sec)
Making the grid                                    ... done (   0.3 sec)
Mapping shells                                     ... done
Starting the XC term evaluation                    ... done (   0.6 sec)
  promolecular density results
     # of electrons  =     57.992883943
     EX              =    -46.136479939
     EC              =     -1.920760791
     EX+EC           =    -48.057240730
Transforming the Hamiltonian                       ... done (   0.0 sec)
Diagonalizing the Hamiltonian                      ... done (   0.1 sec)
Back transforming the eigenvectors                 ... done (   0.1 sec)
Now organizing SCF variables                       ... done
                      ------------------
                      INITIAL GUESS DONE (   1.8 sec)
                      ------------------
             **** ENERGY FILE WAS UPDATED (cs_rporg_064_red_solv_03.en.tmp) ****
Finished Guess after   2.7 sec
Maximum memory used throughout the entire GUESS-calculation: 44.3 MB


           ************************************************************
           *        Program running with 4 parallel MPI-processes     *
           *              working on a common directory               *
           ************************************************************

-------------------------------------------------------------------------------------------
                                      ORCA LEAN-SCF
                              memory conserving SCF solver
-------------------------------------------------------------------------------------------

--------------------
CPCM SOLVATION MODEL
--------------------
CPCM parameters:
  Epsilon                                         ...      35.6880
  Refrac                                          ...       1.3442
  Rsolv                                           ...       2.1900
  Surface type                                    ...    GEPOL SES
  Discretization scheme                           ... Constant num. charges
  Epsilon function type                           ...         CPCM
Solvent:                                          ... ACETONITRILE
SMD-CDS solvent descriptors:
  Soln                                            ...       1.3442
  Soln25                                          ...       1.3416
  Sola                                            ...       0.0700
  Solb                                            ...       0.3200
  Solg                                            ...      41.2500
  Solc                                            ...       0.0000
  Solh                                            ...       0.0000
Radii:
  Scheme                                          ... Element-dependent radii
  Radius for C  used is    3.4960 Bohr (=   1.8500 Ang.)
  Radius for N  used is    3.5716 Bohr (=   1.8900 Ang.)
  Radius for H  used is    2.2677 Bohr (=   1.2000 Ang.)
Calculating surface                               ...        done! (  0.0s)
Cavity surface points                             ...          502
Cavity Volume                                     ...     852.8313
Cavity Surface-area                               ...     503.6794
Calculating surface distance matrix               ...        done! (  0.0s)
Performing Cholesky decomposition & store         ...        done! (  0.0s)
Overall time for CPCM initialization              ...                 0.0s

----------------------------------------D-I-I-S--------------------------------------------
Iteration    Energy (Eh)           Delta-E    RMSDP     MaxDP     DIISErr   Damp  Time(sec)
-------------------------------------------------------------------------------------------
               ***  Starting incremental Fock matrix formation  ***
    1    -342.6748188437282465     0.00e+00  1.24e-03  7.38e-02  2.56e-01  0.850   7.6
    2    -342.7389647015027663    -6.41e-02  1.15e-03  5.16e-02  1.87e-01  0.850   8.0
                               ***Turning on AO-DIIS***
    3    -342.7810618794981679    -4.21e-02  8.14e-04  3.70e-02  1.24e-01  0.850   8.3
    4    -342.8077892274785086    -2.67e-02  6.69e-04  2.89e-02  9.79e-02  0.850   7.5
    5    -342.8269138199142958    -1.91e-02  5.62e-04  2.43e-02  8.19e-02  0.850   7.4
    6    -342.8417969900322646    -1.49e-02  4.76e-04  2.10e-02  6.92e-02  0.850   7.4
    7    -342.8538734445804153    -1.21e-02  4.02e-04  1.80e-02  5.80e-02  0.850   7.1
    8    -342.8638054548248988    -9.93e-03  3.38e-04  1.52e-02  4.82e-02  0.850   7.3
    9    -342.8719805831415783    -8.18e-03  2.85e-04  1.28e-02  4.03e-02  0.850   7.2
   10    -342.8787323355424519    -6.75e-03  2.41e-04  1.09e-02  3.39e-02  0.850   7.5
   11    -342.8843353486839192    -5.60e-03  2.05e-04  9.29e-03  2.85e-02  0.850   7.4
   12    -342.8890043242564047    -4.67e-03  1.16e-03  5.28e-02  2.39e-02  0.000   7.0
   13    -342.9139568629590826    -2.50e-02  3.69e-05  2.13e-03  2.51e-03  0.000   7.4
                              *** Initializing SOSCF ***
---------------------------------------S-O-S-C-F--------------------------------------
Iteration    Energy (Eh)           Delta-E    RMSDP     MaxDP     MaxGrad    Time(sec)
--------------------------------------------------------------------------------------
   14    -342.9139731694014586    -1.63e-05  1.13e-05  6.08e-04  4.54e-04     6.7
               *** Restarting incremental Fock matrix formation ***
   15    -342.9139748135506238    -1.64e-06  1.02e-05  7.23e-04  2.88e-05     8.6
   16    -342.9139748279272339    -1.44e-08  2.95e-06  1.83e-04  3.46e-05     5.9
   17    -342.9139748936665342    -6.57e-08  3.45e-06  2.13e-04  1.57e-05     6.1
   18    -342.9139748978150806    -4.15e-09  7.41e-07  6.37e-05  1.20e-05     6.9
                 **** Energy Check signals convergence ****

               *****************************************************
               *                     SUCCESS                       *
               *           SCF CONVERGED AFTER  18 CYCLES          *
               *****************************************************


SMD CDS free energy correction energy :                -0.16110     Kcal/mol
Total Energy after SMD CDS correction =              -342.914231634 Eh
             **** ENERGY FILE WAS UPDATED (cs_rporg_064_red_solv_03.en.tmp) ****

----------------
TOTAL SCF ENERGY
----------------

Total Energy       :       -342.91423163418034 Eh           -9331.17063 eV

Components:
Nuclear Repulsion  :        351.09247859506405 Eh            9553.71204 eV
Electronic Energy  :       -693.98769705096868 Eh          -18884.36530 eV
One Electron Energy:      -1158.92305135094739 Eh          -31535.89948 eV
Two Electron Energy:        464.93535429997871 Eh           12651.53418 eV
CPCM Dielectric    :         -0.01875644191043 Eh              -0.51039 eV
SMD CDS (Gcds)     :         -0.00025673636528 Eh              -0.00699 eV

Virial components:
Potential Energy   :       -683.84061802678923 Eh          -18608.24924 eV
Kinetic Energy     :        340.92638639260889 Eh            9277.07861 eV
Virial Ratio       :          2.00583071689641

DFT components:
N(Alpha)           :       28.999991060987 electrons
N(Beta)            :       28.999991060987 electrons
N(Total)           :       57.999982121974 electrons
E(X)               :      -47.360105885970 Eh       
E(C)               :       -1.877126622375 Eh       
E(XC)              :      -49.237232508345 Eh       

CPCM Solvation Model Properties:
Surface-charge          :         -0.04069145157645
Corrected charge        :         -0.00000000000000
Outlying charge corr.   :          0.00012968909938 Eh               0.00353 eV
Free-energy (cav+disp)  :         -0.00025673636528 Eh              -0.00699 eV

---------------
SCF CONVERGENCE
---------------

  Last Energy change         ...    4.1485e-09  Tolerance :   1.0000e-08
  Last MAX-Density change    ...    6.3733e-05  Tolerance :   1.0000e-07
  Last RMS-Density change    ...    7.4078e-07  Tolerance :   5.0000e-09
  Last DIIS Error            ...    4.5388e-04  Tolerance :   5.0000e-07
  Last Orbital Gradient      ...    1.1999e-05  Tolerance :   1.0000e-05
  Last Orbital Rotation      ...    3.3459e-05  Tolerance :   1.0000e-05


----------------
ORBITAL ENERGIES
----------------

  NO   OCC          E(Eh)            E(eV) 
   0   2.0000     -14.163059      -385.3964 
   1   2.0000     -14.163045      -385.3961 
   2   2.0000     -10.069589      -274.0075 
   3   2.0000     -10.069221      -273.9974 
   4   2.0000     -10.029842      -272.9259 
   5   2.0000     -10.029828      -272.9255 
   6   2.0000     -10.027975      -272.8751 
   7   2.0000     -10.027521      -272.8627 
   8   2.0000      -0.899471       -24.4758 
   9   2.0000      -0.852509       -23.1979 
  10   2.0000      -0.792830       -21.5740 
  11   2.0000      -0.696809       -18.9611 
  12   2.0000      -0.680308       -18.5121 
  13   2.0000      -0.579761       -15.7761 
  14   2.0000      -0.556843       -15.1525 
  15   2.0000      -0.488151       -13.2833 
  16   2.0000      -0.480870       -13.0851 
  17   2.0000      -0.453886       -12.3509 
  18   2.0000      -0.437953       -11.9173 
  19   2.0000      -0.404551       -11.0084 
  20   2.0000      -0.385621       -10.4933 
  21   2.0000      -0.383204       -10.4275 
  22   2.0000      -0.365850        -9.9553 
  23   2.0000      -0.323733        -8.8092 
  24   2.0000      -0.307854        -8.3771 
  25   2.0000      -0.288762        -7.8576 
  26   2.0000      -0.282700        -7.6926 
  27   2.0000      -0.210692        -5.7332 
  28   2.0000      -0.175718        -4.7815 
  29   0.0000      -0.025182        -0.6852 
  30   0.0000      -0.011172        -0.3040 
  31   0.0000       0.003171         0.0863 
  32   0.0000       0.018148         0.4938 
  33   0.0000       0.022580         0.6144 
  34   0.0000       0.037420         1.0183 
  35   0.0000       0.042860         1.1663 
  36   0.0000       0.042974         1.1694 
  37   0.0000       0.051449         1.4000 
  38   0.0000       0.064259         1.7486 
  39   0.0000       0.068067         1.8522 
*Only the first 10 virtual orbitals were printed.

                    ********************************
                    * MULLIKEN POPULATION ANALYSIS *
                    ********************************

-----------------------
MULLIKEN ATOMIC CHARGES
-----------------------
   0 C :   -0.962360
   1 C :   -0.510922
   2 C :   -0.510712
   3 C :   -0.961237
   4 C :    1.148430
   5 N :   -0.584144
   6 H :    0.065518
   7 H :   -0.007864
   8 C :    1.147132
   9 N :   -0.584284
  10 H :    0.065318
  11 H :   -0.008045
  12 H :    0.385120
  13 H :    0.465924
  14 H :    0.466009
  15 H :    0.386116
Sum of atomic charges:    0.0000000

--------------------------------
MULLIKEN REDUCED ORBITAL CHARGES
--------------------------------
  0 C s       :     4.045319  s :     4.045319
      pz      :     1.035508  p :     2.847070
      px      :     0.898668
      py      :     0.912893
      dz2     :    -0.004264  d :     0.092901
      dxz     :     0.024233
      dyz     :     0.010210
      dx2y2   :     0.059870
      dxy     :     0.002852
      f0      :     0.000499  f :    -0.022929
      f+1     :    -0.000168
      f-1     :     0.000755
      f+2     :    -0.000734
      f-2     :    -0.000268
      f+3     :    -0.021262
      f-3     :    -0.001751

  1 C s       :     3.591982  s :     3.591982
      pz      :     0.997996  p :     2.882678
      px      :     0.958925
      py      :     0.925757
      dz2     :    -0.013528  d :     0.049517
      dxz     :     0.013454
      dyz     :     0.031115
      dx2y2   :     0.012954
      dxy     :     0.005521
      f0      :     0.000363  f :    -0.013254
      f+1     :     0.001072
      f-1     :     0.000352
      f+2     :    -0.000001
      f-2     :     0.000092
      f+3     :    -0.014563
      f-3     :    -0.000571

  2 C s       :     3.592105  s :     3.592105
      pz      :     0.997974  p :     2.882516
      px      :     0.958896
      py      :     0.925646
      dz2     :    -0.013515  d :     0.049355
      dxz     :     0.013448
      dyz     :     0.031114
      dx2y2   :     0.012931
      dxy     :     0.005377
      f0      :     0.000363  f :    -0.013265
      f+1     :     0.001072
      f-1     :     0.000350
      f+2     :    -0.000001
      f-2     :     0.000089
      f+3     :    -0.014572
      f-3     :    -0.000566

  3 C s       :     4.045086  s :     4.045086
      pz      :     1.035394  p :     2.846415
      px      :     0.898286
      py      :     0.912735
      dz2     :    -0.004271  d :     0.092680
      dxz     :     0.024166
      dyz     :     0.010197
      dx2y2   :     0.059827
      dxy     :     0.002761
      f0      :     0.000498  f :    -0.022944
      f+1     :    -0.000168
      f-1     :     0.000755
      f+2     :    -0.000735
      f-2     :    -0.000267
      f+3     :    -0.021277
      f-3     :    -0.001749

  4 C s       :     3.204703  s :     3.204703
      pz      :     0.925179  p :     1.770691
      px      :     0.264592
      py      :     0.580920
      dz2     :    -0.028783  d :    -0.046172
      dxz     :     0.033223
      dyz     :     0.006782
      dx2y2   :    -0.073167
      dxy     :     0.015772
      f0      :     0.001128  f :    -0.077652
      f+1     :    -0.001984
      f-1     :    -0.000651
      f+2     :    -0.001299
      f-2     :    -0.000867
      f+3     :    -0.062572
      f-3     :    -0.011408

  5 N s       :     3.940749  s :     3.940749
      pz      :     1.432462  p :     3.605983
      px      :     1.136269
      py      :     1.037252
      dz2     :    -0.005618  d :     0.031911
      dxz     :     0.021920
      dyz     :     0.005036
      dx2y2   :     0.000080
      dxy     :     0.010494
      f0      :     0.000772  f :     0.005501
      f+1     :     0.000003
      f-1     :     0.000078
      f+2     :     0.000696
      f-2     :     0.001052
      f+3     :     0.002127
      f-3     :     0.000773

  6 H s       :     0.838346  s :     0.838346
      pz      :     0.027388  p :     0.073378
      px      :     0.030780
      py      :     0.015211
      dz2     :     0.007524  d :     0.022757
      dxz     :     0.002444
      dyz     :     0.000690
      dx2y2   :     0.007931
      dxy     :     0.004168

  7 H s       :     0.900595  s :     0.900595
      pz      :     0.040324  p :     0.080199
      px      :     0.031273
      py      :     0.008602
      dz2     :     0.001167  d :     0.027070
      dxz     :     0.000321
      dyz     :     0.010246
      dx2y2   :     0.002835
      dxy     :     0.012502

  8 C s       :     3.204993  s :     3.204993
      pz      :     0.925331  p :     1.772157
      px      :     0.265396
      py      :     0.581430
      dz2     :    -0.028877  d :    -0.046726
      dxz     :     0.033041
      dyz     :     0.006831
      dx2y2   :    -0.073913
      dxy     :     0.016192
      f0      :     0.001133  f :    -0.077556
      f+1     :    -0.001985
      f-1     :    -0.000652
      f+2     :    -0.001289
      f-2     :    -0.000879
      f+3     :    -0.062466
      f-3     :    -0.011418

  9 N s       :     3.941033  s :     3.941033
      pz      :     1.432329  p :     3.605785
      px      :     1.136307
      py      :     1.037149
      dz2     :    -0.005645  d :     0.031956
      dxz     :     0.021911
      dyz     :     0.005014
      dx2y2   :     0.000134
      dxy     :     0.010542
      f0      :     0.000773  f :     0.005509
      f+1     :     0.000003
      f-1     :     0.000077
      f+2     :     0.000699
      f-2     :     0.001054
      f+3     :     0.002129
      f-3     :     0.000773

 10 H s       :     0.838389  s :     0.838389
      pz      :     0.027430  p :     0.073501
      px      :     0.030796
      py      :     0.015276
      dz2     :     0.007527  d :     0.022792
      dxz     :     0.002448
      dyz     :     0.000705
      dx2y2   :     0.007944
      dxy     :     0.004169

 11 H s       :     0.900677  s :     0.900677
      pz      :     0.040363  p :     0.080317
      px      :     0.031301
      py      :     0.008653
      dz2     :     0.001169  d :     0.027051
      dxz     :     0.000321
      dyz     :     0.010243
      dx2y2   :     0.002828
      dxy     :     0.012490

 12 H s       :     0.612300  s :     0.612300
      pz      :     0.021990  p :    -0.005990
      px      :     0.009531
      py      :    -0.037511
      dz2     :    -0.000289  d :     0.008570
      dxz     :    -0.000245
      dyz     :     0.005939
      dx2y2   :     0.001230
      dxy     :     0.001935

 13 H s       :     0.534064  s :     0.534064
      pz      :     0.018032  p :    -0.008848
      px      :    -0.023234
      py      :    -0.003647
      dz2     :    -0.000178  d :     0.008860
      dxz     :     0.004065
      dyz     :     0.001066
      dx2y2   :     0.002622
      dxy     :     0.001285

 14 H s       :     0.533967  s :     0.533967
      pz      :     0.018031  p :    -0.008838
      px      :    -0.023241
      py      :    -0.003628
      dz2     :    -0.000178  d :     0.008862
      dxz     :     0.004067
      dyz     :     0.001063
      dx2y2   :     0.002623
      dxy     :     0.001287

 15 H s       :     0.611275  s :     0.611275
      pz      :     0.021994  p :    -0.005961
      px      :     0.009541
      py      :    -0.037497
      dz2     :    -0.000289  d :     0.008570
      dxz     :    -0.000246
      dyz     :     0.005939
      dx2y2   :     0.001229
      dxy     :     0.001937



                     *******************************
                     * LOEWDIN POPULATION ANALYSIS *
                     *******************************

----------------------
LOEWDIN ATOMIC CHARGES
----------------------
   0 C :    0.190876
   1 C :    0.149219
   2 C :    0.149222
   3 C :    0.190882
   4 C :   -0.250252
   5 N :    0.853594
   6 H :   -0.300302
   7 H :   -0.286607
   8 C :   -0.250264
   9 N :    0.853569
  10 H :   -0.300341
  11 H :   -0.286600
  12 H :   -0.171933
  13 H :   -0.184563
  14 H :   -0.184564
  15 H :   -0.171936

-------------------------------
LOEWDIN REDUCED ORBITAL CHARGES
-------------------------------
  0 C s       :     2.486300  s :     2.486300
      pz      :     0.634436  p :     2.294007
      px      :     0.839449
      py      :     0.820122
      dz2     :     0.067660  d :     0.690049
      dxz     :     0.138547
      dyz     :     0.037761
      dx2y2   :     0.269301
      dxy     :     0.176780
      f0      :     0.019944  f :     0.338768
      f+1     :     0.031384
      f-1     :     0.019670
      f+2     :     0.016733
      f-2     :     0.062707
      f+3     :     0.127293
      f-3     :     0.061037

  1 C s       :     2.493759  s :     2.493759
      pz      :     0.627711  p :     2.305391
      px      :     0.829117
      py      :     0.848562
      dz2     :     0.067174  d :     0.716184
      dxz     :     0.069744
      dyz     :     0.114855
      dx2y2   :     0.199631
      dxy     :     0.264780
      f0      :     0.019422  f :     0.335447
      f+1     :     0.022249
      f-1     :     0.027789
      f+2     :     0.050911
      f-2     :     0.024020
      f+3     :     0.135341
      f-3     :     0.055715

  2 C s       :     2.493760  s :     2.493760
      pz      :     0.627707  p :     2.305387
      px      :     0.829117
      py      :     0.848563
      dz2     :     0.067174  d :     0.716184
      dxz     :     0.069738
      dyz     :     0.114860
      dx2y2   :     0.199644
      dxy     :     0.264768
      f0      :     0.019422  f :     0.335447
      f+1     :     0.022249
      f-1     :     0.027790
      f+2     :     0.050907
      f-2     :     0.024024
      f+3     :     0.135341
      f-3     :     0.055715

  3 C s       :     2.486300  s :     2.486300
      pz      :     0.634431  p :     2.294001
      px      :     0.839449
      py      :     0.820122
      dz2     :     0.067660  d :     0.690047
      dxz     :     0.138544
      dyz     :     0.037761
      dx2y2   :     0.269302
      dxy     :     0.176780
      f0      :     0.019945  f :     0.338770
      f+1     :     0.031384
      f-1     :     0.019671
      f+2     :     0.016733
      f-2     :     0.062706
      f+3     :     0.127293
      f-3     :     0.061037

  4 C s       :     2.450020  s :     2.450020
      pz      :     0.620514  p :     2.214648
      px      :     0.781723
      py      :     0.812411
      dz2     :     0.090257  d :     1.014536
      dxz     :     0.200944
      dyz     :     0.127244
      dx2y2   :     0.292986
      dxy     :     0.303104
      f0      :     0.035513  f :     0.571048
      f+1     :     0.037245
      f-1     :     0.036049
      f+2     :     0.076265
      f-2     :     0.073728
      f+3     :     0.226036
      f-3     :     0.086211

  5 N s       :     2.651546  s :     2.651546
      pz      :     1.061900  p :     2.975362
      px      :     0.965890
      py      :     0.947572
      dz2     :     0.039611  d :     0.393753
      dxz     :     0.091814
      dyz     :     0.027108
      dx2y2   :     0.140462
      dxy     :     0.094757
      f0      :     0.010633  f :     0.125745
      f+1     :     0.011042
      f-1     :     0.008228
      f+2     :     0.010603
      f-2     :     0.019996
      f+3     :     0.042248
      f-3     :     0.022994

  6 H s       :     0.566654  s :     0.566654
      pz      :     0.169722  p :     0.427855
      px      :     0.130144
      py      :     0.127989
      dz2     :     0.081791  d :     0.305792
      dxz     :     0.056194
      dyz     :     0.045018
      dx2y2   :     0.071779
      dxy     :     0.051010

  7 H s       :     0.580696  s :     0.580696
      pz      :     0.131074  p :     0.412683
      px      :     0.105017
      py      :     0.176592
      dz2     :     0.028532  d :     0.293228
      dxz     :     0.005822
      dyz     :     0.096757
      dx2y2   :     0.062751
      dxy     :     0.099366

  8 C s       :     2.450020  s :     2.450020
      pz      :     0.620521  p :     2.214653
      px      :     0.781716
      py      :     0.812416
      dz2     :     0.090257  d :     1.014540
      dxz     :     0.200949
      dyz     :     0.127242
      dx2y2   :     0.292989
      dxy     :     0.303102
      f0      :     0.035515  f :     0.571051
      f+1     :     0.037245
      f-1     :     0.036049
      f+2     :     0.076270
      f-2     :     0.073722
      f+3     :     0.226039
      f-3     :     0.086210

  9 N s       :     2.651549  s :     2.651549
      pz      :     1.061896  p :     2.975374
      px      :     0.965888
      py      :     0.947590
      dz2     :     0.039608  d :     0.393764
      dxz     :     0.091826
      dyz     :     0.027109
      dx2y2   :     0.140460
      dxy     :     0.094761
      f0      :     0.010634  f :     0.125744
      f+1     :     0.011042
      f-1     :     0.008226
      f+2     :     0.010605
      f-2     :     0.019994
      f+3     :     0.042247
      f-3     :     0.022995

 10 H s       :     0.566661  s :     0.566661
      pz      :     0.169742  p :     0.427894
      px      :     0.130150
      py      :     0.128002
      dz2     :     0.081781  d :     0.305786
      dxz     :     0.056188
      dyz     :     0.045020
      dx2y2   :     0.071784
      dxy     :     0.051012

 11 H s       :     0.580673  s :     0.580673
      pz      :     0.131077  p :     0.412689
      px      :     0.105013
      py      :     0.176599
      dz2     :     0.028535  d :     0.293239
      dxz     :     0.005823
      dyz     :     0.096758
      dx2y2   :     0.062752
      dxy     :     0.099370

 12 H s       :     0.654028  s :     0.654028
      pz      :     0.084725  p :     0.301384
      px      :     0.077353
      py      :     0.139305
      dz2     :     0.022974  d :     0.216520
      dxz     :     0.004147
      dyz     :     0.062155
      dx2y2   :     0.047127
      dxy     :     0.080117

 13 H s       :     0.665618  s :     0.665618
      pz      :     0.088764  p :     0.305213
      px      :     0.123175
      py      :     0.093273
      dz2     :     0.022322  d :     0.213733
      dxz     :     0.046842
      dyz     :     0.019224
      dx2y2   :     0.072047
      dxy     :     0.053297

 14 H s       :     0.665618  s :     0.665618
      pz      :     0.088764  p :     0.305213
      px      :     0.123173
      py      :     0.093276
      dz2     :     0.022322  d :     0.213734
      dxz     :     0.046841
      dyz     :     0.019227
      dx2y2   :     0.072050
      dxy     :     0.053294

 15 H s       :     0.654026  s :     0.654026
      pz      :     0.084728  p :     0.301388
      px      :     0.077354
      py      :     0.139306
      dz2     :     0.022974  d :     0.216522
      dxz     :     0.004148
      dyz     :     0.062156
      dx2y2   :     0.047127
      dxy     :     0.080117



                      *****************************
                      * MAYER POPULATION ANALYSIS *
                      *****************************

  NA   - Mulliken gross atomic population
  ZA   - Total nuclear charge
  QA   - Mulliken gross atomic charge
  VA   - Mayer's total valence
  BVA  - Mayer's bonded valence
  FA   - Mayer's free valence

  ATOM       NA         ZA         QA         VA         BVA        FA
  0 C      6.9624     6.0000    -0.9624     2.4233     2.4233    -0.0000
  1 C      6.5109     6.0000    -0.5109     2.9295     2.9295     0.0000
  2 C      6.5107     6.0000    -0.5107     2.9288     2.9288     0.0000
  3 C      6.9612     6.0000    -0.9612     2.4229     2.4229    -0.0000
  4 C      4.8516     6.0000     1.1484     1.5850     1.5850     0.0000
  5 N      7.5841     7.0000    -0.5841     2.4051     2.4051     0.0000
  6 H      0.9345     1.0000     0.0655     1.0394     1.0394    -0.0000
  7 H      1.0079     1.0000    -0.0079     1.0774     1.0774    -0.0000
  8 C      4.8529     6.0000     1.1471     1.5883     1.5883    -0.0000
  9 N      7.5843     7.0000    -0.5843     2.4039     2.4039    -0.0000
 10 H      0.9347     1.0000     0.0653     1.0397     1.0397    -0.0000
 11 H      1.0080     1.0000    -0.0080     1.0781     1.0781     0.0000
 12 H      0.6149     1.0000     0.3851     0.6932     0.6932     0.0000
 13 H      0.5341     1.0000     0.4659     0.6376     0.6376     0.0000
 14 H      0.5340     1.0000     0.4660     0.6376     0.6376     0.0000
 15 H      0.6139     1.0000     0.3861     0.6925     0.6925     0.0000

  Mayer bond orders larger than 0.100000
B(  0-C ,  1-C ) :   1.2855 B(  0-C ,  3-C ) :  -0.1070 B(  0-C ,  8-C ) :   0.6848 
B(  0-C ,  9-N ) :  -0.1007 B(  0-C , 15-H ) :   0.5006 B(  1-C ,  2-C ) :   1.1465 
B(  1-C ,  8-C ) :  -0.2069 B(  1-C , 14-H ) :   0.5856 B(  2-C ,  3-C ) :   1.2845 
B(  2-C ,  4-C ) :  -0.2071 B(  2-C , 13-H ) :   0.5859 B(  3-C ,  4-C ) :   0.6835 
B(  3-C ,  5-N ) :  -0.1001 B(  3-C , 12-H ) :   0.5021 B(  4-C ,  5-N ) :   0.1510 
B(  4-C ,  6-H ) :  -0.1029 B(  4-C ,  8-C ) :   0.6825 B(  4-C ,  9-N ) :   0.1456 
B(  4-C , 12-H ) :   0.1573 B(  5-N ,  6-H ) :   1.0811 B(  5-N ,  7-H ) :   1.1115 
B(  5-N ,  8-C ) :   0.1467 B(  8-C ,  9-N ) :   0.1515 B(  8-C , 10-H ) :  -0.1028 
B(  8-C , 15-H ) :   0.1574 B(  9-N , 10-H ) :   1.0808 B(  9-N , 11-H ) :   1.1122 


-------
TIMINGS
-------

Total SCF time: 0 days 0 hours 2 min 12 sec 

Total time                  ....     132.971 sec
Sum of individual times     ....     132.258 sec  ( 99.5%)

SCF preparation             ....       0.972 sec  (  0.7%)
Fock matrix formation       ....     121.896 sec  ( 91.7%)
  Startup                   ....       0.829 sec  (  0.7% of F)
  Split-RI-J                ....      14.997 sec  ( 12.3% of F)
  XC integration            ....      97.258 sec  ( 79.8% of F)
    XC Preparation          ....       0.000 sec  (  0.0% of XC)
    Basis function eval.    ....       9.253 sec  (  9.5% of XC)
    Density eval.           ....      26.461 sec  ( 27.2% of XC)
    XC-Functional eval.     ....       1.534 sec  (  1.6% of XC)
    XC-Potential eval.      ....      56.402 sec  ( 58.0% of XC)
  CPCM terms                ....       6.538 sec  (  5.4% of F)
Diagonalization             ....       0.000 sec  (  0.0%)
Density matrix formation    ....       1.966 sec  (  1.5%)
Total Energy calculation    ....       0.898 sec  (  0.7%)
Population analysis         ....       0.258 sec  (  0.2%)
Orbital Transformation      ....       0.435 sec  (  0.3%)
Orbital Orthonormalization  ....       0.000 sec  (  0.0%)
DIIS solution               ....       4.714 sec  (  3.5%)
SOSCF solution              ....       1.120 sec  (  0.8%)
Finished LeanSCF after 133.2 sec

Maximum memory used throughout the entire LEANSCF-calculation: 59.3 MB


-------------------------------------------------------------------------------
                          DFT DISPERSION CORRECTION                            
                                                                               
                              DFTD3 V3.1  Rev 1                                
                          USING Becke-Johnson damping                          
-------------------------------------------------------------------------------
The R2SCAN functional is recognized
Active option DFTDOPT                   ...         4   

molecular C6(AA) [au] = 2706.045815 


            DFT-D V3
 parameters
 s6 scaling factor         :     1.0000 
 a1 scaling factor         :     0.4948 
 s8 scaling factor         :     0.7898 
 a2 scaling factor         :     5.7308 
 ad hoc parameters k1-k3   :    16.0000     1.3333    -4.0000 

 Edisp/kcal,au: -2.945177532455  -0.004693438649 
 E6   /kcal   :  -2.315758503 
 E8   /kcal   :  -0.629419030 
 % E8         :  21.371174502 

-------------------------   ----------------
Dispersion correction           -0.004693439
-------------------------   ----------------


-------------------------   --------------------
FINAL SINGLE POINT ENERGY      -342.918925072829
-------------------------   --------------------



           ************************************************************
           *        Program running with 4 parallel MPI-processes     *
           *              working on a common directory               *
           ************************************************************

------------------------------------------------------------------------------
                              ORCA PROPERTY CALCULATIONS
------------------------------------------------------------------------------

GBWName                                 ... cs_rporg_064_red_solv_03.gbw
Number of atoms                         ...     16
Number of basis functions               ...    600
Max core memory                         ...   3000 MB

Electric properties:
Dipole moment                           ... YES
Quadrupole moment                       ...  NO
Static polarizability (Dipole/Dipole)   ...  NO
Static polarizability (Dipole/Quad.)    ...  NO
Static polarizability (Quad./Quad.)     ...  NO
Static polarizability (Velocity)        ...  NO

Atomic electric properties:
Dipole moment                           ...  NO
Quadrupole moment                       ...  NO
Static polarizability                   ...  NO

Choice of electric origin               ... Center of mass
Position of electric origin             ...     0.000893    -0.000012    -0.000008

General magnetic properties:
Magnetizability                         ...  NO

EPR properties:
g-Tensor (aka g-matrix)                 ...  NO
Zero-Field splitting spin-orbit         ...  NO
Zero-field splitting spin-spin          ...  NO
Hyperfine couplings                     ...  NO (   0 nuclei)
Quadrupole couplings                    ...  NO (   0 nuclei)
Contact density                         ...  NO (   0 nuclei)

NMR properties:
Chemical shifts                         ...  NO (   0 nuclei)
Spin-rotation constants                 ...  NO (   0 nuclei)
Spin-spin couplings                     ...  NO (   0 nuclei,    0 pairs)

Choice of magnetic origin               ... GIAO
Position of magnetic origin             ...     0.000000     0.000000     0.000000

Properties with geometric perturbations:
SCF Hessian                             ...  NO
IR spectrum                             ...  NO
VCD spectrum                            ...  NO
X-ray spectroscopy properties:
SCF XES/XAS/RIXS spectra                ...  NO


-------------
DIPOLE MOMENT
-------------

Method             : SCF
Type of density    : Electron Density
Multiplicity       :   1
Irrep              :   0
Energy             :  -342.9142316341803394 Eh
Relativity type    : 
Basis              : AO
                                X                 Y                 Z
Electronic contribution:     -0.168118032      -0.000078709      -0.000055532
Nuclear contribution   :      1.113968872      -0.000058108      -0.000004171
                        -----------------------------------------
Total Dipole Moment    :      0.945850840      -0.000136817      -0.000059703
                        -----------------------------------------
Magnitude (a.u.)       :      0.945850852
Magnitude (Debye)      :      2.404161803



--------------------
Rotational spectrum 
--------------------
 
Rotational constants in cm-1:             0.112095             0.073765             0.044684 
Rotational constants in MHz :          3360.536612          2211.428639          1339.595991 

Dipole components along the rotational axes: 
x,y,z [a.u.] :     0.945851    -0.000111    -0.000058 
x,y,z [Debye]:     2.404162    -0.000282    -0.000147 

 

Dipole moment calculation done in   0.1 sec 

Maximum memory used throughout the entire PROP-calculation: 44.1 MB

--------------------------------
SUGGESTED CITATIONS FOR THIS RUN
--------------------------------

Below you find a list of papers that are relevant to this ORCA run
We neither can nor want to force you to cite these papers, but we appreciate if you do
You receive ORCA, which is the product of decades of hard work by many enthusiastic individuals, for free
The only thing we kindly ask in return is that you cite our papers,
We deeply appreciate it, if you show your appreciation for ORCA by not just citing the generic ORCA reference.

Please note that relegating all ORCA citations to the supporting information does *not* help us.
SI sections are not indexed - citations you put there will not count into any citation statistics
But we need these citations in order to attract the funding resources that allow us to do what we are doing

Therefore, if you are a happy ORCA user, please consider citing a few of the papers listed below in the main body of your paper

In addition to the list printed below, the program has created the file cs_rporg_064_red_solv_03.bibtex that contains the list in bibtex format
You can import this file easily into all common literature databanks and citation aid programs


List of essential papers. We consider these as the minimum necessary citations

  1. Neese,F.
     Software update: the ORCA program system, version 5.0
     WIRES Comput. Molec. Sci., 2022 12(1)e1606
     doi.org/10.1002/wcms.1606

List of papers to cite with high priority. The work reported in these papers was absolutely
necessary for this run to complete.
Our perspective: the developers of density functionals and basis sets usually get cited in chemistry papers
Good! But without the algorithms to do something with them, the functionals or basis sets would not do anything.
Hence, in our opinion, the algorithm design and method developments papers are equally worthy of getting cited

  1. Neese,F.
     An improvement of the resolution of the identity approximation for the formation of the Coulomb matrix
     J. Comp. Chem., 2003 24(14)1740-1747
     doi.org/10.1002/jcc.10318
  2. Garcia-Rates,M.; Neese,F.
     Effect of the Solute Cavity on the Solvation Energy and its Derivatives within the Framework of the Gaussian Charge Scheme
     J. Comput. Chem., 2020 41 922-939
     doi.org/10.1002/jcc.26139
  3. Neese,F.
     The SHARK Integral Generation and Digestion System
     J. Comp. Chem., 2022  1-16
     doi.org/10.1002/jcc.26942
  4. Lehtola,S.; Steigemann,C.; Oliveira,M.; Marques,M.
     Recent developments in Libxc - A comprehensive library of functionals for density functional theory
     Software X, 2018 7 
     doi.org/10.1016/j.softx.2017.11.002
  5. Grimme,S.; Antony,J.; Ehrlich,S.; Krieg,H.
     A consistent and accurate ab initio parametrization of density functional dispersion correction (DFT-D) for the 94 elements H-Pu
     J. Chem. Phys., 2010 132 154104-XXXX
     doi.org/10.1063/1.3382344
  6. Grimme,S.; Ehrlich,S.; Goerigk,L.
     Effect of the damping function in dispersion corrected density functional theory
     J. Comput. Chem., 2011 32(7)1456-1465
     doi.org/10.1002/jcc.21759

List of suggested additional citations. These are papers that are important in the 'surrounding' of 
of this run, or papers that preceded the highly important papers. If you like your results we are grateful for a citation.

  1. Neese,F.
     The ORCA program system
     WIRES Comput. Molec. Sci., 2012 2(1)73-78
     doi.org/10.1002/wcms.81
  2. Neese,F.
     Software update: the ORCA program system, version 4.0
     WIRES Comput. Molec. Sci., 2018 8(1)1-6
     doi.org/10.1002/wcms.1327
  3. Neese,F.; Wennmohs,F.; Becker,U.; Riplinger,C.
     The ORCA quantum chemistry program package
     J. Chem. Phys., 2020 152 Art. No. L224108
     doi.org/10.1063/5.0004608

List of optional additional citations

  1. Neese,F.
     Approximate second-order SCF convergence for spin unrestricted wavefunctions
     Chem. Phys. Lett., 2000 325(1-3)93-98
     doi.org/10.1016/s0009-2614(00)00662-x

Timings for individual modules:

Sum of individual times          ...      150.236 sec (=   2.504 min)
Startup calculation              ...        9.673 sec (=   0.161 min)   6.4 %
SCF iterations                   ...      138.531 sec (=   2.309 min)  92.2 %
Property calculations            ...        2.033 sec (=   0.034 min)   1.4 %
                             ****ORCA TERMINATED NORMALLY****
TOTAL RUN TIME: 0 days 0 hours 2 minutes 33 seconds 692 msec
