 vasp.6.4.2 20Jul23 (build Sep 06 2024 14:39:43) complex                        
  
 executed on             LinuxIFC date 2025.08.28  14:31:43
 running   90 mpi-ranks, on    6 nodes
 distrk:  each k-point on   90 cores,    1 groups
 distr:  one band on NCORE=  30 cores,    3 groups


--------------------------------------------------------------------------------------------------------


 INCAR:
   SYSTEM = 001
   ISTART = 1
   ICHARG = 2
   INIWAV = 1
   LHFCALC = .TRUE.
   HFSCREEN = 0.2
   NELM = 500
   ALGO = Damped
   ISPIN = 2
   EDIFF = 1E-05
   ISMEAR = 0
   SIGMA = 0.05
   PREC = accurate
   ENCUT = 500
   LREAL = auto  	
   LDIAG = .FALSE.
   LWAVE = .TRUE.
   LCHARG = .FALSE.
   LAECHG = .FALSE.
   LVHAR = .FALSE.
   LVTOT = .FALSE.
   EDIFFG = -0.02
   IBRION = 2
   NSW = 0
   ISIF = 2
   POTIM = 0.5
   IVDW = 12
   VDW_A1 = 0.383
   VDW_S8 = 2.310
   VDW_A2 = 5.685
   LPLANE = .TRUE.
   NCORE = 30
   LSCALU = .FALSE.
   NSIM = 4
   LSOL = .TRUE.
   EB_K = 35.6880
   LAMBDA_D_K = 3.04
   TAU = 0

 POTCAR:    PAW_PBE C 08Apr2002                   
 POTCAR:    PAW_PBE O 08Apr2002                   
 POTCAR:    PAW_PBE H 15Jun2001                   
 -----------------------------------------------------------------------------
|                                                                             |
|           W    W    AA    RRRRR   N    N  II  N    N   GGGG   !!!           |
|           W    W   A  A   R    R  NN   N  II  NN   N  G    G  !!!           |
|           W    W  A    A  R    R  N N  N  II  N N  N  G       !!!           |
|           W WW W  AAAAAA  RRRRR   N  N N  II  N  N N  G  GGG   !            |
|           WW  WW  A    A  R   R   N   NN  II  N   NN  G    G                |
|           W    W  A    A  R    R  N    N  II  N    N   GGGG   !!!           |
|                                                                             |
|     You use a magnetic or noncollinear calculation, but did not specify     |
|     the initial magnetic moment with the MAGMOM tag. Note that a            |
|     default of 1 will be used for all atoms. This ferromagnetic setup       |
|     may break the symmetry of the crystal, in particular it may rule        |
|     out finding an antiferromagnetic solution. Thence, we recommend         |
|     setting the initial magnetic moment manually or verifying carefully     |
|     that this magnetic setup is desired.                                    |
|                                                                             |
 -----------------------------------------------------------------------------

 -----------------------------------------------------------------------------
|                                                                             |
|           W    W    AA    RRRRR   N    N  II  N    N   GGGG   !!!           |
|           W    W   A  A   R    R  NN   N  II  NN   N  G    G  !!!           |
|           W    W  A    A  R    R  N N  N  II  N N  N  G       !!!           |
|           W WW W  AAAAAA  RRRRR   N  N N  II  N  N N  G  GGG   !            |
|           WW  WW  A    A  R   R   N   NN  II  N   NN  G    G                |
|           W    W  A    A  R    R  N    N  II  N    N   GGGG   !!!           |
|                                                                             |
|     For optimal performance we recommend to set                             |
|       NCORE = 2 up to number-of-cores-per-socket                            |
|     NCORE specifies how many cores store one orbital (NPAR=cpu/NCORE).      |
|     This setting can greatly improve the performance of VASP for DFT.       |
|     The default, NCORE=1 might be grossly inefficient on modern             |
|     multi-core architectures or massively parallel machines. Do your        |
|     own testing! More info at https://www.vasp.at/wiki/index.php/NCORE      |
|     Unfortunately you need to use the default for GW and RPA                |
|     calculations (for HF NCORE is supported but not extensively tested      |
|     yet).                                                                   |
|                                                                             |
 -----------------------------------------------------------------------------

 POTCAR:    PAW_PBE C 08Apr2002                   
   SHA256 =  253f7b50bb8d59471dbedb8285d89021f4a42ed1a2c5d38a03a736e69125dd95 C/POTCAR              
   COPYR  = (c) Copyright 08Apr2002 Georg Kresse                                                    
   COPYR  = This file is part of the software VASP. Any use, copying, and all other rights are regul
   COPYR  = If you do not have a valid VASP license, you may not use, copy or distribute this file. 
   VRHFIN =C: s2p2                                                                                  
   LEXCH  = PE                                                                                      
   EATOM  =   147.1560 eV,   10.8157 Ry                                                             
                                                                                                    
   TITEL  = PAW_PBE C 08Apr2002                                                                     
   LULTRA =        F    use ultrasoft PP ?                                                          
   IUNSCR =        1    unscreen: 0-lin 1-nonlin 2-no                                               
   RPACOR =    1.200    partial core radius                                                         
   POMASS =   12.011; ZVAL   =    4.000    mass and valenz                                          
   RCORE  =    1.500    outmost cutoff radius                                                       
   RWIGS  =    1.630; RWIGS  =    0.863    wigner-seitz radius (au A)                               
   ENMAX  =  400.000; ENMIN  =  300.000 eV                                                          
   ICORE  =        2    local potential                                                             
   LCOR   =        T    correct aug charges                                                         
   LPAW   =        T    paw PP                                                                      
   EAUG   =  644.873                                                                                
   DEXC   =    0.000                                                                                
   RMAX   =    1.529    core radius for proj-oper                                                   
   RAUG   =    1.300    factor for augmentation sphere                                              
   RDEP   =    1.501    radius for radial grids                                                     
   RDEPT  =    1.300    core radius for aug-charge                                                  
                                                                                                    
   Atomic configuration                                                                             
    4 entries                                                                                       
     n  l   j            E        occ.                                                              
     1  0  0.50      -273.3789   2.0000                                                             
     2  0  0.50       -13.7508   2.0000                                                             
     2  1  0.50        -5.2854   2.0000                                                             
     3  2  1.50        -5.4423   0.0000                                                             
   Description                                                                                      
     l       E           TYP  RCUT    TYP  RCUT                                                     
     0    -13.7508458     23  1.200                                                                 
     0     -8.2022199     23  1.200                                                                 
     1     -5.2854383     23  1.500                                                                 
     1     34.0145650     23  1.500                                                                 
     2     -5.4423304      7  1.500                                                                 
  local pseudopotential read in
  partial core-charges read in
  partial kinetic energy density read in
  atomic valenz-charges read in
  non local Contribution for L=           0  read in
    real space projection operators read in
  non local Contribution for L=           0  read in
    real space projection operators read in
  non local Contribution for L=           1  read in
    real space projection operators read in
  non local Contribution for L=           1  read in
    real space projection operators read in
    PAW grid and wavefunctions read in
 
   number of l-projection  operators is LMAX  =           4
   number of lm-projection operators is LMMAX =           8
 
 POTCAR:    PAW_PBE O 08Apr2002                   
   SHA256 =  818f92134a0a090dccd8ba1447fa70422a3b330e708bb4f08108d8ae51209ddf O/POTCAR              
   COPYR  = (c) Copyright 08Apr2002 Georg Kresse                                                    
   COPYR  = This file is part of the software VASP. Any use, copying, and all other rights are regul
   COPYR  = If you do not have a valid VASP license, you may not use, copy or distribute this file. 
   VRHFIN =O: s2p4                                                                                  
   LEXCH  = PE                                                                                      
   EATOM  =   432.3788 eV,   31.7789 Ry                                                             
                                                                                                    
   TITEL  = PAW_PBE O 08Apr2002                                                                     
   LULTRA =        F    use ultrasoft PP ?                                                          
   IUNSCR =        1    unscreen: 0-lin 1-nonlin 2-no                                               
   RPACOR =    1.200    partial core radius                                                         
   POMASS =   16.000; ZVAL   =    6.000    mass and valenz                                          
   RCORE  =    1.520    outmost cutoff radius                                                       
   RWIGS  =    1.550; RWIGS  =    0.820    wigner-seitz radius (au A)                               
   ENMAX  =  400.000; ENMIN  =  300.000 eV                                                          
   ICORE  =        2    local potential                                                             
   LCOR   =        T    correct aug charges                                                         
   LPAW   =        T    paw PP                                                                      
   EAUG   =  605.392                                                                                
   DEXC   =    0.000                                                                                
   RMAX   =    1.553    core radius for proj-oper                                                   
   RAUG   =    1.300    factor for augmentation sphere                                              
   RDEP   =    1.550    radius for radial grids                                                     
   RDEPT  =    1.329    core radius for aug-charge                                                  
                                                                                                    
   Atomic configuration                                                                             
    4 entries                                                                                       
     n  l   j            E        occ.                                                              
     1  0  0.50      -514.6923   2.0000                                                             
     2  0  0.50       -23.9615   2.0000                                                             
     2  1  0.50        -9.0305   4.0000                                                             
     3  2  1.50        -9.5241   0.0000                                                             
   Description                                                                                      
     l       E           TYP  RCUT    TYP  RCUT                                                     
     0    -23.9615318     23  1.200                                                                 
     0     -9.5240782     23  1.200                                                                 
     1     -9.0304911     23  1.520                                                                 
     1      8.1634956     23  1.520                                                                 
     2     -9.5240782      7  1.500                                                                 
  local pseudopotential read in
  partial core-charges read in
  partial kinetic energy density read in
  kinetic energy density of atom read in
  atomic valenz-charges read in
  non local Contribution for L=           0  read in
    real space projection operators read in
  non local Contribution for L=           0  read in
    real space projection operators read in
  non local Contribution for L=           1  read in
    real space projection operators read in
  non local Contribution for L=           1  read in
    real space projection operators read in
    PAW grid and wavefunctions read in
 
   number of l-projection  operators is LMAX  =           4
   number of lm-projection operators is LMMAX =           8
 
 POTCAR:    PAW_PBE H 15Jun2001                   
   SHA256 =  030f79b5d3ab3cf0e668861823c8fb652ff669f3e15e46930bd03bfd63a607b6 H/POTCAR              
   COPYR  = (c) Copyright 15Jun2001 Georg Kresse                                                    
   COPYR  = This file is part of the software VASP. Any use, copying, and all other rights are regul
   COPYR  = If you do not have a valid VASP license, you may not use, copy or distribute this file. 
   VRHFIN =H: ultrasoft test                                                                        
   LEXCH  = PE                                                                                      
   EATOM  =    12.4884 eV,    0.9179 Ry                                                             
                                                                                                    
   TITEL  = PAW_PBE H 15Jun2001                                                                     
   LULTRA =        F    use ultrasoft PP ?                                                          
   IUNSCR =        0    unscreen: 0-lin 1-nonlin 2-no                                               
   RPACOR =    0.000    partial core radius                                                         
   POMASS =    1.000; ZVAL   =    1.000    mass and valenz                                          
   RCORE  =    1.100    outmost cutoff radius                                                       
   RWIGS  =    0.700; RWIGS  =    0.370    wigner-seitz radius (au A)                               
   ENMAX  =  250.000; ENMIN  =  200.000 eV                                                          
   RCLOC  =    0.701    cutoff for local pot                                                        
   LCOR   =        T    correct aug charges                                                         
   LPAW   =        T    paw PP                                                                      
   EAUG   =  400.000                                                                                
   RMAX   =    1.123    core radius for proj-oper                                                   
   RAUG   =    1.200    factor for augmentation sphere                                              
   RDEP   =    1.112    radius for radial grids                                                     
   RDEPT  =    0.926    core radius for aug-charge                                                  
                                                                                                    
   Atomic configuration                                                                             
    2 entries                                                                                       
     n  l   j            E        occ.                                                              
     1  0  0.50        -6.4927   1.0000                                                             
     2  1  0.50        -3.4015   0.0000                                                             
   Description                                                                                      
     l       E           TYP  RCUT    TYP  RCUT                                                     
     0     -6.4927494     23  1.100                                                                 
     0      6.8029130     23  1.100                                                                 
     1     -4.0817478     23  1.100                                                                 
  local pseudopotential read in
  atomic valenz-charges read in
  non local Contribution for L=           0  read in
    real space projection operators read in
  non local Contribution for L=           0  read in
    real space projection operators read in
  non local Contribution for L=           1  read in
    real space projection operators read in
    PAW grid and wavefunctions read in
 
   number of l-projection  operators is LMAX  =           3
   number of lm-projection operators is LMMAX =           5
 
 Optimization of the real space projectors (new method)

 maximal supplied QI-value         = 25.13
 optimisation between [QCUT,QGAM] = [ 11.31, 22.87] = [ 35.82,146.48] Ry 
 Optimized for a Real-space Cutoff    1.03 Angstroem

   l    n(q)    QCUT    max X(q) W(low)/X(q) W(high)/X(q)  e(spline) 
   0      7    11.310   115.676    0.20E-03    0.90E-03    0.20E-06
   0      7    11.310    87.132    0.20E-03    0.89E-03    0.19E-06
   1      6    11.310     4.429    0.16E-03    0.28E-03    0.12E-06
   1      6    11.310     2.733    0.12E-03    0.21E-03    0.99E-07
 Optimization of the real space projectors (new method)

 maximal supplied QI-value         = 24.76
 optimisation between [QCUT,QGAM] = [ 11.39, 22.77] = [ 36.31,145.25] Ry 
 Optimized for a Real-space Cutoff    1.10 Angstroem

   l    n(q)    QCUT    max X(q) W(low)/X(q) W(high)/X(q)  e(spline) 
   0      7    11.387    20.381    0.22E-03    0.48E-03    0.18E-06
   0      7    11.387    15.268    0.22E-03    0.52E-03    0.19E-06
   1      7    11.387     5.964    0.22E-03    0.73E-03    0.24E-06
   1      7    11.387     5.382    0.19E-03    0.60E-03    0.21E-06
 Optimization of the real space projectors (new method)

 maximal supplied QI-value         = 34.20
 optimisation between [QCUT,QGAM] = [ 11.29, 22.57] = [ 35.68,142.71] Ry 
 Optimized for a Real-space Cutoff    1.20 Angstroem

   l    n(q)    QCUT    max X(q) W(low)/X(q) W(high)/X(q)  e(spline) 
   0      8    11.287    19.460    0.22E-03    0.50E-03    0.19E-06
   0      8    11.287    12.209    0.21E-03    0.48E-03    0.18E-06
   1      8    11.287     4.655    0.21E-03    0.11E-04    0.26E-06
  PAW_PBE C 08Apr2002                   :
 energy of atom  1       EATOM= -147.1560
 kinetic energy error for atom=    0.0076 (will be added to EATOM!!)
  PAW_PBE O 08Apr2002                   :
 energy of atom  2       EATOM= -432.3788
 kinetic energy error for atom=    0.0224 (will be added to EATOM!!)
  PAW_PBE H 15Jun2001                   :
 energy of atom  3       EATOM=  -12.4884
 kinetic energy error for atom=    0.0020 (will be added to EATOM!!)
 
 
 POSCAR: C O H
  positions in direct lattice
  velocities in cartesian coordinates
 exchange correlation table for  LEXCH =        8
   RHO(1)=    0.500       N(1)  =     2000
   RHO(2)=  100.500       N(2)  =     4000
 


--------------------------------------------------------------------------------------------------------


 ion  position               nearest neighbor table
   1  0.488  0.478  0.500-  18 1.09   6 1.40   2 1.40
   2  0.473  0.510  0.500-  10 1.36   1 1.40   3 1.41
   3  0.494  0.538  0.500-  14 1.09   4 1.39   2 1.41
   4  0.528  0.535  0.500-  13 1.09   3 1.39   5 1.41
   5  0.544  0.503  0.500-   6 1.41   4 1.41   7 1.42
   6  0.523  0.475  0.500-  11 1.09   1 1.40   5 1.41
   7  0.579  0.500  0.500-   8 1.22   5 1.42
   8  0.609  0.497  0.500-  12 1.07   7 1.22
   9  0.418  0.487  0.500-  15 1.09  16 1.10  17 1.10  10 1.44
  10  0.440  0.516  0.500-   2 1.36   9 1.44
  11  0.534  0.450  0.500-   6 1.09
  12  0.636  0.495  0.500-   8 1.07
  13  0.544  0.557  0.500-   4 1.09
  14  0.482  0.563  0.500-   3 1.09
  15  0.392  0.498  0.500-   9 1.09
  16  0.421  0.472  0.477-   9 1.10
  17  0.421  0.472  0.523-   9 1.10
  18  0.473  0.455  0.500-   1 1.09
 
  LATTYP: Found a simple cubic cell.
 ALAT       =    40.0000000000
  
  Lattice vectors:
  
 A1 = (  40.0000000000,   0.0000000000,   0.0000000000)
 A2 = (   0.0000000000,  40.0000000000,   0.0000000000)
 A3 = (   0.0000000000,   0.0000000000,  40.0000000000)


Analysis of symmetry for initial positions (statically):
=====================================================================
 Subroutine PRICEL returns:
 Original cell was already a primitive cell.
 

 Routine SETGRP: Setting up the symmetry group for a 
 simple cubic supercell.


 Subroutine GETGRP returns: Found  1 space group operations
 (whereof  1 operations were pure point group operations)
 out of a pool of 48 trial point group operations.


The static configuration has the point symmetry C_1 .


Analysis of symmetry for dynamics (positions and initial velocities):
=====================================================================
 Subroutine PRICEL returns:
 Original cell was already a primitive cell.
 

 Routine SETGRP: Setting up the symmetry group for a 
 simple cubic supercell.


 Subroutine GETGRP returns: Found  1 space group operations
 (whereof  1 operations were pure point group operations)
 out of a pool of 48 trial point group operations.


The dynamic configuration has the point symmetry C_1 .


Analysis of constrained symmetry for selective dynamics:
=====================================================================
 Subroutine PRICEL returns:
 Original cell was already a primitive cell.
 

 Routine SETGRP: Setting up the symmetry group for a 
 simple cubic supercell.


 Subroutine GETGRP returns: Found  1 space group operations
 (whereof  1 operations were pure point group operations)
 out of a pool of 48 trial point group operations.


The constrained configuration has the point symmetry C_1 .


Analysis of structural, dynamic, and magnetic symmetry:
=====================================================================
 Subroutine PRICEL returns:
 Original cell was already a primitive cell.
 

 Routine SETGRP: Setting up the symmetry group for a 
 simple cubic supercell.


 Subroutine GETGRP returns: Found  1 space group operations
 (whereof  1 operations were pure point group operations)
 out of a pool of 48 trial point group operations.


The overall configuration has the point symmetry C_1 .


 Subroutine INISYM returns: Found  1 space group operations
 (whereof  1 operations are pure point group operations),
 and found     1 'primitive' translations


----------------------------------------------------------------------------------------

                                     Primitive cell                                     

  volume of cell :   64000.0000

  direct lattice vectors                    reciprocal lattice vectors
    40.000000000  0.000000000  0.000000000     0.025000000  0.000000000  0.000000000
     0.000000000 40.000000000  0.000000000     0.000000000  0.025000000  0.000000000
     0.000000000  0.000000000 40.000000000     0.000000000  0.000000000  0.025000000

  length of vectors
    40.000000000 40.000000000 40.000000000     0.025000000  0.025000000  0.025000000

  position of ions in fractional coordinates (direct lattice)
     0.488026391  0.477748411  0.499989952
     0.473378576  0.509667882  0.499995954
     0.493860263  0.538284153  0.499995750
     0.528393343  0.535089746  0.499993150
     0.543599170  0.503155538  0.499990887
     0.522787157  0.474746676  0.499987619
     0.579064628  0.499885004  0.499998720
     0.609382198  0.497212075  0.500016002
     0.417647629  0.487192607  0.500009138
     0.439771579  0.515569523  0.500002235
     0.534053796  0.449924635  0.499981791
     0.636070792  0.494780181  0.500031435
     0.544032402  0.557416016  0.499986653
     0.482117924  0.562883092  0.499996854
     0.392329878  0.497570240  0.500017273
     0.421353826  0.471825037  0.477496642
     0.421367937  0.471824808  0.522519223
     0.472761512  0.455224377  0.499990722

  ion indices of the primitive-cell ions
   primitive index   ion index
                 1           1
                 2           2
                 3           3
                 4           4
                 5           5
                 6           6
                 7           7
                 8           8
                 9           9
                10          10
                11          11
                12          12
                13          13
                14          14
                15          15
                16          16
                17          17
                18          18

----------------------------------------------------------------------------------------

 
 
 KPOINTS: K-Point Grid                            

Automatic generation of k-mesh.
 Grid dimensions read from file:
 generate k-points for:    1    1    1

 Generating k-lattice:

  Cartesian coordinates                     Fractional coordinates (reciprocal lattice)
     0.025000000  0.000000000  0.000000000     1.000000000  0.000000000  0.000000000
     0.000000000  0.025000000  0.000000000     0.000000000  1.000000000  0.000000000
     0.000000000  0.000000000  0.025000000     0.000000000  0.000000000  1.000000000

  Length of vectors
     0.025000000  0.025000000  0.025000000

  Shift w.r.t. Gamma in fractional coordinates (k-lattice)
     0.000000000  0.000000000  0.000000000

 
 Subroutine IBZKPT returns following result:
 ===========================================
 
 Found      1 irreducible k-points:
 
 Following reciprocal coordinates:
            Coordinates               Weight
  0.000000  0.000000  0.000000      1.000000
 
 Following cartesian coordinates:
            Coordinates               Weight
  0.000000  0.000000  0.000000      1.000000
 
 
 Subroutine IBZKPT_HF returns following result:
 ==============================================
 
 Found      1 k-points in 1st BZ
 the following      1 k-points will be used (e.g. in the exchange kernel)
 Following reciprocal coordinates:   # in IRBZ
  0.000000  0.000000  0.000000    1.00000000   1 t-inv F


--------------------------------------------------------------------------------------------------------




 Dimension of arrays:
   k-points           NKPTS =      1   k-points in BZ     NKDIM =      1   number of bands    NBANDS=     45
   number of dos      NEDOS =    301   number of ions     NIONS =     18
   non local maximal  LDIM  =      4   non local SUM 2l+1 LMDIM =      8
   total plane-waves  NPLWV = ******
   max r-space proj   IRMAX =   2915   max aug-charges    IRDMAX=   5350
   dimension x,y,z NGX =   294 NGY =  294 NGZ =  294
   dimension x,y,z NGXF=   588 NGYF=  588 NGZF=  588
   support grid    NGXF=   588 NGYF=  588 NGZF=  588
   ions per type =               9   1   8
   NGX,Y,Z   is equivalent  to a cutoff of  12.22, 12.22, 12.22 a.u.
   NGXF,Y,Z  is equivalent  to a cutoff of  24.44, 24.44, 24.44 a.u.

 SYSTEM =  001                                     
 POSCAR =  C O H                                   

 Startparameter for this run:
   NWRITE =      2    write-flag & timer
   PREC   = accura    normal or accurate (medium, high low for compatibility)
   ISTART =      1    job   : 0-new  1-cont  2-samecut
   ICHARG =      2    charge: 1-file 2-atom 10-const
   ISPIN  =      2    spin polarized calculation?
   LNONCOLLINEAR =      F non collinear calculations
   LSORBIT =      F    spin-orbit coupling
   INIWAV =      1    electr: 0-lowe 1-rand  2-diag
   LASPH  =      F    aspherical Exc in radial PAW
 Electronic Relaxation 1
   ENCUT  =  500.0 eV  36.75 Ry    6.06 a.u.  72.93 72.93 72.93*2*pi/ulx,y,z
   ENINI  =  500.0     initial cutoff
   ENAUG  =  644.9 eV  augmentation charge cutoff
   NELM   =    500;   NELMIN=  2; NELMDL=  0     # of ELM steps 
   EDIFF  = 0.1E-04   stopping-criterion for ELM
   LREAL  =      T    real-space projection
   NLSPLINE    = F    spline interpolate recip. space projectors
   LCOMPAT=      F    compatible to vasp.4.4
   GGA_COMPAT  = T    GGA compatible to vasp.4.4-vasp.4.6
   LMAXPAW     = -100 max onsite density
   LMAXMIX     =    2 max onsite mixed and CHGCAR
   VOSKOWN=      0    Vosko Wilk Nusair interpolation
   ROPT   =   -0.00025  -0.00025  -0.00025
 Ionic relaxation
   EDIFFG = -.2E-01   stopping-criterion for IOM
   NSW    =      0    number of steps for IOM
   NBLOCK =      1;   KBLOCK =      1    inner block; outer block 
   IBRION =     -1    ionic relax: 0-MD 1-quasi-New 2-CG
   NFREE  =      1    steps in history (QN), initial steepest desc. (CG)
   ISIF   =      2    stress and relaxation
   IWAVPR =     10    prediction:  0-non 1-charg 2-wave 3-comb
   ISYM   =      3    0-nonsym 1-usesym 2-fastsym
   LCORR  =      T    Harris-Foulkes like correction to forces

   POTIM  = 0.5000    time-step for ionic-motion
   TEIN   =    0.0    initial temperature
   TEBEG  =    0.0;   TEEND  =   0.0 temperature during run
   SMASS  =  -3.00    Nose mass-parameter (am)
   estimated Nose-frequenzy (Omega)   =  0.10E-29 period in steps = 0.13E+47 mass=  -0.366E-25a.u.
   SCALEE = 1.0000    scale energy and forces
   NPACO  =    256;   APACO  = 10.0  distance and # of slots for P.C.
   PSTRESS=    0.0 pullay stress

  Mass of Ions in am
   POMASS =  12.01 16.00  1.00
  Ionic Valenz
   ZVAL   =   4.00  6.00  1.00
  Atomic Wigner-Seitz radii
   RWIGS  =  -1.00 -1.00 -1.00
  virtual crystal weights 
   VCA    =   1.00  1.00  1.00
   NELECT =      50.0000    total number of electrons
   NUPDOWN=      -1.0000    fix difference up-down

 DOS related values:
   EMIN   =  10.00;   EMAX   =-10.00  energy-range for DOS
   EFERMI =   0.00;   METHOD = LEGACY      
   ISMEAR =     0;   SIGMA  =   0.05  broadening in eV -4-tet -1-fermi 0-gaus

 Electronic relaxation 2 (details)
   IALGO  =     53    algorithm
   LDIAG  =      F    sub-space diagonalisation (order eigenvalues)
   LSUBROT=      F    optimize rotation matrix (better conditioning)
   TURBO    =      0    0=normal 1=particle mesh
   IRESTART =      0    0=no restart 2=restart with 2 vectors
   NREBOOT  =      0    no. of reboots
   NMIN     =      0    reboot dimension
   EREF     =   0.00    reference energy to select bands
   IMIX   =      4    mixing-type and parameters
     AMIX     =   0.40;   BMIX     =  1.00
     AMIX_MAG =   1.60;   BMIX_MAG =  1.00
     AMIN     =   0.10
     WC   =   100.;   INIMIX=   1;  MIXPRE=   1;  MAXMIX= -45

 Intra band minimization:
   WEIMIN = 0.0000     energy-eigenvalue tresh-hold
   EBREAK =  0.56E-07  absolut break condition
   DEPER  =   0.30     relativ break condition  

   TIME   =   0.40     timestep for ELM

  volume/ion in A,a.u.               =    3555.56     23994.07
  Fermi-wavevector in a.u.,A,eV,Ry     =   0.150778  0.284929  0.309315  0.022734
  Thomas-Fermi vector in A             =   0.827986
 
 Write flags
   LWAVE        =      T    write WAVECAR
   LDOWNSAMPLE  =      F    k-point downsampling of WAVECAR
   LCHARG       =      F    write CHGCAR
   LVTOT        =      F    write LOCPOT, total local potential
   LVHAR        =      F    write LOCPOT, Hartree potential only
   LELF         =      F    write electronic localiz. function (ELF)
   LORBIT       =      0    0 simple, 1 ext, 2 COOP (PROOUT), +10 PAW based schemes


 Dipole corrections
   LMONO  =      F    monopole corrections only (constant potential shift)
   LDIPOL =      F    correct potential (dipole corrections)
   IDIPOL =      0    1-x, 2-y, 3-z, 4-all directions 
   EPSILON=  1.0000000 bulk dielectric constant

 Exchange correlation treatment:
   GGA     =    --    GGA type
   LEXCH   =     8    internal setting for exchange type
   LIBXC   =     F    Libxc                    
   VOSKOWN =     0    Vosko Wilk Nusair interpolation
   EXXOEP  =     0    0=HF, 1=EXX-LHF (local Hartree Fock) 2=EXX OEP
   LHFCALC =     T    Hartree Fock is set to
   LSYMGRAD=     F    symmetrize gradient (conserves proper symmetry)
   PRECFOCK=normal    Normal, Fast or Accurate (Low or Medium for compatibility)
   LRHFCALC=     F    long range Hartree Fock
   LRSCOR  =     F    long range correlation only (use DFT for short range part)
   LTHOMAS =     F    Thomas Fermi screening in HF
   LMODELHF=     F    short range full HF, long range fraction AEXX
   FOCKCORR=     1    mode to apply convergence corrections
   LFOCKACE=     F    use Adeptively-Compressed-Exchange operator
   ENCUT4O =  -1.0   cutoff for four orbital integrals eV
   LMAXFOCK=     4    L truncation for augmentation on plane wave grid
   LMAXFOCKAE=  -1    L truncation for all-electron charge restoration on plane wave grid
   NMAXFOCKAE=   1    number of basis functions for all-electron charge restoration
   LFOCKAEDFT=     F  apply the AE augmentation even for DFT
   NKREDX  =     1    reduce k-point grid by
   NKREDY  =     1    reduce k-point grid by
   NKREDZ  =     1    reduce k-point grid by
   SHIFTRED=     F    shift reduced grid of Gamma
   HFKIDENT=     F    idential grid for each k-point
   ODDONLY =     F    use only odd q-grid points
   EVENONLY=     F    use only even q-grid points
   HFALPHA =   -1.0000 decay constant for conv. correction
   MCALPHA =    0.0000 extent of test-charge in conv. correction in multipole expansion
   AEXX    =    0.2500 exact exchange contribution
   HFSCREEN=    0.2000 screening length (either q_TF or 0.3 A-1)
   HFSCREENC=   0.2000 screening length for correlation (either q_TF or 0.3 A-1)
   HFRCUT  =    0.0000 spherical cutoff for potential kernel
   ALDAX   =    0.7500 LDA exchange part
   AGGAX   =    0.7500 GGA exchange part
   ALDAC   =    1.0000 LDA correlation
   AGGAC   =    1.0000 GGA correlation
   ENCUTFOCK=  -1.0 apply spherical cutoff to Coloumb kernel
   NBANDSGWLOW=     1    first orbital included in HF term
   NBLOCK_FOCK=    64    blocking factor in FOCK_ACC

 Linear response parameters
   LEPSILON=     F    determine dielectric tensor
   LRPA    =     F    only Hartree local field effects (RPA)
   LNABLA  =     F    use nabla operator in PAW spheres
   LVEL    =     F    velocity operator in full k-point grid
   CSHIFT  =0.1000    complex shift for real part using Kramers Kronig
   OMEGAMAX=  -1.0    maximum frequency
   DEG_THRESHOLD= 0.2000000E-02 threshold for treating states as degnerate
   RTIME   =   -0.100 relaxation time in fs
  (WPLASMAI=    0.000 imaginary part of plasma frequency in eV, 0.658/RTIME)
   DFIELD  = 0.0000000 0.0000000 0.0000000 field for delta impulse in time
 
  Optional k-point grid parameters
   LKPOINTS_OPT  =     F    use optional k-point grid
   KPOINTS_OPT_MODE=     1    mode for optional k-point grid
 
 Orbital magnetization related:
   ORBITALMAG=     F  switch on orbital magnetization
   LCHIMAG   =     F  perturbation theory with respect to B field
   DQ        =  0.001000  dq finite difference perturbation B field
   LLRAUG    =     F  two centre corrections for induced B field
   LBONE     =     F  B-component reconstruction in AE one-centre
   LVGVCALC  =     T  calculate vGv susceptibility
   LVGVAPPL  =     F  apply vGv susceptibility instead of pGv for G=0

 Random number generation:
   RANDOM_GENERATOR = DEFAULT
   PCG_SEED         = not used
 Solvation model:
   LSOL    =     T         switch on solvation model
   EB_K    = 35.688000     relative permittivity of the bulk solvent
   SIGMA_K =  0.600000     width of the dielectric cavity
   NC_K    =  0.002500     cutoff charge density
   TAU     =  0.000000     cavity surface tension
   LAMBDA_D_K    =  3.040000     Debye length in Angstroms
   LRHOB     =     F     write boundcharge  density
   LRHOION     =     F     write ioniccharge density



--------------------------------------------------------------------------------------------------------


 Static calculation
 charge density and potential will be updated during run
 spin polarized calculation
 Conjugate gradient for all bands (Kresse, et al. variant)
 perform Loewdin sub-space diagonalisation
    ordering is kept fixed
    before iterative eigenvector-optimisation
 modified Broyden-mixing scheme, WC =      100.0
 initial mixing is a Kerker type mixing with AMIX =  0.4000 and BMIX =      1.0000
 Hartree-type preconditioning will be used
 using additional bands           20
 real space projection scheme for non local part
 use partial core corrections
 no Harris-corrections to forces 
 use gradient corrections 
 use of overlap-Matrix (Vanderbilt PP)
 Gauss-broadening in eV      SIGMA  =   0.05


--------------------------------------------------------------------------------------------------------


  energy-cutoff  :      500.00
  volume of cell :    64000.00
      direct lattice vectors                 reciprocal lattice vectors
    40.000000000  0.000000000  0.000000000     0.025000000  0.000000000  0.000000000
     0.000000000 40.000000000  0.000000000     0.000000000  0.025000000  0.000000000
     0.000000000  0.000000000 40.000000000     0.000000000  0.000000000  0.025000000

  length of vectors
    40.000000000 40.000000000 40.000000000     0.025000000  0.025000000  0.025000000


 
 old parameters found on file WAVECAR:
  energy-cutoff  :      500.00
  volume of cell :    64000.00
      direct lattice vectors                 reciprocal lattice vectors
    40.000000000  0.000000000  0.000000000     0.025000000  0.000000000  0.000000000
     0.000000000 40.000000000  0.000000000     0.000000000  0.025000000  0.000000000
     0.000000000  0.000000000 40.000000000     0.000000000  0.000000000  0.025000000

  length of vectors

 
 k-points in units of 2pi/SCALE and weight: K-Point Grid                            
   0.00000000  0.00000000  0.00000000       1.000
 
 k-points in reciprocal lattice and weights: K-Point Grid                            
   0.00000000  0.00000000  0.00000000       1.000
 
 position of ions in fractional coordinates (direct lattice) 
   0.48802639  0.47774841  0.49998995
   0.47337858  0.50966788  0.49999595
   0.49386026  0.53828415  0.49999575
   0.52839334  0.53508975  0.49999315
   0.54359917  0.50315554  0.49999089
   0.52278716  0.47474668  0.49998762
   0.57906463  0.49988500  0.49999872
   0.60938220  0.49721207  0.50001600
   0.41764763  0.48719261  0.50000914
   0.43977158  0.51556952  0.50000223
   0.53405380  0.44992463  0.49998179
   0.63607079  0.49478018  0.50003143
   0.54403240  0.55741602  0.49998665
   0.48211792  0.56288309  0.49999685
   0.39232988  0.49757024  0.50001727
   0.42135383  0.47182504  0.47749664
   0.42136794  0.47182481  0.52251922
   0.47276151  0.45522438  0.49999072
 
 position of ions in cartesian coordinates  (Angst):
  19.52105563 19.10993645 19.99959809
  18.93514303 20.38671529 19.99983815
  19.75441053 21.53136611 19.99983001
  21.13573371 21.40358982 19.99972599
  21.74396681 20.12622150 19.99963548
  20.91148629 18.98986704 19.99950476
  23.16258511 19.99540018 19.99994881
  24.37528792 19.88848299 20.00064007
  16.70590516 19.48770428 20.00036552
  17.59086318 20.62278094 20.00008939
  21.36215183 17.99698538 19.99927165
  25.44283168 19.79120723 20.00125740
  21.76129609 22.29664063 19.99946612
  19.28471695 22.51532367 19.99987416
  15.69319511 19.90280960 20.00069092
  16.85415304 18.87300147 19.09986569
  16.85471748 18.87299234 20.90076892
  18.91046046 18.20897508 19.99962887
 


--------------------------------------------------------------------------------------------------------


 k-point   1 :   0.0000 0.0000 0.0000  plane waves: 1624525

 maximum and minimum number of plane-waves per node :     54169    54136

 maximum number of plane-waves:   1624525
 maximum index in each direction: 
   IXMAX=   72   IYMAX=   72   IZMAX=   72
   IXMIN=  -72   IYMIN=  -72   IZMIN=  -72


 real space projection operators:
  total allocation   :       2009.45 KBytes
  max/ min on nodes  :         94.26         42.42


 parallel 3D FFT for wavefunctions:
    minimum data exchange during FFTs selected (reduces bandwidth)
 parallel 3D FFT for charge:
    minimum data exchange during FFTs selected (reduces bandwidth)


 FFT grid for exact exchange (Hartree Fock) 
  NGX =224; NGY =224; NGZ =224

 
 Radii for the augmentation spheres in the non-local exchange
 for species   1 augmentation radius   0.874 (default was   0.699)
       energy cutoff for augmentation   2000.0
 for species   2 augmentation radius   0.902 (default was   0.722)
       energy cutoff for augmentation   2000.0
 for species   3 augmentation radius   0.650 (default was   0.520)
       energy cutoff for augmentation   2000.0

 real space projection operators:
  total allocation   :        462.66 KBytes
  max/ min on nodes  :         22.85          9.07

 Maximum index for augmentation-charges in exchange           69
  SETUP_FOCK is finished

 total amount of memory used by VASP MPI-rank0   521181. kBytes
=======================================================================

   base      :      30000. kBytes
   nonlr-proj:       1176. kBytes
   fftplans  :     129164. kBytes
   grid      :     282813. kBytes
   one-center:          6. kBytes
   HF        :          4. kBytes
   wavefun   :      78018. kBytes
 
     INWAV:  cpu time     13.3609: real time     13.3850
 Broyden mixing: mesh for mixing (old mesh)
   NGX =145   NGY =145   NGZ =145
  (NGX  =588   NGY  =588   NGZ  =588)
  gives a total of ****** points

 initial charge density was supplied:
 charge density of overlapping atoms calculated
 number of electron      50.0000000 magnetization      18.0000000
 charge density for first step will be calculated from the start-wavefunctions


--------------------------------------------------------------------------------------------------------


 Maximum index for non-local projection operator          194
 Maximum index for augmentation-charges          323 (set IRDMAX)


--------------------------------------------------------------------------------------------------------


 initial charge from wavefunction
 First call to EWALD:  gamma=   0.044
 Maximum number of real-space cells 3x 3x 3
 Maximum number of reciprocal cells 3x 3x 3

    FEWALD:  cpu time      0.0069: real time      0.0069


--------------------------------------- Ionic step        1  -------------------------------------------




--------------------------------------- Iteration      1(   1)  ---------------------------------------


    POTLOK:  cpu time    570.1018: real time    570.1906
    SETDIJ:  cpu time      0.1511: real time      0.1511
    TRIAL :  cpu time    164.4600: real time    164.4698
    CORREC:  cpu time      0.0148: real time      0.0148
    CHARGE:  cpu time      3.1884: real time      3.1886
    --------------------------------------------
      LOOP:  cpu time    737.9662: real time    738.0668

 eigenvalue-minimisations  :     0
 total energy-change (2. order) :-0.1335986E+03  (-0.1284636E+00)
 number of electron      49.9999992 magnetization      -0.0000000
 augmentation part        1.6511541 magnetization      -0.0000001

 Free energy of the ion-electron system (eV)
  ---------------------------------------------------
  alpha Z        PSCENC =         0.17771760
  Ewald energy   TEWEN  =      4978.71694789
  -Hartree energ DENC   =     -6487.54749185
  -exchange      EXHF   =       114.21624894
  -V(xc)+E(xc)   XCENC  =       132.75710182
  PAW double counting   =      4328.12363208    -4333.65192700
  entropy T*S    EENTRO =        -0.00000000
  eigenvalues    EBANDS =      -705.21274264
  atomic energy  EATOM  =      1833.91545648
  ---------------------------------------------------
  free energy    TOTEN  =      -133.59860444 eV

  energy without entropy =     -133.59860444  energy(sigma->0) =     -133.59860444
  exchange ACFDT corr.  =        -0.00000000  see jH, gK, PRB 81, 115126


--------------------------------------------------------------------------------------------------------




--------------------------------------- Iteration      1(   2)  ---------------------------------------


    POTLOK:  cpu time    503.5958: real time    503.6214
    SETDIJ:  cpu time      0.1520: real time      0.1520
    TRIAL :  cpu time    166.8127: real time    166.8205
    CORREC:  cpu time      0.0174: real time      0.0174
    CHARGE:  cpu time      3.4079: real time      3.4080
    --------------------------------------------
      LOOP:  cpu time    674.0010: real time    674.0475

 eigenvalue-minimisations  :     0
 total energy-change (2. order) :-0.9478255E-01  (-0.6525862E-01)
 number of electron      49.9999992 magnetization      -0.0000000
 augmentation part        1.6435507 magnetization      -0.0000003

 Free energy of the ion-electron system (eV)
  ---------------------------------------------------
  alpha Z        PSCENC =         0.17771760
  Ewald energy   TEWEN  =      4978.71694789
  -Hartree energ DENC   =     -6487.98345490
  -exchange      EXHF   =       114.30302259
  -V(xc)+E(xc)   XCENC  =       132.75587623
  PAW double counting   =      4426.18144263    -4431.64868511
  entropy T*S    EENTRO =        -0.00000000
  eigenvalues    EBANDS =      -705.63798375
  atomic energy  EATOM  =      1833.91545648
  ---------------------------------------------------
  free energy    TOTEN  =      -133.69338699 eV

  energy without entropy =     -133.69338699  energy(sigma->0) =     -133.69338699
  exchange ACFDT corr.  =        -0.00000000  see jH, gK, PRB 81, 115126


--------------------------------------------------------------------------------------------------------




--------------------------------------- Iteration      1(   3)  ---------------------------------------


    POTLOK:  cpu time    477.0223: real time    477.0364
    SETDIJ:  cpu time      0.0815: real time      0.0815
    TRIAL :  cpu time    166.7188: real time    166.7302
    CORREC:  cpu time      0.0150: real time      0.0150
    CHARGE:  cpu time      2.8451: real time      2.8452
    --------------------------------------------
      LOOP:  cpu time    646.6977: real time    646.7315

 eigenvalue-minimisations  :     0
 total energy-change (2. order) :-0.4370682E-01  (-0.1929711E-01)
 number of electron      49.9999992 magnetization      -0.0000000
 augmentation part        1.6392436 magnetization      -0.0000002

 Free energy of the ion-electron system (eV)
  ---------------------------------------------------
  alpha Z        PSCENC =         0.17771760
  Ewald energy   TEWEN  =      4978.71694789
  -Hartree energ DENC   =     -6487.57470740
  -exchange      EXHF   =       114.34475360
  -V(xc)+E(xc)   XCENC  =       132.72198762
  PAW double counting   =      4526.32296306    -4531.73348138
  entropy T*S    EENTRO =        -0.00000000
  eigenvalues    EBANDS =      -706.60683084
  atomic energy  EATOM  =      1833.91545648
  ---------------------------------------------------
  free energy    TOTEN  =      -133.73709381 eV

  energy without entropy =     -133.73709381  energy(sigma->0) =     -133.73709381
  exchange ACFDT corr.  =         0.00000000  see jH, gK, PRB 81, 115126


--------------------------------------------------------------------------------------------------------




--------------------------------------- Iteration      1(   4)  ---------------------------------------


    POTLOK:  cpu time    452.0119: real time    452.0371
    SETDIJ:  cpu time      0.0721: real time      0.0721
    TRIAL :  cpu time    166.8395: real time    166.8498
    CORREC:  cpu time      0.0113: real time      0.0113
    CHARGE:  cpu time      3.2421: real time      3.2423
    --------------------------------------------
      LOOP:  cpu time    622.2283: real time    622.2759

 eigenvalue-minimisations  :     0
 total energy-change (2. order) :-0.1217275E-01  (-0.5316057E-02)
 number of electron      49.9999992 magnetization      -0.0000000
 augmentation part        1.6382086 magnetization      -0.0000001

 Free energy of the ion-electron system (eV)
  ---------------------------------------------------
  alpha Z        PSCENC =         0.17771760
  Ewald energy   TEWEN  =      4978.71694789
  -Hartree energ DENC   =     -6487.88431301
  -exchange      EXHF   =       114.38678007
  -V(xc)+E(xc)   XCENC  =       132.71920306
  PAW double counting   =      4594.52994736    -4599.90645032
  entropy T*S    EENTRO =        -0.00000000
  eigenvalues    EBANDS =      -706.54864280
  atomic energy  EATOM  =      1833.91545648
  ---------------------------------------------------
  free energy    TOTEN  =      -133.74926656 eV

  energy without entropy =     -133.74926656  energy(sigma->0) =     -133.74926656
  exchange ACFDT corr.  =         0.00000000  see jH, gK, PRB 81, 115126


--------------------------------------------------------------------------------------------------------




--------------------------------------- Iteration      1(   5)  ---------------------------------------


    POTLOK:  cpu time    431.4292: real time    431.4536
    SETDIJ:  cpu time      0.0680: real time      0.0680
    TRIAL :  cpu time    165.9386: real time    165.9445
    CORREC:  cpu time      0.0132: real time      0.0132
    CHARGE:  cpu time      3.2531: real time      3.2532
    --------------------------------------------
      LOOP:  cpu time    600.7126: real time    600.7575

 eigenvalue-minimisations  :     0
 total energy-change (2. order) :-0.3329197E-02  (-0.1946205E-02)
 number of electron      49.9999992 magnetization      -0.0000000
 augmentation part        1.6385018 magnetization      -0.0000001

 Free energy of the ion-electron system (eV)
  ---------------------------------------------------
  alpha Z        PSCENC =         0.17771760
  Ewald energy   TEWEN  =      4978.71694789
  -Hartree energ DENC   =     -6488.54030738
  -exchange      EXHF   =       114.42732503
  -V(xc)+E(xc)   XCENC  =       132.73805646
  PAW double counting   =      4630.47619868    -4635.83955437
  entropy T*S    EENTRO =        -0.00000000
  eigenvalues    EBANDS =      -705.97770790
  atomic energy  EATOM  =      1833.91545648
  ---------------------------------------------------
  free energy    TOTEN  =      -133.75259576 eV

  energy without entropy =     -133.75259576  energy(sigma->0) =     -133.75259576
  exchange ACFDT corr.  =        -0.00000000  see jH, gK, PRB 81, 115126


--------------------------------------------------------------------------------------------------------




--------------------------------------- Iteration      1(   6)  ---------------------------------------


    POTLOK:  cpu time    438.3429: real time    438.3533
    SETDIJ:  cpu time      0.0729: real time      0.0728
    TRIAL :  cpu time    165.9609: real time    165.9652
    CORREC:  cpu time      0.0194: real time      0.0194
    CHARGE:  cpu time      3.2788: real time      3.2789
    --------------------------------------------
      LOOP:  cpu time    607.7126: real time    607.7344

 eigenvalue-minimisations  :     0
 total energy-change (2. order) :-0.1308369E-02  (-0.1002665E-02)
 number of electron      49.9999992 magnetization      -0.0000000
 augmentation part        1.6389502 magnetization      -0.0000001

 Free energy of the ion-electron system (eV)
  ---------------------------------------------------
  alpha Z        PSCENC =         0.17771760
  Ewald energy   TEWEN  =      4978.71694789
  -Hartree energ DENC   =     -6488.80547025
  -exchange      EXHF   =       114.44711683
  -V(xc)+E(xc)   XCENC  =       132.75008280
  PAW double counting   =      4644.69049711    -4650.05200318
  entropy T*S    EENTRO =        -0.00000000
  eigenvalues    EBANDS =      -705.70337452
  atomic energy  EATOM  =      1833.91545648
  ---------------------------------------------------
  free energy    TOTEN  =      -133.75390413 eV

  energy without entropy =     -133.75390413  energy(sigma->0) =     -133.75390413
  exchange ACFDT corr.  =         0.00000000  see jH, gK, PRB 81, 115126


--------------------------------------------------------------------------------------------------------




--------------------------------------- Iteration      1(   7)  ---------------------------------------


    POTLOK:  cpu time    436.5529: real time    436.5875
    SETDIJ:  cpu time      0.0737: real time      0.0737
    TRIAL :  cpu time    166.0194: real time    166.0298
    CORREC:  cpu time      0.1219: real time      0.1219
    CHARGE:  cpu time      3.4691: real time      3.4693
    --------------------------------------------
      LOOP:  cpu time    606.2398: real time    606.2994

 eigenvalue-minimisations  :     0
 total energy-change (2. order) :-0.7420799E-03  (-0.5513577E-03)
 number of electron      49.9999992 magnetization      -0.0000000
 augmentation part        1.6392943 magnetization      -0.0000002

 Free energy of the ion-electron system (eV)
  ---------------------------------------------------
  alpha Z        PSCENC =         0.17771760
  Ewald energy   TEWEN  =      4978.71694789
  -Hartree energ DENC   =     -6488.75330990
  -exchange      EXHF   =       114.45027892
  -V(xc)+E(xc)   XCENC  =       132.75223172
  PAW double counting   =      4646.96561048    -4652.32917931
  entropy T*S    EENTRO =        -0.00000000
  eigenvalues    EBANDS =      -705.72519713
  atomic energy  EATOM  =      1833.91545648
  ---------------------------------------------------
  free energy    TOTEN  =      -133.75464621 eV

  energy without entropy =     -133.75464621  energy(sigma->0) =     -133.75464621
  exchange ACFDT corr.  =        -0.00000000  see jH, gK, PRB 81, 115126


--------------------------------------------------------------------------------------------------------




--------------------------------------- Iteration      1(   8)  ---------------------------------------


    POTLOK:  cpu time    427.1361: real time    427.1574
    SETDIJ:  cpu time      0.0683: real time      0.0683
    TRIAL :  cpu time    164.9276: real time    164.9329
    CORREC:  cpu time      0.0154: real time      0.0154
    CHARGE:  cpu time      3.2559: real time      3.2560
    --------------------------------------------
      LOOP:  cpu time    595.4307: real time    595.4675

 eigenvalue-minimisations  :     0
 total energy-change (2. order) :-0.4206721E-03  (-0.2706904E-03)
 number of electron      49.9999992 magnetization      -0.0000000
 augmentation part        1.6395510 magnetization      -0.0000002

 Free energy of the ion-electron system (eV)
  ---------------------------------------------------
  alpha Z        PSCENC =         0.17771760
  Ewald energy   TEWEN  =      4978.71694789
  -Hartree energ DENC   =     -6488.67977085
  -exchange      EXHF   =       114.44838359
  -V(xc)+E(xc)   XCENC  =       132.75158720
  PAW double counting   =      4644.01424871    -4649.38039476
  entropy T*S    EENTRO =        -0.00000000
  eigenvalues    EBANDS =      -705.78696592
  atomic energy  EATOM  =      1833.91545648
  ---------------------------------------------------
  free energy    TOTEN  =      -133.75506688 eV

  energy without entropy =     -133.75506688  energy(sigma->0) =     -133.75506688
  exchange ACFDT corr.  =        -0.00000000  see jH, gK, PRB 81, 115126


--------------------------------------------------------------------------------------------------------




--------------------------------------- Iteration      1(   9)  ---------------------------------------


    POTLOK:  cpu time    379.5479: real time    379.5726
    SETDIJ:  cpu time      0.0723: real time      0.0723
    TRIAL :  cpu time    165.6123: real time    165.6183
    CORREC:  cpu time      0.0106: real time      0.0106
    CHARGE:  cpu time      4.2273: real time      4.2274
    --------------------------------------------
      LOOP:  cpu time    549.4995: real time    549.5400

 eigenvalue-minimisations  :     0
 total energy-change (2. order) :-0.2115579E-03  (-0.1301163E-03)
 number of electron      49.9999992 magnetization      -0.0000000
 augmentation part        1.6397327 magnetization      -0.0000002

 Free energy of the ion-electron system (eV)
  ---------------------------------------------------
  alpha Z        PSCENC =         0.17771760
  Ewald energy   TEWEN  =      4978.71694789
  -Hartree energ DENC   =     -6488.66985336
  -exchange      EXHF   =       114.44708596
  -V(xc)+E(xc)   XCENC  =       132.75163178
  PAW double counting   =      4639.86985857    -4645.23822302
  entropy T*S    EENTRO =        -0.00000000
  eigenvalues    EBANDS =      -705.79877503
  atomic energy  EATOM  =      1833.91545648
  ---------------------------------------------------
  free energy    TOTEN  =      -133.75527844 eV

  energy without entropy =     -133.75527844  energy(sigma->0) =     -133.75527844
  exchange ACFDT corr.  =         0.00000000  see jH, gK, PRB 81, 115126


--------------------------------------------------------------------------------------------------------




--------------------------------------- Iteration      1(  10)  ---------------------------------------


    POTLOK:  cpu time    352.7773: real time    352.7879
    SETDIJ:  cpu time      0.0711: real time      0.0710
    TRIAL :  cpu time    165.9230: real time    165.9287
    CORREC:  cpu time      0.0069: real time      0.0069
    CHARGE:  cpu time      4.2085: real time      4.2087
    --------------------------------------------
      LOOP:  cpu time    523.0401: real time    523.0665

 eigenvalue-minimisations  :     0
 total energy-change (2. order) :-0.1052249E-03  (-0.6731476E-04)
 number of electron      49.9999992 magnetization       0.0000000
 augmentation part        1.6398464 magnetization      -0.0000002

 Free energy of the ion-electron system (eV)
  ---------------------------------------------------
  alpha Z        PSCENC =         0.17771760
  Ewald energy   TEWEN  =      4978.71694789
  -Hartree energ DENC   =     -6488.67946530
  -exchange      EXHF   =       114.44659140
  -V(xc)+E(xc)   XCENC  =       132.75198766
  PAW double counting   =      4636.44816963    -4641.81810351
  entropy T*S    EENTRO =        -0.00000000
  eigenvalues    EBANDS =      -705.79173341
  atomic energy  EATOM  =      1833.91545648
  ---------------------------------------------------
  free energy    TOTEN  =      -133.75538366 eV

  energy without entropy =     -133.75538366  energy(sigma->0) =     -133.75538366
  exchange ACFDT corr.  =         0.00000000  see jH, gK, PRB 81, 115126


--------------------------------------------------------------------------------------------------------




--------------------------------------- Iteration      1(  11)  ---------------------------------------


    POTLOK:  cpu time    370.3640: real time    370.3723
    SETDIJ:  cpu time      0.0690: real time      0.0690
    TRIAL :  cpu time    165.8334: real time    165.8374
    CORREC:  cpu time      0.0198: real time      0.0198
    CHARGE:  cpu time      3.6818: real time      3.6819
    --------------------------------------------
      LOOP:  cpu time    539.9832: real time    540.0020

 eigenvalue-minimisations  :     0
 total energy-change (2. order) :-0.5649597E-04  (-0.3847632E-04)
 number of electron      49.9999992 magnetization       0.0000000
 augmentation part        1.6399135 magnetization      -0.0000002

 Free energy of the ion-electron system (eV)
  ---------------------------------------------------
  alpha Z        PSCENC =         0.17771760
  Ewald energy   TEWEN  =      4978.71694789
  -Hartree energ DENC   =     -6488.67932735
  -exchange      EXHF   =       114.44625288
  -V(xc)+E(xc)   XCENC  =       132.75203015
  PAW double counting   =      4634.32598935    -4639.69691507
  entropy T*S    EENTRO =        -0.00000000
  eigenvalues    EBANDS =      -705.79162821
  atomic energy  EATOM  =      1833.91545648
  ---------------------------------------------------
  free energy    TOTEN  =      -133.75544016 eV

  energy without entropy =     -133.75544016  energy(sigma->0) =     -133.75544016
  exchange ACFDT corr.  =         0.00000000  see jH, gK, PRB 81, 115126


--------------------------------------------------------------------------------------------------------




--------------------------------------- Iteration      1(  12)  ---------------------------------------


    POTLOK:  cpu time    387.5779: real time    387.6182
    SETDIJ:  cpu time      0.0743: real time      0.0743
    TRIAL :  cpu time    165.4166: real time    165.4223
    CORREC:  cpu time      0.0136: real time      0.0136
    CHARGE:  cpu time      2.8780: real time      2.8782
    --------------------------------------------
      LOOP:  cpu time    555.9908: real time    556.0453

 eigenvalue-minimisations  :     0
 total energy-change (2. order) :-0.3341863E-04  (-0.2367434E-04)
 number of electron      49.9999992 magnetization       0.0000000
 augmentation part        1.6399548 magnetization      -0.0000002

 Free energy of the ion-electron system (eV)
  ---------------------------------------------------
  alpha Z        PSCENC =         0.17771760
  Ewald energy   TEWEN  =      4978.71694789
  -Hartree energ DENC   =     -6488.67542056
  -exchange      EXHF   =       114.44607619
  -V(xc)+E(xc)   XCENC  =       132.75191296
  PAW double counting   =      4633.38815629    -4638.75962224
  entropy T*S    EENTRO =        -0.00000000
  eigenvalues    EBANDS =      -705.79503932
  atomic energy  EATOM  =      1833.91545648
  ---------------------------------------------------
  free energy    TOTEN  =      -133.75547358 eV

  energy without entropy =     -133.75547358  energy(sigma->0) =     -133.75547358
  exchange ACFDT corr.  =        -0.00000000  see jH, gK, PRB 81, 115126


--------------------------------------------------------------------------------------------------------




--------------------------------------- Iteration      1(  13)  ---------------------------------------


    POTLOK:  cpu time    366.9508: real time    366.9622
    SETDIJ:  cpu time      0.0726: real time      0.0725
    TRIAL :  cpu time    166.5679: real time    166.5834
    CORREC:  cpu time      0.0116: real time      0.0116
    CHARGE:  cpu time      3.6528: real time      3.6529
    --------------------------------------------
      LOOP:  cpu time    537.2729: real time    537.3073

 eigenvalue-minimisations  :     0
 total energy-change (2. order) :-0.2119556E-04  (-0.1533985E-04)
 number of electron      49.9999992 magnetization       0.0000000
 augmentation part        1.6399814 magnetization      -0.0000002

 Free energy of the ion-electron system (eV)
  ---------------------------------------------------
  alpha Z        PSCENC =         0.17771760
  Ewald energy   TEWEN  =      4978.71694789
  -Hartree energ DENC   =     -6488.67754299
  -exchange      EXHF   =       114.44619269
  -V(xc)+E(xc)   XCENC  =       132.75192586
  PAW double counting   =      4633.20091018    -4638.57264607
  entropy T*S    EENTRO =        -0.00000000
  eigenvalues    EBANDS =      -705.79397444
  atomic energy  EATOM  =      1833.91545648
  ---------------------------------------------------
  free energy    TOTEN  =      -133.75549477 eV

  energy without entropy =     -133.75549477  energy(sigma->0) =     -133.75549477
  exchange ACFDT corr.  =        -0.00000000  see jH, gK, PRB 81, 115126


--------------------------------------------------------------------------------------------------------




--------------------------------------- Iteration      1(  14)  ---------------------------------------


    POTLOK:  cpu time    346.0616: real time    346.0696
    SETDIJ:  cpu time      0.0708: real time      0.0708
    TRIAL :  cpu time    165.8235: real time    165.8276
    CORREC:  cpu time      0.0097: real time      0.0097
    CHARGE:  cpu time      3.2596: real time      3.2597
    --------------------------------------------
      LOOP:  cpu time    515.2607: real time    515.2811

 eigenvalue-minimisations  :     0
 total energy-change (2. order) :-0.1407958E-04  (-0.1062471E-04)
 number of electron      49.9999992 magnetization       0.0000000
 augmentation part        1.6399998 magnetization      -0.0000003

 Free energy of the ion-electron system (eV)
  ---------------------------------------------------
  alpha Z        PSCENC =         0.17771760
  Ewald energy   TEWEN  =      4978.71694789
  -Hartree energ DENC   =     -6488.68306538
  -exchange      EXHF   =       114.44645433
  -V(xc)+E(xc)   XCENC  =       132.75203525
  PAW double counting   =      4633.34433839    -4638.71619390
  entropy T*S    EENTRO =        -0.00000000
  eigenvalues    EBANDS =      -705.79027154
  atomic energy  EATOM  =      1833.91545648
  ---------------------------------------------------
  free energy    TOTEN  =      -133.75550885 eV

  energy without entropy =     -133.75550885  energy(sigma->0) =     -133.75550885
  exchange ACFDT corr.  =        -0.00000000  see jH, gK, PRB 81, 115126


--------------------------------------------------------------------------------------------------------




--------------------------------------- Iteration      1(  15)  ---------------------------------------


    POTLOK:  cpu time    330.5370: real time    330.5465
    SETDIJ:  cpu time      0.0681: real time      0.0681
    TRIAL :  cpu time    166.7204: real time    166.7294
    CORREC:  cpu time      0.1609: real time      0.1609
    CHARGE:  cpu time      3.4653: real time      3.4653
    --------------------------------------------
      LOOP:  cpu time    500.9955: real time    501.0216

 eigenvalue-minimisations  :     0
 total energy-change (2. order) :-0.9917027E-05  (-0.7939262E-05)
 number of electron      49.9999992 magnetization      -0.0000000
 augmentation part        1.6400129 magnetization      -0.0000002

 Free energy of the ion-electron system (eV)
  ---------------------------------------------------
  alpha Z        PSCENC =         0.17771760
  Ewald energy   TEWEN  =      4978.71694789
  -Hartree energ DENC   =     -6488.68731824
  -exchange      EXHF   =       114.44667866
  -V(xc)+E(xc)   XCENC  =       132.75212109
  PAW double counting   =      4633.57260923    -4638.94452449
  entropy T*S    EENTRO =        -0.00000000
  eigenvalues    EBANDS =      -705.78756643
  atomic energy  EATOM  =      1833.91545648
  ---------------------------------------------------
  free energy    TOTEN  =      -133.75551877 eV

  energy without entropy =     -133.75551877  energy(sigma->0) =     -133.75551877
  exchange ACFDT corr.  =        -0.00000000  see jH, gK, PRB 81, 115126


--------------------------------------------------------------------------------------------------------


  average scaling for gradient   1.5386


 average (electrostatic) potential at core
  the test charge radii are     0.6991  0.7215  0.5201
  (the norm of the test charge is              1.0000)
       1 -55.1612       2 -56.7578       3 -55.1145       4 -55.3199       5 -55.6781
       6 -55.3409       7 -55.2974       8 -54.9262       9 -55.9017      10 -75.2310
      11 -38.0574      12 -39.1491      13 -38.0554      14 -38.0566      15 -37.8953
      16 -37.8402      17 -37.8403      18 -38.1602
 
 
 
 E-fermi :  -5.7747     XC(G=0):  -0.0262     alpha+bet : -0.0187

 Fermi energy:        -5.7746962598

 spin component 1

 k-point     1 :       0.0000    0.0000    0.0000
  band No.  band energies     occupation 
      1     -29.5854      1.00000
      2     -23.9246      1.00000
      3     -21.7236      1.00000
      4     -20.9133      1.00000
      5     -20.2861      1.00000
      6     -19.1730      1.00000
      7     -17.0780      1.00000
      8     -16.7326      1.00000
      9     -15.0923      1.00000
     10     -14.4345      1.00000
     11     -13.5326      1.00000
     12     -13.4108      1.00000
     13     -12.7708      1.00000
     14     -12.2399      1.00000
     15     -11.6678      1.00000
     16     -11.3587      1.00000
     17     -10.7268      1.00000
     18     -10.7214      1.00000
     19      -9.9772      1.00000
     20      -9.4936      1.00000
     21      -9.0658      1.00000
     22      -8.0067      1.00000
     23      -7.7226      1.00000
     24      -7.2466      1.00000
     25      -6.0090      1.00000
     26      -1.2978      0.00000
     27      -0.9323      0.00000
     28      -0.3271      0.00000
     29       0.0342      0.00000
     30      -0.0452      0.00000
     31       0.4086      0.00000
     32       0.0143      0.00000
     33       0.0827      0.00000
     34       0.0966      0.00000
     35       0.0983      0.00000
     36       0.1162      0.00000
     37       0.1247      0.00000
     38       0.1297      0.00000
     39       0.1542      0.00000
     40       0.1954      0.00000
     41       0.1886      0.00000
     42       0.1888      0.00000
     43       0.1910      0.00000
     44       0.1895      0.00000
     45       0.3210      0.00000
 Fermi energy:        -5.7746962598

 spin component 2

 k-point     1 :       0.0000    0.0000    0.0000
  band No.  band energies     occupation 
      1     -29.5854      1.00000
      2     -23.9246      1.00000
      3     -21.7236      1.00000
      4     -20.9133      1.00000
      5     -20.2861      1.00000
      6     -19.1730      1.00000
      7     -17.0780      1.00000
      8     -16.7326      1.00000
      9     -15.0923      1.00000
     10     -14.4345      1.00000
     11     -13.5326      1.00000
     12     -13.4108      1.00000
     13     -12.7708      1.00000
     14     -12.2399      1.00000
     15     -11.6678      1.00000
     16     -11.3587      1.00000
     17     -10.7268      1.00000
     18     -10.7214      1.00000
     19      -9.9772      1.00000
     20      -9.4936      1.00000
     21      -9.0658      1.00000
     22      -8.0067      1.00000
     23      -7.7226      1.00000
     24      -7.2466      1.00000
     25      -6.0090      1.00000
     26      -1.2978      0.00000
     27      -0.9323      0.00000
     28      -0.3271      0.00000
     29       0.0342      0.00000
     30      -0.0452      0.00000
     31       0.4093      0.00000
     32       0.0143      0.00000
     33       0.0827      0.00000
     34       0.0966      0.00000
     35       0.0983      0.00000
     36       0.1162      0.00000
     37       0.1247      0.00000
     38       0.1298      0.00000
     39       0.1542      0.00000
     40       0.1955      0.00000
     41       0.1886      0.00000
     42       0.1888      0.00000
     43       0.1910      0.00000
     44       0.1896      0.00000
     45       0.2960      0.00000


--------------------------------------------------------------------------------------------------------


 soft charge-density along one line, spin component           1
         0         1         2         3         4         5         6         7         8         9
 total charge-density along one line
 
 soft charge-density along one line, spin component           2
         0         1         2         3         4         5         6         7         8         9
 total charge-density along one line
 
 pseudopotential strength for first ion, spin component:           1
  9.994  13.289   0.002   0.000   0.000  -0.006  -0.000  -0.001
 13.289  17.670   0.003   0.000   0.000  -0.008  -0.000  -0.001
  0.002   0.003  -4.214  -0.000   0.001   8.215   0.000  -0.002
  0.000   0.000  -0.000  -4.210   0.000   0.000   8.210  -0.000
  0.000   0.000   0.001   0.000  -4.213  -0.002  -0.000   8.213
 -0.006  -0.008   8.215   0.000  -0.002 -18.131   0.000   0.004
 -0.000  -0.000   0.000   8.210  -0.000   0.000 -18.129   0.000
 -0.001  -0.001  -0.002  -0.000   8.213   0.004   0.000 -18.128
 pseudopotential strength for first ion, spin component:           2
  9.994  13.289   0.002   0.000   0.000  -0.006  -0.000  -0.001
 13.289  17.670   0.003   0.000   0.000  -0.008  -0.000  -0.001
  0.002   0.003  -4.214  -0.000   0.001   8.215   0.000  -0.002
  0.000   0.000  -0.000  -4.210   0.000   0.000   8.210  -0.000
  0.000   0.000   0.001   0.000  -4.213  -0.002  -0.000   8.213
 -0.006  -0.008   8.215   0.000  -0.002 -18.131   0.000   0.004
 -0.000  -0.000   0.000   8.210  -0.000   0.000 -18.129   0.000
 -0.001  -0.001  -0.002  -0.000   8.213   0.004   0.000 -18.128
 total augmentation occupancy for first ion, spin component:           1
  8.916  -4.053   0.201   0.000   0.141   0.044   0.000   0.028
 -4.053   1.878  -0.145  -0.000  -0.087  -0.028  -0.000  -0.016
  0.201  -0.145   1.800   0.000  -0.027   0.171   0.000  -0.009
  0.000  -0.000   0.000   1.216  -0.000   0.000   0.078  -0.000
  0.141  -0.087  -0.027  -0.000   1.848  -0.009  -0.000   0.178
  0.044  -0.028   0.171   0.000  -0.009   0.017   0.000  -0.002
  0.000  -0.000   0.000   0.078  -0.000   0.000   0.005  -0.000
  0.028  -0.016  -0.009  -0.000   0.178  -0.002  -0.000   0.018
 total augmentation occupancy for first ion, spin component:           2
  0.000  -0.000  -0.000  -0.000   0.000  -0.000   0.000   0.000
 -0.000   0.000   0.000  -0.000  -0.000   0.000  -0.000  -0.000
 -0.000   0.000   0.000   0.000  -0.000   0.000  -0.000   0.000
 -0.000  -0.000   0.000   0.000   0.000  -0.000  -0.000   0.000
  0.000  -0.000  -0.000   0.000   0.000   0.000  -0.000   0.000
 -0.000   0.000   0.000  -0.000   0.000   0.000  -0.000   0.000
  0.000  -0.000  -0.000  -0.000  -0.000  -0.000  -0.000  -0.000
  0.000  -0.000   0.000   0.000   0.000   0.000  -0.000  -0.000


------------------------ aborting loop because EDIFF is reached ----------------------------------------


    FORLOC:  cpu time      0.2803: real time      0.2803
    FORHF :  cpu time    103.2088: real time    103.2124
    FORNL :  cpu time      4.7134: real time      4.7136
    STRESS:  cpu time     14.6389: real time     14.6395
    FORCOR:  cpu time     22.1654: real time     22.1661
    OFIELD:  cpu time      0.0203: real time      0.0203
 WARNING: Using user supplied parameters
     VDW_A1 = 0.383
     VDW_A2 = 5.685
     VDW_S8 = 2.31
     because the xc functional is not supported. Required parameters not
     defined in the INCAR file will be replaced with PBE defaults ones.


 ---------------------------------------------------------------------------------------------

         DFTD3 V3.0 Rev 1        
 IVDW         = 12
 DF unknown   
 parameters
 VDW_S6       =    1.0000
 VDW_S8       =    2.3100
 VDW_A1       =    0.3830
 VDW_A2       =    5.6850
 k1-k3        =   16.0000    1.3333   -4.0000
 VDW_RADIUS   =   50.2022 A
 VDW_CNRADIUS =   21.1671 A
 Edisp (eV)   -0.33347

 E6    (eV) :    -0.1698
 E8    (eV) :    -0.1637
 % E8        : 49.08
    FORVDW:  cpu time      0.0087: real time      0.0087

  FORCE on cell =-STRESS in cart. coord.  units (eV):
  Direction    XX          YY          ZZ          XY          YZ          ZX
  --------------------------------------------------------------------------------------
  Alpha Z     0.17772     0.17772     0.17772
  Ewald    3729.99806  1565.01462  -316.29627    79.80498     0.05202    -0.01947
  Hartree  3665.54757  1992.47776   830.66445    57.87824     0.03273    -0.05504
  E(xc)    -141.51490  -142.48016  -144.05658     0.01692     0.00004     0.00008
  Local   -7845.35838 -4060.48829 -1090.61236  -135.87101    -0.08500     0.08499
  n-local   -64.80874   -68.37236   -67.10097     1.07525    -0.00186    -0.00114
  augment     2.68407     4.04368     5.16375    -0.43477     0.00021     0.00038
  Kinetic   703.63042   759.99674   829.87210    -2.52291     0.00042    -0.00963
  Fock      -55.42744   -53.35064   -50.18098     0.33592    -0.00019    -0.00091
  vdW        -0.20297    -0.05406    -0.00183    -0.00794     0.00000    -0.00000
  -------------------------------------------------------------------------------------
  Total      -5.27458    -3.03499    -2.37097     0.27468    -0.00163    -0.00075
  in kB      -0.13204    -0.07598    -0.05935     0.00688    -0.00004    -0.00002
  external pressure =       -0.09 kB  Pullay stress =        0.00 kB


 VOLUME and BASIS-vectors are now :
 -----------------------------------------------------------------------------
  energy-cutoff  :      500.00
  volume of cell :    64000.00
      direct lattice vectors                 reciprocal lattice vectors
    40.000000000  0.000000000  0.000000000     0.025000000  0.000000000  0.000000000
     0.000000000 40.000000000  0.000000000     0.000000000  0.025000000  0.000000000
     0.000000000  0.000000000 40.000000000     0.000000000  0.000000000  0.025000000

  length of vectors
    40.000000000 40.000000000 40.000000000     0.025000000  0.025000000  0.025000000


 FORCES acting on ions:
    Electron-Ion                     Ewald-Force                    Non-Local-Force
 -----------------------------------------------------------------------------------------------
   0.465E+02 0.179E+03 0.447E-01   -.460E+02 -.180E+03 -.455E-01   0.358E+00 0.205E+01 0.129E-02
   0.140E+02 -.155E+02 0.165E-01   -.710E+01 0.153E+02 -.168E-01   -.622E+01 0.892E+00 0.107E-02
   0.284E+02 -.202E+03 -.613E-02   -.285E+02 0.203E+03 0.609E-02   0.256E+00 -.199E+01 0.422E-03
   -.996E+02 -.176E+03 0.133E-02   0.101E+03 0.177E+03 -.784E-03   -.797E+00 -.144E+01 0.122E-02
   -.110E+03 0.678E+01 0.413E-01   0.107E+03 -.639E+01 -.421E-01   0.276E+01 -.253E+00 0.223E-02
   -.699E+02 0.185E+03 0.442E-01   0.710E+02 -.185E+03 -.437E-01   -.556E+00 0.153E+01 -.365E-03
   -.909E+02 0.763E+01 0.530E-01   0.903E+02 -.756E+01 -.542E-01   0.152E+01 -.975E-01 0.210E-02
   -.220E+03 0.188E+02 -.886E-01   0.221E+03 -.188E+02 0.915E-01   -.357E+01 0.282E+00 -.490E-02
   0.200E+03 0.116E+03 -.491E-01   -.204E+03 -.120E+03 0.502E-01   0.459E+01 0.540E+01 -.101E-02
   0.239E+03 -.184E+03 -.211E-01   -.258E+03 0.225E+03 0.227E-01   0.178E+02 -.347E+02 -.176E-02
   -.314E+02 0.833E+02 0.217E-01   0.339E+02 -.880E+02 -.225E-01   -.236E+01 0.522E+01 0.131E-02
   -.738E+02 0.657E+01 -.382E-01   0.790E+02 -.704E+01 0.411E-01   -.604E+01 0.551E+00 -.357E-02
   -.448E+02 -.769E+02 0.193E-01   0.481E+02 0.812E+02 -.199E-01   -.328E+01 -.470E+01 0.151E-02
   0.264E+02 -.875E+02 -.215E-02   -.288E+02 0.923E+02 0.240E-02   0.244E+01 -.514E+01 -.225E-03
   0.860E+02 -.124E+02 -.255E-01   -.910E+02 0.147E+02 0.271E-01   0.531E+01 -.210E+01 -.169E-02
   0.269E+02 0.519E+02 0.583E+02   -.261E+02 -.547E+02 -.628E+02   -.667E+00 0.313E+01 0.455E+01
   0.268E+02 0.519E+02 -.583E+02   -.260E+02 -.547E+02 0.628E+02   -.670E+00 0.313E+01 -.455E+01
   0.321E+02 0.823E+02 0.587E-02   -.350E+02 -.866E+02 -.600E-02   0.316E+01 0.478E+01 -.222E-03
 -----------------------------------------------------------------------------------------------
   -.164E+02 0.280E+02 0.678E-02   -.782E-13 -.426E-13 -.422E-14   0.140E+02 -.235E+02 -.212E-02
 
 
 POSITION                                       TOTAL-FORCE (eV/Angst)
 -----------------------------------------------------------------------------------
     19.52106     19.10994     19.99960         0.057095      0.220432      0.000417
     18.93514     20.38672     19.99984        -0.047896      0.036041      0.000591
     19.75441     21.53137     19.99983         0.055863     -0.215484      0.000011
     21.13573     21.40359     19.99973        -0.077346     -0.213151      0.001117
     21.74397     20.12622     19.99964        -0.448150      0.022162      0.000972
     20.91149     18.98987     19.99950        -0.005631      0.239921     -0.000363
     23.16259     19.99540     19.99995         1.001888     -0.088744      0.000807
     24.37529     19.88848     20.00064        -0.954393      0.080990     -0.001679
     16.70591     19.48770     20.00037         0.178756      0.198720     -0.000047
     17.59086     20.62278     20.00009         0.236267     -0.558021     -0.000421
     21.36215     17.99699     19.99927        -0.108324      0.227361      0.000216
     25.44283     19.79121     20.00126        -0.200123      0.022477     -0.000545
     21.76130     22.29664     19.99947        -0.140607     -0.207855      0.000573
     19.28472     22.51532     19.99987         0.113070     -0.219917     -0.000243
     15.69320     19.90281     20.00069         0.243230     -0.081293     -0.000320
     16.85415     18.87300     19.09987        -0.015324      0.160928      0.212365
     16.85472     18.87299     20.90077        -0.015457      0.161000     -0.212889
     18.91046     18.20898     19.99963         0.127081      0.214433     -0.000561
 -----------------------------------------------------------------------------------
    total drift:                                0.000837     -0.033553      0.004146


--------------------------------------------------------------------------------------------------------



  FREE ENERGIE OF THE ION-ELECTRON SYSTEM (eV)
  ---------------------------------------------------
  free  energy   TOTEN  =      -134.08898913 eV

  energy  without entropy=     -134.08898913  energy(sigma->0) =     -134.08898913
 


--------------------------------------------------------------------------------------------------------


    POTLOK:  cpu time    336.8271: real time    336.8373


--------------------------------------------------------------------------------------------------------


 writing wavefunctions
     LOOP+:  cpu time   9349.7287: real time   9351.3162
    4ORBIT:  cpu time      0.0000: real time      0.0000

 total amount of memory used by VASP MPI-rank0   522729. kBytes
=======================================================================

   base      :      30000. kBytes
   nonlr-proj:       2724. kBytes
   fftplans  :     129164. kBytes
   grid      :     282813. kBytes
   one-center:          6. kBytes
   HF        :          4. kBytes
   wavefun   :      78018. kBytes
   fock_wrk  :          0. kBytes
 
  
  
 General timing and accounting informations for this job:
 ========================================================
  
                  Total CPU time used (sec):     9401.718
                            User time (sec):     4322.781
                          System time (sec):     5078.936
                         Elapsed time (sec):     9404.684
  
                   Maximum memory used (kb):     1447028.
                   Average memory used (kb):          N/A
  
                          Minor page faults:     36588278
                          Major page faults:            0
                 Voluntary context switches:         4197
