
                                 *****************
                                 * O   R   C   A *
                                 *****************

                                            #,                                       
                                            ###                                      
                                            ####                                     
                                            #####                                    
                                            ######                                   
                                           ########,                                 
                                     ,,################,,,,,                         
                               ,,#################################,,                 
                          ,,##########################################,,             
                       ,#########################################, ''#####,          
                    ,#############################################,,   '####,        
                  ,##################################################,,,,####,       
                ,###########''''           ''''###############################       
              ,#####''   ,,,,##########,,,,          '''####'''          '####       
            ,##' ,,,,###########################,,,                        '##       
           ' ,,###''''                  '''############,,,                           
         ,,##''                                '''############,,,,        ,,,,,,###''
      ,#''                                            '''#######################'''  
     '                                                          ''''####''''         
             ,#######,   #######,   ,#######,      ##                                
            ,#'     '#,  ##    ##  ,#'     '#,    #''#        ,####,   ,####,        
            ##       ##  ##   ,#'  ##            #'  '#       #'       #'  '#        
            ##       ##  #######   ##           ,######,      #####,   #    #        
            '#,     ,#'  ##    ##  '#,     ,#' ,#      #,     #,   #   #,  ,#        
             '#######'   ##     ##  '#######'  #'      '#     '####' # '####'        



                #########################################################
                #                        -***-                          #
                #          Department of theory and spectroscopy        #
                #                                                       #
                #                      Frank Neese                      #
                #                                                       #
                #     Directorship, Architecture, Infrastructure        #
                #                    SHARK, DRIVERS                     #
                #        Core code/Algorithms in most modules           #
                #                                                       #
                #        Max Planck Institute fuer Kohlenforschung      #
                #                Kaiser Wilhelm Platz 1                 #
                #                 D-45470 Muelheim/Ruhr                 #
                #                      Germany                          #
                #                                                       #
                #                  All rights reserved                  #
                #                        -***-                          #
                #########################################################


                         Program Version 6.0.0  -   RELEASE  -


 With contributions from (in alphabetic order):
   Daniel Aravena         : Magnetic Suceptibility
   Michael Atanasov       : Ab Initio Ligand Field Theory (pilot matlab implementation)
   Alexander A. Auer      : GIAO ZORA, VPT2 properties, NMR spectrum
   Ute Becker             : All parallelization in ORCA, NUMFREQ, NUMCALC
   Giovanni Bistoni       : ED, misc. LED, open-shell LED, HFLD
   Martin Brehm           : Molecular dynamics
   Dmytro Bykov           : pre 5.0 version of the SCF Hessian
   Marcos Casanova-Páez   : Triplet and SCS-CIS(D). UHF-(DLPNO)-IP/EA/STEOM-CCSD. UHF-CVS-IP/STEOM-CCSD
   Vijay G. Chilkuri      : MRCI spin determinant printing, contributions to CSF-ICE
   Pauline Colinet        : FMM embedding
   Dipayan Datta          : RHF DLPNO-CCSD density
   Achintya Kumar Dutta   : EOM-CC, STEOM-CC
   Nicolas Foglia         : Exact transition moments, OPA infrastructure, MCD improvements
   Dmitry Ganyushin       : Spin-Orbit,Spin-Spin,Magnetic field MRCI
   Miquel Garcia          : C-PCM and meta-GGA Hessian, CCSD/C-PCM, Gaussian charge scheme
   Tiago L. C. Gouveia    : GS-ROHF, GS-ROCIS
   Yang Guo               : DLPNO-NEVPT2, F12-NEVPT2, CIM, IAO-localization
   Andreas Hansen         : Spin unrestricted coupled pair/coupled cluster methods
   Ingolf Harden          : AUTO-CI MPn and infrastructure 
   Benjamin Helmich-Paris : MC-RPA, TRAH-(SCF,CASSCF), AVAS, COSX integrals, SCF dyn. polar.
   Lee Huntington         : MR-EOM, pCC
   Robert Izsak           : Overlap fitted RIJCOSX, COSX-SCS-MP3, EOM
   Riya Kayal             : Wick's Theorem for AUTO-CI, AUTO-CI UHF-CCSDT
   Emily Kempfer          : AUTO-CI, RHF CISDT and CCSDT
   Christian Kollmar      : KDIIS, OOCD, Brueckner-CCSD(T), CCSD density, CASPT2, CASPT2-K, improved NEVPT2
   Axel Koslowski         : Symmetry handling
   Simone Kossmann        : Meta GGA functionals, TD-DFT gradient, OOMP2, (MP2 Hessian; deprecated post 5.0)
   Lucas Lang             : DCDCAS
   Marvin Lechner         : AUTO-CI (C++ implementation), FIC-MRCC
   Spencer Leger          : CASSCF response
   Dagmar Lenk            : GEPOL surface, SMD, ORCA-2-JSON
   Dimitrios Liakos       : Extrapolation schemes; Compound Job, initial MDCI parallelization
   Dimitrios Manganas     : Further ROCIS development; embedding schemes. LFT, Crystal Embedding
   Dimitrios Pantazis     : SARC Basis sets
   Anastasios Papadopoulos: AUTO-CI, single reference methods and gradients
   Taras Petrenko         : pre 6.0 DFT Hessian and TD-DFT gradient, (ASA, deprecated), ECA, 1-Electron XAS/XES, NRVS
   Peter Pinski           : DLPNO-MP2, DLPNO-MP2 Gradient
   Christoph Reimann      : Effective Core Potentials
   Marius Retegan         : Local ZFS, SOC
   Christoph Riplinger    : Optimizer, TS searches, QM/MM, DLPNO-CCSD(T), (RO)-DLPNO pert. Triples
   Michael Roemelt        : Original ROCIS implementation
   Masaaki Saitow         : Open-shell DLPNO-CCSD energy and density
   Barbara Sandhoefer     : DKH picture change effects
   Kantharuban Sivalingam : CASSCF convergence/infrastructure, NEVPT2 and variants, FIC-MRCI
   Bernardo de Souza      : ESD, SOC TD-DFT
   Georgi Stoychev        : AutoAux, RI-MP2 NMR, DLPNO-MP2 response, X2C
   Van Anh Tran           : RI-MP2 g-tensors
   Willem Van den Heuvel  : Paramagnetic NMR
   Zikuan Wang            : NOTCH, Electric field optimization 
   Frank Wennmohs         : Technical directorship and infrastructure
   Hang Xu                : AUTO-CI-Response properties 


 We gratefully acknowledge several colleagues who have allowed us to
 interface, adapt or use parts of their codes:
   Stefan Grimme, W. Hujo, H. Kruse, P. Pracht,  : VdW corrections, initial TS optimization,
                  C. Bannwarth, S. Ehlert,         DFT functionals, gCP, sTDA/sTD-DF
                  L. Wittmann, M. Mueller
   Ed Valeev, F. Pavosevic, A. Kumar             : LibInt (2-el integral package), F12 methods
   Garnet Chan, S. Sharma, J. Yang, R. Olivares  : DMRG
   Ulf Ekstrom                                   : XCFun DFT Library
   Mihaly Kallay                                 : mrcc  (arbitrary order and MRCC methods)
   Frank Weinhold                                : gennbo (NPA and NBO analysis)
   Simon Mueller                                 : openCOSMO-RS
   Christopher J. Cramer and Donald G. Truhlar   : smd solvation model
   Lars Goerigk                                  : TD-DFT with DH, B97 family of functionals
   V. Asgeirsson, H. Jonsson                     : NEB implementation
   FAccTs GmbH                                   : IRC, NEB, NEB-TS, DLPNO-Multilevel, CI-OPT
                                                   MM, QMMM, 2- and 3-layer-ONIOM, Crystal-QMMM,
                                                   LR-CPCM, SF, NACMEs, symmetry and pop. for TD-DFT,
                                                   nearIR, NL-DFT gradient (VV10), updates on ESD,
                                                   ML-optimized integration grids, MBIS, APM,
                                                   GOAT, DOCKER, SOLVATOR, interface openCOSMO-RS
   S Lehtola, MJT Oliveira, MAL Marques          : LibXC Library
   Liviu Ungur et al                             : ANISO software


 Your calculation uses the libint2 library for the computation of 2-el integrals
 For citations please refer to: http://libint.valeyev.net

 Your ORCA version has been built with support for libXC version: 6.2.2
 For citations please refer to: https://libxc.gitlab.io

 This ORCA versions uses:
   CBLAS   interface :  Fast vector & matrix operations
   LAPACKE interface :  Fast linear algebra routines
   SCALAPACK package :  Parallel linear algebra routines
   Shared memory     :  Shared parallel matrices
   BLAS/LAPACK       :  OpenBLAS 0.3.27  USE64BITINT DYNAMIC_ARCH NO_AFFINITY Haswell SINGLE_THREADED
        Core in use  :  Haswell
   Copyright (c) 2011-2014, The OpenBLAS Project


NOTE: MaxCore=3000 MB was set to SCF,MP2,MDCI,CIPSI,MRCI and CIS
      => If you want to overwrite this, your respective input block should be placed after the MaxCore statement
Your calculation utilizes the atom-pairwise dispersion correction
with the Becke-Johnson damping scheme (D3BJ)


Your calculation utilizes the SMD solvation module
Please cite in your paper:
A.V. Marenich, C.J. Cramer, D.G. Truhlar J. Phys. Chem. B, 113, (2009), 6378 

Warning: RI is on but no J-basis has been assigned. Assigning Def2/J (nothing to worry about!)
================================================================================

----- Orbital basis set information -----
Your calculation utilizes the basis: aug-cc-pVTZ 
    H, B-Ne : Obtained from the ccRepo (grant-hill.group.shef.ac.uk/ccrepo) Feb. 2017
              R. A. Kendall, T. H. Dunning, Jr., R. J. Harrison, J. Chem. Phys. 96, 6796 (1992)
         He : Obtained from the ccRepo (grant-hill.group.shef.ac.uk/ccrepo) Feb. 2017
              D. E. Woon, T. H. Dunning, Jr., J. Chem. Phys. 100, 2975 (1994)
  Li-Be, Na : Obtained from the ccRepo (grant-hill.group.shef.ac.uk/ccrepo) Feb. 2017
              B. P. Prascher, D. E. Woon, K. A. Peterson, T. H. Dunning, Jr., A. K. Wilson, Theor. Chem. Acc. 128, 69 (2011)
         Mg : Obtained from the Peterson Research Group Website (tyr0.chem.wsu.edu/~kipeters) Feb. 2017
              B. P. Prascher, D. E. Woon, K. A. Peterson, T. H. Dunning, Jr., A. K. Wilson, Theor. Chem. Acc. 128, 69 (2011)
      Al-Ar : Obtained from the ccRepo (grant-hill.group.shef.ac.uk/ccrepo) Feb. 2017
              D. E. Woon, T. H. Dunning, Jr., J. Chem. Phys. 98, 1358 (1993)
      Sc-Zn : Obtained from the ccRepo (grant-hill.group.shef.ac.uk/ccrepo) Feb. 2017
              N. B. Balabanov, K. A. Peterson, J. Chem. Phys. 123, 064107 (2005)
              N. B. Balabanov, K. A. Peterson, J. Chem. Phys. 125, 074110 (2006)
      Ga-Kr : Obtained from the ccRepo (grant-hill.group.shef.ac.uk/ccrepo) Feb. 2017
              A. K. Wilson, D. E. Woon, K. A. Peterson, T. H. Dunning, Jr., J. Chem. Phys. 110, 7667 (1999)
     Ag, Au : Obtained from the Peterson Research Group Website (tyr0.chem.wsu.edu/~kipeters) Feb. 2017
              K. A. Peterson, C. Puzzarini, Theor. Chem. Acc. 114, 283 (2005)

----- AuxJ basis set information -----
Your calculation utilizes the auxiliary basis: def2/J
   F. Weigend, Phys. Chem. Chem. Phys. 8, 1057 (2006).

================================================================================
                                        WARNINGS
                       Please study these warnings very carefully!
================================================================================


WARNING: your system is open-shell and RHF/RKS was chosen
  ===> : WILL SWITCH to UHF/UKS


================================================================================
                                       INPUT FILE
================================================================================
NAME = cs_rporg_066_ox_solv_01.inp
|  1> !TPSSh aug-cc-pVTZ d3 TightSCF SlowConv RIJCOSX defgrid2
|  2>  
|  3> %pal
|  4> nprocs 4
|  5> end
|  6>  
|  7> %scf
|  8> MaxIter 1500
|  9> end
| 10>  
| 11> %maxcore 3000
| 12>  
| 13> !CPCM
| 14> %cpcm smd true
| 15> SMDsolvent "MeCN"
| 16> surfacetype gepol_ses
| 17> rsolv 2.19
| 18> end 
| 19>  
| 20> * xyz 1 2
| 21>   C          -0.51166320460813      1.22812669775511      0.04221064338961
| 22>   C          -1.88952625296000      1.21539539176763      0.05617367919047
| 23>   C          -2.59180844712688      0.00013116204188     -0.01880666295911
| 24>   C          -1.89049624956733     -1.21520671526456     -0.10134329816321
| 25>   C          -0.51256019966680     -1.22809524037907     -0.10227638476799
| 26>   C           0.21731408963535     -0.00001586789402     -0.03400404554273
| 27>   N           1.56995492990017     -0.00005133599829     -0.04140778831312
| 28>   C           2.34433477639579      1.21948603186316     -0.20492690765417
| 29>   H           3.31457999055289      0.96026373998418     -0.65302403936483
| 30>   H           1.83135324244622      1.92816869292227     -0.86818407839005
| 31>   H           2.52747752953805      1.69293789980228      0.77768636738438
| 32>   C           2.34605804905977     -1.21960114143284      0.11365277395931
| 33>   H           3.32105951761834     -0.96038019427341      0.55132163130194
| 34>   H           1.84024142677529     -1.92835608634421      0.78230594720200
| 35>   H           2.51862728476156     -1.69296466175821     -0.87090867989595
| 36>   H           0.01065172080766     -2.18040178328804     -0.19486548078037
| 37>   H          -2.43851884091908     -2.15821605280130     -0.17289394083341
| 38>   H          -3.68523926435270      0.00018625586019     -0.01289591193808
| 39>   H          -2.43664007610670      2.15846249523866      0.13367176321164
| 40>   H           0.01262657781651      2.18036711219859      0.12915381296366
| 41> *
| 42> 
| 43>                          ****END OF INPUT****
================================================================================

                       ****************************
                       * Single Point Calculation *
                       ****************************

---------------------------------
CARTESIAN COORDINATES (ANGSTROEM)
---------------------------------
  C     -0.511663    1.228127    0.042211
  C     -1.889526    1.215395    0.056174
  C     -2.591808    0.000131   -0.018807
  C     -1.890496   -1.215207   -0.101343
  C     -0.512560   -1.228095   -0.102276
  C      0.217314   -0.000016   -0.034004
  N      1.569955   -0.000051   -0.041408
  C      2.344335    1.219486   -0.204927
  H      3.314580    0.960264   -0.653024
  H      1.831353    1.928169   -0.868184
  H      2.527478    1.692938    0.777686
  C      2.346058   -1.219601    0.113653
  H      3.321060   -0.960380    0.551322
  H      1.840241   -1.928356    0.782306
  H      2.518627   -1.692965   -0.870909
  H      0.010652   -2.180402   -0.194865
  H     -2.438519   -2.158216   -0.172894
  H     -3.685239    0.000186   -0.012896
  H     -2.436640    2.158462    0.133672
  H      0.012627    2.180367    0.129154

----------------------------
CARTESIAN COORDINATES (A.U.)
----------------------------
  NO LB      ZA    FRAG     MASS         X           Y           Z
   0 C     6.0000    0    12.011   -0.966903    2.320823    0.079767
   1 C     6.0000    0    12.011   -3.570687    2.296764    0.106153
   2 C     6.0000    0    12.011   -4.897808    0.000248   -0.035539
   3 C     6.0000    0    12.011   -3.572520   -2.296408   -0.191511
   4 C     6.0000    0    12.011   -0.968598   -2.320764   -0.193274
   5 C     6.0000    0    12.011    0.410664   -0.000030   -0.064258
   6 N     7.0000    0    14.007    2.966785   -0.000097   -0.078249
   7 C     6.0000    0    12.011    4.430151    2.304495   -0.387256
   8 H     1.0000    0     1.008    6.263648    1.814635   -1.234037
   9 H     1.0000    0     1.008    3.460756    3.643711   -1.640630
  10 H     1.0000    0     1.008    4.776240    3.199189    1.469614
  11 C     6.0000    0    12.011    4.433407   -2.304712    0.214773
  12 H     1.0000    0     1.008    6.275893   -1.814856    1.041847
  13 H     1.0000    0     1.008    3.477552   -3.644065    1.478344
  14 H     1.0000    0     1.008    4.759516   -3.199240   -1.645779
  15 H     1.0000    0     1.008    0.020129   -4.120362   -0.368242
  16 H     1.0000    0     1.008   -4.608133   -4.078437   -0.326722
  17 H     1.0000    0     1.008   -6.964093    0.000352   -0.024370
  18 H     1.0000    0     1.008   -4.604582    4.078903    0.252603
  19 H     1.0000    0     1.008    0.023861    4.120297    0.244065

--------------------------------
INTERNAL COORDINATES (ANGSTROEM)
--------------------------------
 C      0   0   0     0.000000000000     0.00000000     0.00000000
 C      1   0   0     1.377992609753     0.00000000     0.00000000
 C      2   1   0     1.405592216827   120.46652427     0.00000000
 C      3   2   1     1.405594981000   120.09312080     0.35502336
 C      4   3   2     1.377996640905   120.46741141     0.35216722
 C      1   2   3     1.430227511933   120.14908304   359.30473234
 N      6   1   2     1.352661102944   120.66381599   180.34426341
 C      7   6   1     1.453848011540   122.22376328   349.19352897
 H      8   7   6     1.099710421724   108.54418459   206.95572967
 H      8   7   6     1.097857569447   111.13387307   326.26627438
 H      8   7   6     1.105995835239   110.32595555    88.22964045
 C      7   6   1     1.453850596683   122.22572402   169.19206145
 H     12   7   6     1.099716959870   108.54231584   206.96934559
 H     12   7   6     1.097852947076   111.13393386   326.28035620
 H     12   7   6     1.105990244036   110.32667163    88.24276540
 H      5   4   3     1.090509608437   119.20860569   181.67680089
 H      4   3   2     1.093030130317   119.97703979   180.80828366
 H      3   2   1     1.093446794349   119.95337889   180.35355199
 H      2   1   3     1.093030214658   119.55426810   179.54553591
 H      1   2   3     1.090504790265   119.20866637   181.67638795

---------------------------
INTERNAL COORDINATES (A.U.)
---------------------------
 C      0   0   0     0.000000000000     0.00000000     0.00000000
 C      1   0   0     2.604028647001     0.00000000     0.00000000
 C      2   1   0     2.656184345774   120.46652427     0.00000000
 C      3   2   1     2.656189569304   120.09312080     0.35502336
 C      4   3   2     2.604036264774   120.46741141     0.35216722
 C      1   2   3     2.702738306753   120.14908304   359.30473234
 N      6   1   2     2.556159036572   120.66381599   180.34426341
 C      7   6   1     2.747374582157   122.22376328   349.19352897
 H      8   7   6     2.078151523678   108.54418459   206.95572967
 H      8   7   6     2.074650140307   111.13387307   326.26627438
 H      8   7   6     2.090029233859   110.32595555    88.22964045
 C      7   6   1     2.747379467370   122.22572402   169.19206145
 H     12   7   6     2.078163878982   108.54231584   206.96934559
 H     12   7   6     2.074641405292   111.13393386   326.28035620
 H     12   7   6     2.090018668017   110.32667163    88.24276540
 H      5   4   3     2.060764506356   119.20860569   181.67680089
 H      4   3   2     2.065527602423   119.97703979   180.80828366
 H      3   2   1     2.066314983334   119.95337889   180.35355199
 H      2   1   3     2.065527761804   119.55426810   179.54553591
 H      1   2   3     2.060755401329   119.20866637   181.67638795

---------------------
BASIS SET INFORMATION
---------------------
There are 3 groups of distinct atoms

 Group   1 Type C   : 19s6p3d2f contracted to 5s4p3d2f pattern {88111/3111/111/11}
 Group   2 Type N   : 19s6p3d2f contracted to 5s4p3d2f pattern {88111/3111/111/11}
 Group   3 Type H   : 6s3p2d contracted to 4s3p2d pattern {3111/111/11}

Atom   0C    basis set group =>   1
Atom   1C    basis set group =>   1
Atom   2C    basis set group =>   1
Atom   3C    basis set group =>   1
Atom   4C    basis set group =>   1
Atom   5C    basis set group =>   1
Atom   6N    basis set group =>   2
Atom   7C    basis set group =>   1
Atom   8H    basis set group =>   3
Atom   9H    basis set group =>   3
Atom  10H    basis set group =>   3
Atom  11C    basis set group =>   1
Atom  12H    basis set group =>   3
Atom  13H    basis set group =>   3
Atom  14H    basis set group =>   3
Atom  15H    basis set group =>   3
Atom  16H    basis set group =>   3
Atom  17H    basis set group =>   3
Atom  18H    basis set group =>   3
Atom  19H    basis set group =>   3
---------------------------------
AUXILIARY/J BASIS SET INFORMATION
---------------------------------
There are 3 groups of distinct atoms

 Group   1 Type C   : 12s5p4d2f1g contracted to 6s4p3d1f1g pattern {711111/2111/211/2/1}
 Group   2 Type N   : 12s5p4d2f1g contracted to 6s4p3d1f1g pattern {711111/2111/211/2/1}
 Group   3 Type H   : 5s2p1d contracted to 3s1p1d pattern {311/2/1}

Atom   0C    basis set group =>   1
Atom   1C    basis set group =>   1
Atom   2C    basis set group =>   1
Atom   3C    basis set group =>   1
Atom   4C    basis set group =>   1
Atom   5C    basis set group =>   1
Atom   6N    basis set group =>   2
Atom   7C    basis set group =>   1
Atom   8H    basis set group =>   3
Atom   9H    basis set group =>   3
Atom  10H    basis set group =>   3
Atom  11C    basis set group =>   1
Atom  12H    basis set group =>   3
Atom  13H    basis set group =>   3
Atom  14H    basis set group =>   3
Atom  15H    basis set group =>   3
Atom  16H    basis set group =>   3
Atom  17H    basis set group =>   3
Atom  18H    basis set group =>   3
Atom  19H    basis set group =>   3


           ************************************************************
           *        Program running with 4 parallel MPI-processes     *
           *              working on a common directory               *
           ************************************************************
------------------------------------------------------------------------------
                             ORCA STARTUP CALCULATIONS
                           -- RI-GTO INTEGRALS CHOSEN --
------------------------------------------------------------------------------
------------------------------------------------------------------------------
                   ___                                                        
                  /   \      - P O W E R E D   B Y -                         
                 /     \                                                     
                 |  |  |   _    _      __       _____    __    __             
                 |  |  |  | |  | |    /  \     |  _  \  |  |  /  |          
                  \  \/   | |  | |   /    \    | | | |  |  | /  /          
                 / \  \   | |__| |  /  /\  \   | |_| |  |  |/  /          
                |  |  |   |  __  | /  /__\  \  |    /   |      \           
                |  |  |   | |  | | |   __   |  |    \   |  |\   \          
                \     /   | |  | | |  |  |  |  | |\  \  |  | \   \       
                 \___/    |_|  |_| |__|  |__|  |_| \__\ |__|  \__/        
                                                                              
                      - O R C A' S   B I G   F R I E N D -                    
                                      &                                       
                       - I N T E G R A L  F E E D E R -                       
                                                                              
 v1 FN, 2020, v2 2021, v3 2022-2024                                           
------------------------------------------------------------------------------


----------------------
SHARK INTEGRAL PACKAGE
----------------------

Number of atoms                             ...     20
Number of basis functions                   ...    721
Number of shells                            ...    279
Maximum angular momentum                    ...      3
Integral batch strategy                     ... SHARK/LIBINT Hybrid
RI-J (if used) integral strategy            ... SPLIT-RIJ (Revised 2003 algorithm where possible)
Printlevel                                  ...      1
Contraction scheme used                     ... PARTIAL GENERAL contraction
Prescreening option                         ... SCHWARTZ
   Thresh                                   ... 2.500e-11
   Tcut                                     ... 2.500e-12
   Tpresel                                  ... 2.500e-12 
Coulomb Range Separation                    ... NOT USED
Exchange Range Separation                   ... NOT USED
Multipole approximations                    ... NOT USED
Finite Nucleus Model                        ... NOT USED
CABS basis                                  ... NOT available
Auxiliary Coulomb fitting basis             ... AVAILABLE
   # of basis functions in Aux-J            ...    562
   # of shells in Aux-J                     ...    190
   Maximum angular momentum in Aux-J        ...      4
Auxiliary J/K fitting basis                 ... NOT available
Auxiliary Correlation fitting basis         ... NOT available
Auxiliary 'external' fitting basis          ... NOT available

Checking pre-screening integrals            ... done (  0.1 sec) Dimension = 279
Save PGC pre-screening integrals            ... done (  0.1 sec) Dimension = 279
Calculate PGC overlap integrals             ... done (  0.2 sec) Dimension = 225
Calculating pre-screening integrals (ORCA)  ... done (  0.4 sec) Dimension = 225
Check shell pair data                       ... done (  0.0 sec)
Shell pair information
Shell pair cut-off parameter TPreSel        ...   2.5e-12
Total number of shell pairs                 ...     39060
Shell pairs after pre-screening             ...     33467
Total number of primitive shell pairs       ...     51100
Primitive shell pairs kept                  ...     40543
          la=0 lb=0:   7580 shell pairs
          la=1 lb=0:   8602 shell pairs
          la=1 lb=1:   2268 shell pairs
          la=2 lb=0:   6089 shell pairs
          la=2 lb=1:   3162 shell pairs
          la=2 lb=2:   1153 shell pairs
          la=3 lb=0:   2389 shell pairs
          la=3 lb=1:   1202 shell pairs
          la=3 lb=2:    851 shell pairs
          la=3 lb=3:    171 shell pairs

Calculating one electron integrals          ... done (  0.1 sec)
Calculating RI/J V-Matrix + Cholesky decomp.... done (  0.2 sec)
Calculating Nuclear repulsion               ... done (  0.0 sec) ENN=    428.727566415923 Eh

Diagonalization of the overlap matrix:
Smallest eigenvalue                        ... 4.712e-07
Time for diagonalization                   ...    0.122 sec
Threshold for overlap eigenvalues          ... 1.000e-07
Number of eigenvalues below threshold      ... 0

IMPORTANT:
Smallest eigenvalue of S below the DiffSThresh (1.000e-06) while
Thresh>1e-12 and/or TCut>1e-13! In order to avoid SCF convergence issues,
Thresh will be set to at least 1e-12 and TCut to at least 1e-13.
This can be turned off by adding %SCF DiffSThresh -1 END to the input.

Time for construction of square roots      ...    0.068 sec
Total time needed                          ...    0.220 sec

-------------------
DFT GRID GENERATION
-------------------

General Integration Accuracy     IntAcc      ... 4.388
Radial Grid Type                 RadialGrid  ... OptM3 with GC (2021)
Angular Grid (max. ang.)         AngularGrid ... 4 (Lebedev-302)
Angular grid pruning method      GridPruning ... 4 (adaptive)
Weight generation scheme         WeightScheme... mBecke (2022)
Basis function cutoff            BFCut       ... 1.0000e-11
Integration weight cutoff        WCut        ... 1.0000e-14
Partially contracted basis set               ... off
Rotationally invariant grid construction     ... off
Angular grids for H and He will be reduced by one unit
Diffuse basis detected: some atoms will have their outermost
                        angular grid increased by 1.

Total number of grid points                  ...    93557
Total number of batches                      ...     1473
Average number of points per batch           ...       63
Average number of grid points per atom       ...     4678

---------------------
SHARK GRID GENERATION
---------------------

General Integration Accuracy     IntAcc      ... 4.388
Radial Grid Type                 RadialGrid  ... OptM3 with GC (2021)
Angular Grid (max. ang.)         AngularGrid ... 4 (Lebedev-302)
Angular grid pruning method      GridPruning ... 4 (adaptive)
Weight generation scheme         WeightScheme... mBecke (2022)
Basis function cutoff            BFCut       ... 1.0000e-11
Integration weight cutoff        WCut        ... 1.0000e-14
Partially contracted basis set               ... off
Rotationally invariant grid construction     ... off
Angular grids for H and He will be reduced by one unit
Diffuse basis detected: some atoms will have their outermost
                        angular grid increased by 1.
Steep s-basis detected: some atoms will have their radial
                        grid points doubled.

Total number of grid points                  ...   150061
Total number of batches                      ...     2356
Average number of points per batch           ...       63
Average number of grid points per atom       ...     7503

--------------------
COSX GRID GENERATION
--------------------

GRIDX 1
-------
General Integration Accuracy     IntAcc      ... 3.816
Radial Grid Type                 RadialGrid  ... OptM3 with GC (2021)
Angular Grid (max. ang.)         AngularGrid ... 1 (Lebedev-50)
Angular grid pruning method      GridPruning ... 4 (adaptive)
Weight generation scheme         WeightScheme... mBecke (2022)
Basis function cutoff            BFCut       ... 1.0000e-11
Integration weight cutoff        WCut        ... 1.0000e-14
Partially contracted basis set               ... on
Rotationally invariant grid construction     ... off
Angular grids for H and He will be reduced by one unit
Diffuse basis detected: some atoms will have their outermost
                        angular grid increased by 1.

Total number of grid points                  ...    11730
Total number of batches                      ...      101
Average number of points per batch           ...      116
Average number of grid points per atom       ...      586
UseSFitting                                  ... on

GRIDX 2
-------
General Integration Accuracy     IntAcc      ... 4.020
Radial Grid Type                 RadialGrid  ... OptM3 with GC (2021)
Angular Grid (max. ang.)         AngularGrid ... 2 (Lebedev-110)
Angular grid pruning method      GridPruning ... 4 (adaptive)
Weight generation scheme         WeightScheme... mBecke (2022)
Basis function cutoff            BFCut       ... 1.0000e-11
Integration weight cutoff        WCut        ... 1.0000e-14
Partially contracted basis set               ... on
Rotationally invariant grid construction     ... off
Angular grids for H and He will be reduced by one unit
Diffuse basis detected: some atoms will have their outermost
                        angular grid increased by 1.

Total number of grid points                  ...    27763
Total number of batches                      ...      230
Average number of points per batch           ...      120
Average number of grid points per atom       ...     1388
UseSFitting                                  ... on

GRIDX 3
-------
General Integration Accuracy     IntAcc      ... 4.338
Radial Grid Type                 RadialGrid  ... OptM3 with GC (2021)
Angular Grid (max. ang.)         AngularGrid ... 3 (Lebedev-194)
Angular grid pruning method      GridPruning ... 4 (adaptive)
Weight generation scheme         WeightScheme... mBecke (2022)
Basis function cutoff            BFCut       ... 1.0000e-11
Integration weight cutoff        WCut        ... 1.0000e-14
Partially contracted basis set               ... on
Rotationally invariant grid construction     ... off
Angular grids for H and He will be reduced by one unit
Diffuse basis detected: some atoms will have their outermost
                        angular grid increased by 1.

Total number of grid points                  ...    62033
Total number of batches                      ...      496
Average number of points per batch           ...      125
Average number of grid points per atom       ...     3102
UseSFitting                                  ... on
Initializing property integral containers    ... done (  0.0 sec)

SHARK setup successfully completed in   9.5 seconds

Maximum memory used throughout the entire STARTUP-calculation: 80.7 MB


           ************************************************************
           *        Program running with 4 parallel MPI-processes     *
           *              working on a common directory               *
           ************************************************************
-------------------------------------------------------------------------------
                                 ORCA GUESS
                   Start orbitals & Density for SCF / CASSCF
-------------------------------------------------------------------------------

------------
SCF SETTINGS
------------
Hamiltonian:
 Density Functional     Method          .... DFT(GTOs)
 Exchange Functional    Exchange        .... TPSS
 Correlation Functional Correlation     .... TPSS
 LDA part of GGA corr.  LDAOpt          .... PW91-LDA
 Gradients option       PostSCFGGA      .... off
 Hybrid DFT is turned on
   Fraction HF Exchange ScalHFX         ....  0.100000
   Scaling of DF-GGA-X  ScalDFX         ....  0.900000
   Scaling of DF-GGA-C  ScalDFC         ....  1.000000
   Scaling of DF-LDA-C  ScalLDAC        ....  1.000000
   Perturbative correction              ....  0.000000
   NL short-range parameter             ....  5.200000
 RI-approximation to the Coulomb term is turned on
   Number of AuxJ basis functions       .... 562
   RIJ-COSX (HFX calculated with COS-X)).... on


General Settings:
 Integral files         IntName         .... cs_rporg_066_ox_solv_01
 Hartree-Fock type      HFTyp           .... UHF
 Total Charge           Charge          ....    1
 Multiplicity           Mult            ....    2
 Number of Electrons    NEL             ....   65
 Basis Dimension        Dim             ....  667
 Nuclear Repulsion      ENuc            ....    428.7275664159 Eh

Convergence Acceleration:
 AO-DIIS                CNVDIIS         .... on
   Start iteration      DIISMaxIt       ....     0
   Startup error        DIISStart       ....  0.200000
   # of expansion vecs  DIISMaxEq       ....     5
   Bias factor          DIISBfac        ....   1.050
   Max. coefficient     DIISMaxC        ....  10.000
 MO-DIIS                CNVKDIIS        .... off
 Trust-Rad. Augm. Hess. CNVTRAH         .... auto
   Auto Start mean grad. ratio tolernc. ....  1.125000
   Auto Start start iteration           ....    50
   Auto Start num. interpolation iter.  ....    10
   Max. Number of Micro iterations      ....    24
   Max. Number of Macro iterations      .... Maxiter - #DIIS iter
   Number of Davidson start vectors     ....     2
   Converg. threshold    (grad. norm)   ....   1.000e-05
   Grad. Scal. Fac. for Micro threshold ....   0.100
   Minimum threshold for Micro iter.    ....   1.000e-02
   NR start threshold (gradient norm)   ....   1.000e-04
   Initial trust radius                 ....   0.400
   Minimum AH scaling param. (alpha)    ....   1.000
   Maximum AH scaling param. (alpha)    .... 1000.000
   Quad. conv. algorithm                .... NR
   White noise on init. David. guess    .... on
   Maximum white noise                  ....   0.010
   Pseudo random numbers                .... off
   Inactive MOs                         .... canonical
   Orbital update algorithm             .... Taylor
   Preconditioner                       .... Diag
   Full preconditioner red. dimension   ....   250
 SOSCF                  CNVSOSCF        .... on
   Start iteration      SOSCFMaxIt      ....   150
   Startup grad/error   SOSCFStart      ....  0.001000
   Hessian update       SOSCFHessUp     .... L-BFGS
 Level Shifting         CNVShift        .... on
   Level shift para.    LevelShift      ....    0.2500
   Turn off err/grad.   ShiftErr        ....    0.0000
 Zerner damping         CNVZerner       .... off
 Static damping         CNVDamp         .... on
   Fraction old density DampFac         ....    0.8500
   Max. Damping (<1)    DampMax         ....    0.9800
   Min. Damping (>=0)   DampMin         ....    0.0000
   Turn off err/grad.   DampErr         ....    0.0300

SCF Procedure:
 Maximum # iterations   MaxIter         ....  1500
 SCF integral mode      SCFMode         .... Direct
   Integral package                     .... SHARK and LIBINT hybrid scheme
 Reset frequency        DirectResetFreq ....    20
 Integral Threshold     Thresh          ....  1.000e-12 Eh
 Primitive CutOff       TCut            ....  1.000e-13 Eh

Convergence Tolerance:
 Convergence Check Mode ConvCheckMode   .... Total+1el-Energy
 Convergence forced     ConvForced      .... 0
 Energy Change          TolE            ....  1.000e-08 Eh
 1-El. energy change                    ....  1.000e-05 Eh
 Orbital Gradient       TolG            ....  1.000e-05
 Orbital Rotation angle TolX            ....  1.000e-05
 DIIS Error             TolErr          ....  5.000e-07

------------------------------
INITIAL GUESS: MODEL POTENTIAL
------------------------------
Loading Hartree-Fock densities                     ... done
Calculating cut-offs                               ... done
Initializing the effective Hamiltonian             ... done
Setting up the integral package (SHARK)            ... done
Starting the Coulomb interaction                   ... done (   0.7 sec)
Making the grid                                    ... done (   0.4 sec)
Mapping shells                                     ... done
Starting the XC term evaluation                    ... done (   0.9 sec)
  promolecular density results
     # of electrons  =     65.998766027
     EX              =    -50.697466652
     EC              =     -2.174932968
     EX+EC           =    -52.872399619
Transforming the Hamiltonian                       ... done (   0.1 sec)
Diagonalizing the Hamiltonian                      ... done (   0.1 sec)
Back transforming the eigenvectors                 ... done (   0.1 sec)
Now organizing SCF variables                       ... done
                      ------------------
                      INITIAL GUESS DONE (   2.6 sec)
                      ------------------
             **** ENERGY FILE WAS UPDATED (cs_rporg_066_ox_solv_01.en.tmp) ****
Finished Guess after   3.5 sec
Maximum memory used throughout the entire GUESS-calculation: 59.6 MB


           ************************************************************
           *        Program running with 4 parallel MPI-processes     *
           *              working on a common directory               *
           ************************************************************

-------------------------------------------------------------------------------------------
                                      ORCA LEAN-SCF
                              memory conserving SCF solver
-------------------------------------------------------------------------------------------

--------------------
CPCM SOLVATION MODEL
--------------------
CPCM parameters:
  Epsilon                                         ...      35.6880
  Refrac                                          ...       1.3442
  Rsolv                                           ...       2.1900
  Surface type                                    ...    GEPOL SES
  Discretization scheme                           ... Constant num. charges
  Epsilon function type                           ...         CPCM
Solvent:                                          ... ACETONITRILE
SMD-CDS solvent descriptors:
  Soln                                            ...       1.3442
  Soln25                                          ...       1.3416
  Sola                                            ...       0.0700
  Solb                                            ...       0.3200
  Solg                                            ...      41.2500
  Solc                                            ...       0.0000
  Solh                                            ...       0.0000
Radii:
  Scheme                                          ... Element-dependent radii
  Radius for C  used is    3.4960 Bohr (=   1.8500 Ang.)
  Radius for N  used is    3.5716 Bohr (=   1.8900 Ang.)
  Radius for H  used is    2.2677 Bohr (=   1.2000 Ang.)
Calculating surface                               ...        done! (  0.0s)
Cavity surface points                             ...          640
Cavity Volume                                     ...     981.4713
Cavity Surface-area                               ...     574.8780
Calculating surface distance matrix               ...        done! (  0.0s)
Performing Cholesky decomposition & store         ...        done! (  0.0s)
Overall time for CPCM initialization              ...                 0.1s

----------------------------------------D-I-I-S--------------------------------------------
Iteration    Energy (Eh)           Delta-E    RMSDP     MaxDP     DIISErr   Damp  Time(sec)
-------------------------------------------------------------------------------------------
               ***  Starting incremental Fock matrix formation  ***
    1    -366.0677029272991376     0.00e+00  4.10e-04  3.50e-02  6.04e-02  0.850  38.7
Warning: op=1 Small HOMO/LUMO gap (   0.063) - skipping pre-diagonalization
         Will do a full diagonalization
    2    -366.0999402843315238    -3.22e-02  3.74e-04  2.97e-02  4.67e-02  0.850  25.6
                               ***Turning on AO-DIIS***
    3    -366.1221880743851216    -2.22e-02  2.82e-04  2.04e-02  3.34e-02  0.850  24.7
    4    -366.1369948450241054    -1.48e-02  2.31e-04  1.69e-02  2.65e-02  0.850  24.6
    5    -366.1478446853039941    -1.08e-02  1.30e-03  9.63e-02  2.19e-02  0.000  24.1
    6    -366.1994666212527818    -5.16e-02  1.01e-04  7.60e-03  5.11e-03  0.000  25.6
    7    -366.1997075521047691    -2.41e-04  3.44e-05  2.74e-03  3.52e-03  0.000  23.3
    8    -366.1998705025305298    -1.63e-04  2.79e-05  2.40e-03  1.12e-03  0.000  22.4
    9    -366.1999294097329312    -5.89e-05  1.67e-05  1.16e-03  1.42e-03  0.000  22.2
                              *** Initializing SOSCF ***
---------------------------------------S-O-S-C-F--------------------------------------
Iteration    Energy (Eh)           Delta-E    RMSDP     MaxDP     MaxGrad    Time(sec)
--------------------------------------------------------------------------------------
   10    -366.1999674269050047    -3.80e-05  1.35e-05  9.29e-04  6.18e-04    22.7
               *** Restarting incremental Fock matrix formation ***
   11    -366.1999849268069056    -1.75e-05  3.70e-05  1.91e-03  6.57e-04    38.6
   12    -366.1999927344065782    -7.81e-06  3.47e-05  1.73e-03  3.25e-04    31.0
   13    -366.1999968353820805    -4.10e-06  2.83e-05  1.45e-03  2.82e-04    31.1
   14    -366.1999988378645412    -2.00e-06  1.03e-05  5.15e-04  5.79e-05    30.1
   15    -366.1999990017019400    -1.64e-07  4.93e-06  2.51e-04  1.06e-04    29.3
   16    -366.1999991400468843    -1.38e-07  2.57e-06  1.51e-04  4.10e-05    28.2
   17    -366.1999991391597860     8.87e-10  1.62e-06  8.03e-05  3.15e-05    27.3
                 **** Energy Check signals convergence ****

               *****************************************************
               *                     SUCCESS                       *
               *           SCF CONVERGED AFTER  17 CYCLES          *
               *****************************************************

Recomputing exchange energy using gridx3       ... done (   43.576 sec)
Old exchange energy                            :     -5.174145740 Eh
New exchange energy                            :     -5.174155882 Eh
Exchange energy change after final integration :     -0.000010142 Eh
Total energy after final integration           :   -366.200009281 Eh

SMD CDS free energy correction energy :                -1.98731     Kcal/mol
Total Energy after SMD CDS correction =              -366.203176263 Eh
             **** ENERGY FILE WAS UPDATED (cs_rporg_066_ox_solv_01.en.tmp) ****

----------------
TOTAL SCF ENERGY
----------------

Total Energy       :       -366.20317626339778 Eh           -9964.89503 eV

Components:
Nuclear Repulsion  :        428.72756641592287 Eh           11666.27018 eV
Electronic Energy  :       -794.84143679270721 Eh          -21628.73508 eV
One Electron Energy:      -1330.11540617442029 Eh          -36194.28028 eV
Two Electron Energy:        535.27396938171307 Eh           14565.54520 eV
CPCM Dielectric    :         -0.08612876237542 Eh              -2.34368 eV
SMD CDS (Gcds)     :         -0.00316698259620 Eh              -0.08618 eV

Virial components:
Potential Energy   :       -730.10845541984850 Eh          -19867.26110 eV
Kinetic Energy     :        363.90527915645077 Eh            9902.36607 eV
Virial Ratio       :          2.00631454732471

DFT components:
N(Alpha)           :       33.000003685517 electrons
N(Beta)            :       32.000004049140 electrons
N(Total)           :       65.000007734658 electrons
E(X)               :      -46.913527904408 Eh       
E(C)               :       -2.138413673643 Eh       
E(XC)              :      -49.051941578051 Eh       

CPCM Solvation Model Properties:
Surface-charge          :         -1.03921706672644
Corrected charge        :         -1.00000000000000
Outlying charge corr.   :          0.00011327673784 Eh               0.00308 eV
Free-energy (cav+disp)  :         -0.00316698259620 Eh              -0.08618 eV

---------------
SCF CONVERGENCE
---------------

  Last Energy change         ...   -8.8710e-10  Tolerance :   1.0000e-08
  Last MAX-Density change    ...    8.0276e-05  Tolerance :   1.0000e-07
  Last RMS-Density change    ...    1.6199e-06  Tolerance :   5.0000e-09
  Last DIIS Error            ...    6.1787e-04  Tolerance :   5.0000e-07
  Last Orbital Gradient      ...    3.1460e-05  Tolerance :   1.0000e-05
  Last Orbital Rotation      ...    8.9015e-05  Tolerance :   1.0000e-05


----------------------
UHF SPIN CONTAMINATION
----------------------

Warning: in a DFT calculation there is little theoretical justification to 
         calculate <S**2> as in Hartree-Fock theory. We will do it anyways
         but you should keep in mind that the values have only limited relevance

Expectation value of <S**2>     :     0.775755
Ideal value S*(S+1) for S=0.5   :     0.750000
Deviation                       :     0.025755

----------------
ORBITAL ENERGIES
----------------
                 SPIN UP ORBITALS
  NO   OCC          E(Eh)            E(eV) 
   0   1.0000     -14.368576      -390.9888 
   1   1.0000     -10.203273      -277.6452 
   2   1.0000     -10.165976      -276.6303 
   3   1.0000     -10.165936      -276.6292 
   4   1.0000     -10.155023      -276.3322 
   5   1.0000     -10.155006      -276.3318 
   6   1.0000     -10.154853      -276.3276 
   7   1.0000     -10.143059      -276.0067 
   8   1.0000     -10.143054      -276.0065 
   9   1.0000      -1.000178       -27.2162 
  10   1.0000      -0.861141       -23.4328 
  11   1.0000      -0.765944       -20.8424 
  12   1.0000      -0.765829       -20.8393 
  13   1.0000      -0.729610       -19.8537 
  14   1.0000      -0.681496       -18.5444 
  15   1.0000      -0.612468       -16.6661 
  16   1.0000      -0.587984       -15.9999 
  17   1.0000      -0.544373       -14.8131 
  18   1.0000      -0.498729       -13.5711 
  19   1.0000      -0.497918       -13.5490 
  20   1.0000      -0.491009       -13.3610 
  21   1.0000      -0.451479       -12.2854 
  22   1.0000      -0.435812       -11.8590 
  23   1.0000      -0.432806       -11.7773 
  24   1.0000      -0.410344       -11.1660 
  25   1.0000      -0.404568       -11.0089 
  26   1.0000      -0.393341       -10.7034 
  27   1.0000      -0.382035       -10.3957 
  28   1.0000      -0.369409       -10.0521 
  29   1.0000      -0.346717        -9.4346 
  30   1.0000      -0.326397        -8.8817 
  31   1.0000      -0.280578        -7.6349 
  32   1.0000      -0.241961        -6.5841 
  33   0.0000      -0.050740        -1.3807 
  34   0.0000      -0.047093        -1.2815 
  35   0.0000      -0.009457        -0.2573 
  36   0.0000       0.005335         0.1452 
  37   0.0000       0.009091         0.2474 
  38   0.0000       0.018220         0.4958 
  39   0.0000       0.024131         0.6566 
  40   0.0000       0.025437         0.6922 
  41   0.0000       0.028260         0.7690 
  42   0.0000       0.038653         1.0518 
  43   0.0000       0.042526         1.1572 

                 SPIN DOWN ORBITALS
  NO   OCC          E(Eh)            E(eV) 
   0   1.0000     -14.356810      -390.6687 
   1   1.0000     -10.204288      -277.6728 
   2   1.0000     -10.166424      -276.6425 
   3   1.0000     -10.166384      -276.6414 
   4   1.0000     -10.151772      -276.2438 
   5   1.0000     -10.151755      -276.2433 
   6   1.0000     -10.150078      -276.1977 
   7   1.0000     -10.144666      -276.0504 
   8   1.0000     -10.144653      -276.0500 
   9   1.0000      -0.983128       -26.7523 
  10   1.0000      -0.855533       -23.2802 
  11   1.0000      -0.762665       -20.7532 
  12   1.0000      -0.761292       -20.7158 
  13   1.0000      -0.728374       -19.8201 
  14   1.0000      -0.673843       -18.3362 
  15   1.0000      -0.609654       -16.5895 
  16   1.0000      -0.583280       -15.8719 
  17   1.0000      -0.541009       -14.7216 
  18   1.0000      -0.494565       -13.4578 
  19   1.0000      -0.487349       -13.2614 
  20   1.0000      -0.473168       -12.8756 
  21   1.0000      -0.450405       -12.2561 
  22   1.0000      -0.433200       -11.7880 
  23   1.0000      -0.431643       -11.7456 
  24   1.0000      -0.405149       -11.0247 
  25   1.0000      -0.402862       -10.9624 
  26   1.0000      -0.384038       -10.4502 
  27   1.0000      -0.377963       -10.2849 
  28   1.0000      -0.367735       -10.0066 
  29   1.0000      -0.345242        -9.3945 
  30   1.0000      -0.301322        -8.1994 
  31   1.0000      -0.272149        -7.4056 
  32   0.0000      -0.175644        -4.7795 
  33   0.0000      -0.041127        -1.1191 
  34   0.0000      -0.027699        -0.7537 
  35   0.0000      -0.008228        -0.2239 
  36   0.0000       0.006146         0.1673 
  37   0.0000       0.009672         0.2632 
  38   0.0000       0.019533         0.5315 
  39   0.0000       0.024881         0.6770 
  40   0.0000       0.025960         0.7064 
  41   0.0000       0.029993         0.8161 
  42   0.0000       0.039907         1.0859 
*Only the first 10 virtual orbitals were printed.

                    ********************************
                    * MULLIKEN POPULATION ANALYSIS *
                    ********************************

--------------------------------------------
MULLIKEN ATOMIC CHARGES AND SPIN POPULATIONS
--------------------------------------------
   0 C :   -0.381311    0.193705
   1 C :   -0.501134   -0.104788
   2 C :   -0.357687    0.302733
   3 C :   -0.500517   -0.104801
   4 C :   -0.381710    0.193741
   5 C :    1.084658    0.038313
   6 N :   -0.132533    0.441466
   7 C :   -0.314757   -0.045046
   8 H :    0.091623    0.014367
   9 H :    0.166493    0.006569
  10 H :    0.163214    0.041999
  11 C :   -0.315097   -0.045074
  12 H :    0.091579    0.014387
  13 H :    0.166318    0.006552
  14 H :    0.163118    0.042014
  15 H :    0.374452    0.001749
  16 H :    0.388152   -0.004688
  17 H :    0.431185    0.009748
  18 H :    0.388990   -0.004690
  19 H :    0.374962    0.001745
Sum of atomic charges         :    1.0000000
Sum of atomic spin populations:    1.0000000

-----------------------------------------------------
MULLIKEN REDUCED ORBITAL CHARGES AND SPIN POPULATIONS
-----------------------------------------------------
CHARGE
  0 C s       :     3.795771  s :     3.795771
      pz      :     0.915757  p :     2.456067
      px      :     0.658266
      py      :     0.882044
      dz2     :     0.000808  d :     0.142513
      dxz     :    -0.005258
      dyz     :    -0.005723
      dx2y2   :     0.035781
      dxy     :     0.116904
      f0      :     0.000914  f :    -0.013039
      f+1     :     0.000001
      f-1     :    -0.000247
      f+2     :     0.002191
      f-2     :    -0.000771
      f+3     :     0.005475
      f-3     :    -0.020602

  1 C s       :     3.593542  s :     3.593542
      pz      :     0.940718  p :     2.802345
      px      :     1.082351
      py      :     0.779276
      dz2     :    -0.012644  d :     0.117086
      dxz     :     0.020855
      dyz     :     0.015510
      dx2y2   :     0.043235
      dxy     :     0.050129
      f0      :     0.000885  f :    -0.011839
      f+1     :     0.000762
      f-1     :     0.000253
      f+2     :     0.000517
      f-2     :     0.000161
      f+3     :    -0.000567
      f-3     :    -0.013849

  2 C s       :     3.517255  s :     3.517255
      pz      :     0.848688  p :     2.606844
      px      :     0.882054
      py      :     0.876102
      dz2     :    -0.010972  d :     0.244437
      dxz     :     0.001838
      dyz     :     0.034792
      dx2y2   :     0.205756
      dxy     :     0.013024
      f0      :     0.000961  f :    -0.010850
      f+1     :     0.000789
      f-1     :     0.000856
      f+2     :    -0.000019
      f-2     :     0.000757
      f+3     :    -0.000597
      f-3     :    -0.013597

  3 C s       :     3.593456  s :     3.593456
      pz      :     0.941706  p :     2.802527
      px      :     1.081825
      py      :     0.778997
      dz2     :    -0.012777  d :     0.116333
      dxz     :     0.021094
      dyz     :     0.015242
      dx2y2   :     0.042883
      dxy     :     0.049891
      f0      :     0.000878  f :    -0.011800
      f+1     :     0.000758
      f-1     :     0.000266
      f+2     :     0.000510
      f-2     :     0.000154
      f+3     :    -0.000533
      f-3     :    -0.013833

  4 C s       :     3.796144  s :     3.796144
      pz      :     0.917751  p :     2.455051
      px      :     0.654911
      py      :     0.882389
      dz2     :     0.000665  d :     0.143549
      dxz     :    -0.004926
      dyz     :    -0.005871
      dx2y2   :     0.036687
      dxy     :     0.116993
      f0      :     0.000935  f :    -0.013033
      f+1     :    -0.000034
      f-1     :    -0.000248
      f+2     :     0.002197
      f-2     :    -0.000767
      f+3     :     0.005477
      f-3     :    -0.020593

  5 C s       :     3.331199  s :     3.331199
      pz      :     0.928028  p :     1.783213
      px      :     0.315816
      py      :     0.539369
      dz2     :    -0.022498  d :    -0.198986
      dxz     :     0.038826
      dyz     :    -0.036785
      dx2y2   :    -0.159750
      dxy     :    -0.018780
      f0      :     0.003520  f :    -0.000085
      f+1     :     0.000399
      f-1     :     0.000018
      f+2     :     0.004718
      f-2     :     0.002942
      f+3     :    -0.005738
      f-3     :    -0.005945

  6 N s       :     3.922613  s :     3.922613
      pz      :     1.224761  p :     3.070514
      px      :     0.862089
      py      :     0.983664
      dz2     :    -0.006071  d :     0.120087
      dxz     :     0.050434
      dyz     :     0.036235
      dx2y2   :     0.018426
      dxy     :     0.021063
      f0      :     0.000032  f :     0.019320
      f+1     :    -0.000198
      f-1     :    -0.000776
      f+2     :     0.003896
      f-2     :     0.001991
      f+3     :    -0.003098
      f-3     :     0.017471

  7 C s       :     3.288064  s :     3.288064
      pz      :     0.990971  p :     2.886809
      px      :     0.966951
      py      :     0.928887
      dz2     :     0.007781  d :     0.109026
      dxz     :     0.011918
      dyz     :     0.048601
      dx2y2   :     0.024730
      dxy     :     0.015996
      f0      :     0.004088  f :     0.030857
      f+1     :     0.002642
      f-1     :     0.004268
      f+2     :     0.000072
      f-2     :     0.004146
      f+3     :     0.001252
      f-3     :     0.014389

  8 H s       :     0.865470  s :     0.865470
      pz      :     0.003748  p :     0.036760
      px      :     0.021925
      py      :     0.011087
      dz2     :     0.000875  d :     0.006147
      dxz     :     0.000990
      dyz     :     0.001745
      dx2y2   :     0.001177
      dxy     :     0.001360

  9 H s       :     0.790044  s :     0.790044
      pz      :     0.008117  p :     0.037184
      px      :     0.009809
      py      :     0.019258
      dz2     :     0.003333  d :     0.006279
      dxz     :     0.001055
      dyz     :    -0.000066
      dx2y2   :     0.000664
      dxy     :     0.001293

 10 H s       :     0.805566  s :     0.805566
      pz      :     0.005000  p :     0.024410
      px      :     0.011075
      py      :     0.008335
      dz2     :    -0.000326  d :     0.006809
      dxz     :     0.004320
      dyz     :     0.002066
      dx2y2   :     0.000074
      dxy     :     0.000675

 11 C s       :     3.288100  s :     3.288100
      pz      :     0.992102  p :     2.887104
      px      :     0.966366
      py      :     0.928636
      dz2     :     0.008081  d :     0.109044
      dxz     :     0.011166
      dyz     :     0.048972
      dx2y2   :     0.025203
      dxy     :     0.015623
      f0      :     0.004151  f :     0.030849
      f+1     :     0.002557
      f-1     :     0.004167
      f+2     :     0.000090
      f-2     :     0.004292
      f+3     :     0.001245
      f-3     :     0.014348

 12 H s       :     0.865606  s :     0.865606
      pz      :     0.003713  p :     0.036680
      px      :     0.021957
      py      :     0.011011
      dz2     :     0.000814  d :     0.006135
      dxz     :     0.001049
      dyz     :     0.001744
      dx2y2   :     0.001180
      dxy     :     0.001347

 13 H s       :     0.790231  s :     0.790231
      pz      :     0.008264  p :     0.037169
      px      :     0.009618
      py      :     0.019286
      dz2     :     0.003419  d :     0.006282
      dxz     :     0.000980
      dyz     :    -0.000066
      dx2y2   :     0.000647
      dxy     :     0.001303

 14 H s       :     0.805570  s :     0.805570
      pz      :     0.005157  p :     0.024513
      px      :     0.011012
      py      :     0.008344
      dz2     :    -0.000333  d :     0.006798
      dxz     :     0.004307
      dyz     :     0.002063
      dx2y2   :     0.000077
      dxy     :     0.000683

 15 H s       :     0.654429  s :     0.654429
      pz      :     0.014423  p :    -0.038090
      px      :    -0.005277
      py      :    -0.047235
      dz2     :     0.000549  d :     0.009208
      dxz     :     0.002423
      dyz     :     0.002955
      dx2y2   :     0.002847
      dxy     :     0.000434

 16 H s       :     0.575769  s :     0.575769
      pz      :     0.018466  p :     0.028659
      px      :     0.003139
      py      :     0.007054
      dz2     :    -0.000301  d :     0.007420
      dxz     :     0.001096
      dyz     :     0.003863
      dx2y2   :     0.001394
      dxy     :     0.001368

 17 H s       :     0.585191  s :     0.585191
      pz      :     0.013881  p :    -0.022869
      px      :    -0.028167
      py      :    -0.008583
      dz2     :    -0.000395  d :     0.006494
      dxz     :     0.004495
      dyz     :    -0.000155
      dx2y2   :     0.000942
      dxy     :     0.001606

 18 H s       :     0.575004  s :     0.575004
      pz      :     0.018461  p :     0.028586
      px      :     0.003136
      py      :     0.006989
      dz2     :    -0.000287  d :     0.007420
      dxz     :     0.001086
      dyz     :     0.003857
      dx2y2   :     0.001390
      dxy     :     0.001374

 19 H s       :     0.653561  s :     0.653561
      pz      :     0.014443  p :    -0.037723
      px      :    -0.004934
      py      :    -0.047232
      dz2     :     0.000514  d :     0.009200
      dxz     :     0.002435
      dyz     :     0.002965
      dx2y2   :     0.002854
      dxy     :     0.000432


SPIN
  0 C s       :    -0.007541  s :    -0.007541
      pz      :     0.179413  p :     0.195618
      px      :     0.008113
      py      :     0.008093
      dz2     :    -0.001301  d :     0.006938
      dxz     :    -0.001455
      dyz     :     0.001010
      dx2y2   :     0.004852
      dxy     :     0.003832
      f0      :    -0.000394  f :    -0.001310
      f+1     :    -0.000195
      f-1     :    -0.000175
      f+2     :    -0.000380
      f-2     :    -0.000211
      f+3     :    -0.000418
      f-3     :     0.000461

  1 C s       :    -0.005529  s :    -0.005529
      pz      :    -0.083485  p :    -0.101840
      px      :    -0.012890
      py      :    -0.005465
      dz2     :     0.000582  d :     0.003165
      dxz     :     0.007017
      dyz     :     0.000193
      dx2y2   :    -0.000867
      dxy     :    -0.003760
      f0      :     0.000137  f :    -0.000584
      f+1     :     0.000018
      f-1     :     0.000111
      f+2     :    -0.000125
      f-2     :     0.000100
      f+3     :    -0.000299
      f-3     :    -0.000526

  2 C s       :     0.006069  s :     0.006069
      pz      :     0.265421  p :     0.298372
      px      :     0.013245
      py      :     0.019707
      dz2     :    -0.001649  d :    -0.000302
      dxz     :     0.002658
      dyz     :    -0.000756
      dx2y2   :     0.000251
      dxy     :    -0.000807
      f0      :    -0.000563  f :    -0.001406
      f+1     :    -0.000432
      f-1     :    -0.000237
      f+2     :     0.000164
      f-2     :     0.000087
      f+3     :    -0.000310
      f-3     :    -0.000115

  3 C s       :    -0.005544  s :    -0.005544
      pz      :    -0.083472  p :    -0.101845
      px      :    -0.012901
      py      :    -0.005472
      dz2     :     0.000575  d :     0.003176
      dxz     :     0.007094
      dyz     :     0.000205
      dx2y2   :    -0.000932
      dxy     :    -0.003766
      f0      :     0.000137  f :    -0.000587
      f+1     :     0.000018
      f-1     :     0.000113
      f+2     :    -0.000127
      f-2     :     0.000093
      f+3     :    -0.000297
      f-3     :    -0.000523

  4 C s       :    -0.007530  s :    -0.007530
      pz      :     0.179663  p :     0.195628
      px      :     0.007867
      py      :     0.008098
      dz2     :    -0.001271  d :     0.006958
      dxz     :    -0.001462
      dyz     :     0.000978
      dx2y2   :     0.004855
      dxy     :     0.003858
      f0      :    -0.000395  f :    -0.001315
      f+1     :    -0.000192
      f-1     :    -0.000173
      f+2     :    -0.000378
      f-2     :    -0.000213
      f+3     :    -0.000420
      f-3     :     0.000457

  5 C s       :     0.035295  s :     0.035295
      pz      :    -0.024644  p :    -0.036356
      px      :    -0.008141
      py      :    -0.003571
      dz2     :     0.001157  d :     0.038749
      dxz     :     0.021453
      dyz     :    -0.003089
      dx2y2   :     0.008965
      dxy     :     0.010263
      f0      :     0.000059  f :     0.000625
      f+1     :     0.000118
      f-1     :     0.000086
      f+2     :     0.002711
      f-2     :    -0.000403
      f+3     :     0.000482
      f-3     :    -0.002428

  6 N s       :    -0.009586  s :    -0.009586
      pz      :     0.395497  p :     0.440713
      px      :     0.013616
      py      :     0.031600
      dz2     :    -0.001209  d :     0.007513
      dxz     :     0.001970
      dyz     :     0.003096
      dx2y2   :     0.000347
      dxy     :     0.003309
      f0      :     0.001032  f :     0.002827
      f+1     :    -0.000351
      f-1     :    -0.000211
      f+2     :     0.000296
      f-2     :     0.000453
      f+3     :     0.000024
      f-3     :     0.001583

  7 C s       :    -0.032965  s :    -0.032965
      pz      :    -0.007787  p :    -0.033950
      px      :    -0.010012
      py      :    -0.016150
      dz2     :     0.000140  d :     0.018632
      dxz     :     0.003729
      dyz     :     0.012956
      dx2y2   :     0.000977
      dxy     :     0.000830
      f0      :     0.000338  f :     0.003237
      f+1     :     0.000197
      f-1     :     0.000803
      f+2     :     0.000438
      f-2     :     0.001358
      f+3     :    -0.000000
      f-3     :     0.000103

  8 H s       :     0.013477  s :     0.013477
      pz      :    -0.000116  p :     0.001050
      px      :     0.000950
      py      :     0.000216
      dz2     :     0.000009  d :    -0.000160
      dxz     :    -0.000138
      dyz     :     0.000060
      dx2y2   :    -0.000034
      dxy     :    -0.000057

  9 H s       :     0.006759  s :     0.006759
      pz      :    -0.000624  p :    -0.000657
      px      :     0.000156
      py      :    -0.000189
      dz2     :     0.000144  d :     0.000467
      dxz     :     0.000147
      dyz     :    -0.000041
      dx2y2   :     0.000183
      dxy     :     0.000033

 10 H s       :     0.038555  s :     0.038555
      pz      :     0.001546  p :     0.003247
      px      :     0.000503
      py      :     0.001198
      dz2     :     0.000129  d :     0.000198
      dxz     :     0.000142
      dyz     :     0.000006
      dx2y2   :    -0.000076
      dxy     :    -0.000004

 11 C s       :    -0.032972  s :    -0.032972
      pz      :    -0.007797  p :    -0.033952
      px      :    -0.010007
      py      :    -0.016148
      dz2     :     0.000163  d :     0.018613
      dxz     :     0.003664
      dyz     :     0.013017
      dx2y2   :     0.001015
      dxy     :     0.000754
      f0      :     0.000347  f :     0.003237
      f+1     :     0.000198
      f-1     :     0.000765
      f+2     :     0.000425
      f-2     :     0.001383
      f+3     :     0.000005
      f-3     :     0.000114

 12 H s       :     0.013498  s :     0.013498
      pz      :    -0.000129  p :     0.001050
      px      :     0.000963
      py      :     0.000217
      dz2     :     0.000010  d :    -0.000161
      dxz     :    -0.000139
      dyz     :     0.000058
      dx2y2   :    -0.000034
      dxy     :    -0.000056

 13 H s       :     0.006752  s :     0.006752
      pz      :    -0.000603  p :    -0.000663
      px      :     0.000128
      py      :    -0.000188
      dz2     :     0.000151  d :     0.000463
      dxz     :     0.000135
      dyz     :    -0.000041
      dx2y2   :     0.000185
      dxy     :     0.000033

 14 H s       :     0.038579  s :     0.038579
      pz      :     0.001538  p :     0.003237
      px      :     0.000506
      py      :     0.001193
      dz2     :     0.000128  d :     0.000198
      dxz     :     0.000144
      dyz     :     0.000006
      dx2y2   :    -0.000075
      dxy     :    -0.000004

 15 H s       :    -0.003517  s :    -0.003517
      pz      :     0.003238  p :     0.004493
      px      :    -0.000180
      py      :     0.001435
      dz2     :     0.000135  d :     0.000773
      dxz     :     0.000144
      dyz     :     0.000435
      dx2y2   :    -0.000018
      dxy     :     0.000077

 16 H s       :    -0.001770  s :    -0.001770
      pz      :    -0.002780  p :    -0.002502
      px      :    -0.000004
      py      :     0.000282
      dz2     :     0.000013  d :    -0.000416
      dxz     :    -0.000189
      dyz     :    -0.000232
      dx2y2   :     0.000006
      dxy     :    -0.000013

 17 H s       :     0.000540  s :     0.000540
      pz      :     0.006900  p :     0.007794
      px      :     0.000159
      py      :     0.000735
      dz2     :     0.000145  d :     0.001414
      dxz     :     0.001131
      dyz     :    -0.000007
      dx2y2   :    -0.000028
      dxy     :     0.000172

 18 H s       :    -0.001773  s :    -0.001773
      pz      :    -0.002781  p :    -0.002501
      px      :    -0.000002
      py      :     0.000282
      dz2     :     0.000012  d :    -0.000416
      dxz     :    -0.000189
      dyz     :    -0.000232
      dx2y2   :     0.000006
      dxy     :    -0.000014

 19 H s       :    -0.003525  s :    -0.003525
      pz      :     0.003234  p :     0.004495
      px      :    -0.000176
      py      :     0.001437
      dz2     :     0.000131  d :     0.000774
      dxz     :     0.000147
      dyz     :     0.000435
      dx2y2   :    -0.000017
      dxy     :     0.000078



                     *******************************
                     * LOEWDIN POPULATION ANALYSIS *
                     *******************************

-------------------------------------------
LOEWDIN ATOMIC CHARGES AND SPIN POPULATIONS
-------------------------------------------
   0 C :    0.268445    0.094328
   1 C :    0.240540    0.026622
   2 C :    0.248109    0.139553
   3 C :    0.240535    0.026629
   4 C :    0.268422    0.094334
   5 C :   -0.153110    0.086095
   6 N :    0.307273    0.308315
   7 C :    0.566544    0.053212
   8 H :   -0.131860    0.005636
   9 H :   -0.146897    0.006648
  10 H :   -0.104364    0.017847
  11 C :    0.566532    0.053214
  12 H :   -0.131837    0.005639
  13 H :   -0.146937    0.006644
  14 H :   -0.104378    0.017845
  15 H :   -0.165991    0.019589
  16 H :   -0.152639   -0.007555
  17 H :   -0.149800    0.033375
  18 H :   -0.152640   -0.007557
  19 H :   -0.165947    0.019587

----------------------------------------------------
LOEWDIN REDUCED ORBITAL CHARGES AND SPIN POPULATIONS
----------------------------------------------------
CHARGE
  0 C s       :     2.476917  s :     2.476917
      pz      :     0.583218  p :     2.245195
      px      :     0.848255
      py      :     0.813722
      dz2     :     0.069275  d :     0.674056
      dxz     :     0.103510
      dyz     :     0.055230
      dx2y2   :     0.202185
      dxy     :     0.243856
      f0      :     0.022133  f :     0.335387
      f+1     :     0.029509
      f-1     :     0.022498
      f+2     :     0.041701
      f-2     :     0.029192
      f+3     :     0.060562
      f-3     :     0.129792

  1 C s       :     2.490805  s :     2.490805
      pz      :     0.590229  p :     2.273111
      px      :     0.847906
      py      :     0.834977
      dz2     :     0.067369  d :     0.667572
      dxz     :     0.085046
      dyz     :     0.056455
      dx2y2   :     0.197995
      dxy     :     0.260707
      f0      :     0.020469  f :     0.327971
      f+1     :     0.028522
      f-1     :     0.022704
      f+2     :     0.042869
      f-2     :     0.019775
      f+3     :     0.056589
      f-3     :     0.137041

  2 C s       :     2.497669  s :     2.497669
      pz      :     0.552807  p :     2.245756
      px      :     0.839603
      py      :     0.853346
      dz2     :     0.067859  d :     0.679946
      dxz     :     0.039601
      dyz     :     0.114746
      dx2y2   :     0.286107
      dxy     :     0.171632
      f0      :     0.020367  f :     0.328519
      f+1     :     0.020241
      f-1     :     0.030164
      f+2     :     0.010174
      f-2     :     0.058079
      f+3     :     0.054782
      f-3     :     0.134713

  3 C s       :     2.490805  s :     2.490805
      pz      :     0.590182  p :     2.273113
      px      :     0.847947
      py      :     0.834984
      dz2     :     0.067400  d :     0.667575
      dxz     :     0.085124
      dyz     :     0.056407
      dx2y2   :     0.197863
      dxy     :     0.260779
      f0      :     0.020464  f :     0.327972
      f+1     :     0.028438
      f-1     :     0.022771
      f+2     :     0.042951
      f-2     :     0.019771
      f+3     :     0.056607
      f-3     :     0.136970

  4 C s       :     2.476919  s :     2.476919
      pz      :     0.583274  p :     2.245218
      px      :     0.848231
      py      :     0.813713
      dz2     :     0.069256  d :     0.674057
      dxz     :     0.103345
      dyz     :     0.055276
      dx2y2   :     0.202381
      dxy     :     0.243799
      f0      :     0.022158  f :     0.335383
      f+1     :     0.029567
      f-1     :     0.022407
      f+2     :     0.041599
      f-2     :     0.029202
      f+3     :     0.060576
      f-3     :     0.129875

  5 C s       :     2.446284  s :     2.446284
      pz      :     0.594428  p :     2.201423
      px      :     0.767452
      py      :     0.839543
      dz2     :     0.093437  d :     0.962095
      dxz     :     0.149531
      dyz     :     0.123786
      dx2y2   :     0.309305
      dxy     :     0.286036
      f0      :     0.034783  f :     0.543308
      f+1     :     0.041889
      f-1     :     0.033400
      f+2     :     0.055722
      f-2     :     0.068110
      f+3     :     0.089599
      f-3     :     0.219805

  6 N s       :     2.628695  s :     2.628695
      pz      :     0.908749  p :     2.876123
      px      :     1.004313
      py      :     0.963061
      dz2     :     0.061128  d :     0.847620
      dxz     :     0.141794
      dyz     :     0.136056
      dx2y2   :     0.246783
      dxy     :     0.261859
      f0      :     0.031499  f :     0.340289
      f+1     :     0.019802
      f-1     :     0.014328
      f+2     :     0.047142
      f-2     :     0.043381
      f+3     :     0.050910
      f-3     :     0.133228

  7 C s       :     2.433429  s :     2.433429
      pz      :     0.783536  p :     2.202690
      px      :     0.738008
      py      :     0.681146
      dz2     :     0.077684  d :     0.559158
      dxz     :     0.078033
      dyz     :     0.131559
      dx2y2   :     0.136452
      dxy     :     0.135430
      f0      :     0.027958  f :     0.238180
      f+1     :     0.016696
      f-1     :     0.030516
      f+2     :     0.015670
      f-2     :     0.041277
      f+3     :     0.039941
      f-3     :     0.066121

  8 H s       :     0.608406  s :     0.608406
      pz      :     0.095734  p :     0.298594
      px      :     0.121047
      py      :     0.081812
      dz2     :     0.041004  d :     0.224860
      dxz     :     0.051936
      dyz     :     0.026479
      dx2y2   :     0.039290
      dxy     :     0.066152

  9 H s       :     0.605447  s :     0.605447
      pz      :     0.108367  p :     0.308511
      px      :     0.111193
      py      :     0.088951
      dz2     :     0.064407  d :     0.232939
      dxz     :     0.039076
      dyz     :     0.035129
      dx2y2   :     0.047946
      dxy     :     0.046381

 10 H s       :     0.612789  s :     0.612789
      pz      :     0.134361  p :     0.281530
      px      :     0.074443
      py      :     0.072726
      dz2     :     0.062655  d :     0.210046
      dxz     :     0.061784
      dyz     :     0.050725
      dx2y2   :     0.011900
      dxy     :     0.022981

 11 C s       :     2.433434  s :     2.433434
      pz      :     0.783804  p :     2.202696
      px      :     0.737744
      py      :     0.681148
      dz2     :     0.078623  d :     0.559158
      dxz     :     0.076049
      dyz     :     0.132100
      dx2y2   :     0.137500
      dxy     :     0.134885
      f0      :     0.028095  f :     0.238180
      f+1     :     0.016599
      f-1     :     0.030332
      f+2     :     0.015563
      f-2     :     0.041378
      f+3     :     0.040005
      f-3     :     0.066208

 12 H s       :     0.608396  s :     0.608396
      pz      :     0.095291  p :     0.298585
      px      :     0.121491
      py      :     0.081803
      dz2     :     0.040166  d :     0.224856
      dxz     :     0.052562
      dyz     :     0.026085
      dx2y2   :     0.039504
      dxy     :     0.066539

 13 H s       :     0.605475  s :     0.605475
      pz      :     0.108712  p :     0.308517
      px      :     0.110844
      py      :     0.088961
      dz2     :     0.065306  d :     0.232945
      dxz     :     0.038383
      dyz     :     0.035219
      dx2y2   :     0.047741
      dxy     :     0.046295

 14 H s       :     0.612790  s :     0.612790
      pz      :     0.134534  p :     0.281537
      px      :     0.074276
      py      :     0.072727
      dz2     :     0.062866  d :     0.210051
      dxz     :     0.061685
      dyz     :     0.050904
      dx2y2   :     0.011788
      dxy     :     0.022808

 15 H s       :     0.627456  s :     0.627456
      pz      :     0.075390  p :     0.310458
      px      :     0.112816
      py      :     0.122252
      dz2     :     0.024771  d :     0.228077
      dxz     :     0.023807
      dyz     :     0.043061
      dx2y2   :     0.079002
      dxy     :     0.057435

 16 H s       :     0.655842  s :     0.655842
      pz      :     0.074172  p :     0.288405
      px      :     0.089846
      py      :     0.124387
      dz2     :     0.022738  d :     0.208392
      dxz     :     0.018257
      dyz     :     0.042468
      dx2y2   :     0.071555
      dxy     :     0.053373

 17 H s       :     0.659827  s :     0.659827
      pz      :     0.068688  p :     0.286107
      px      :     0.143090
      py      :     0.074329
      dz2     :     0.022369  d :     0.203865
      dxz     :     0.052898
      dyz     :     0.003028
      dx2y2   :     0.044892
      dxy     :     0.080680

 18 H s       :     0.655849  s :     0.655849
      pz      :     0.074229  p :     0.288402
      px      :     0.089783
      py      :     0.124391
      dz2     :     0.022794  d :     0.208389
      dxz     :     0.018266
      dyz     :     0.042474
      dx2y2   :     0.071479
      dxy     :     0.053376

 19 H s       :     0.627424  s :     0.627424
      pz      :     0.075432  p :     0.310449
      px      :     0.112770
      py      :     0.122247
      dz2     :     0.024640  d :     0.228074
      dxz     :     0.023990
      dyz     :     0.043060
      dx2y2   :     0.078959
      dxy     :     0.057425


SPIN
  0 C s       :     0.003465  s :     0.003465
      pz      :     0.095908  p :     0.102994
      px      :     0.003287
      py      :     0.003799
      dz2     :    -0.000856  d :    -0.010464
      dxz     :    -0.006332
      dyz     :    -0.000890
      dx2y2   :    -0.001107
      dxy     :    -0.001279
      f0      :    -0.001858  f :    -0.001666
      f+1     :    -0.000198
      f-1     :    -0.000310
      f+2     :     0.003180
      f-2     :    -0.001266
      f+3     :    -0.000442
      f-3     :    -0.000772

  1 C s       :    -0.002165  s :    -0.002165
      pz      :    -0.038778  p :    -0.045781
      px      :    -0.003696
      py      :    -0.003306
      dz2     :     0.000344  d :     0.049892
      dxz     :     0.036382
      dyz     :     0.009996
      dx2y2   :     0.001336
      dxy     :     0.001834
[...]
      dyz     :     0.009157
      dx2y2   :     0.002031
      dxy     :     0.002469
      f0      :     0.003122  f :     0.047391
      f+1     :     0.000073
      f-1     :     0.000313
      f+2     :     0.036413
      f-2     :     0.004406
      f+3     :     0.001602
      f-3     :     0.001461

  6 N s       :     0.009833  s :     0.009833
      pz      :     0.283684  p :     0.304329
      px      :     0.007964
      py      :     0.012682
      dz2     :    -0.000894  d :    -0.007539
      dxz     :    -0.003806
      dyz     :    -0.000129
      dx2y2   :    -0.001317
      dxy     :    -0.001392
      f0      :     0.004674  f :     0.001691
      f+1     :    -0.000285
      f-1     :    -0.000261
      f+2     :    -0.001483
      f-2     :    -0.000005
      f+3     :    -0.000280
      f-3     :    -0.000669

  7 C s       :    -0.001328  s :    -0.001328
      pz      :     0.002989  p :    -0.005776
      px      :    -0.003226
      py      :    -0.005538
      dz2     :     0.000952  d :     0.036743
      dxz     :     0.006090
      dyz     :     0.025158
      dx2y2   :     0.002292
      dxy     :     0.002252
      f0      :     0.004878  f :     0.023573
      f+1     :     0.001023
      f-1     :     0.003327
      f+2     :     0.002340
      f-2     :     0.010575
      f+3     :     0.000898
      f-3     :     0.000531

  8 H s       :     0.005090  s :     0.005090
      pz      :     0.000536  p :     0.000046
      px      :    -0.000164
      py      :    -0.000326
      dz2     :    -0.000057  d :     0.000500
      dxz     :    -0.000312
      dyz     :     0.000862
      dx2y2   :    -0.000279
      dxy     :     0.000286

  9 H s       :     0.004347  s :     0.004347
      pz      :     0.000996  p :     0.000429
      px      :     0.000040
      py      :    -0.000607
      dz2     :     0.000658  d :     0.001872
      dxz     :     0.000249
      dyz     :    -0.000249
      dx2y2   :     0.001100
      dxy     :     0.000114

 10 H s       :     0.017512  s :     0.017512
      pz      :     0.000276  p :     0.000562
      px      :    -0.000261
      py      :     0.000547
      dz2     :    -0.000186  d :    -0.000227
      dxz     :    -0.000191
      dyz     :    -0.000312
      dx2y2   :     0.000168
      dxy     :     0.000295

 11 C s       :    -0.001328  s :    -0.001328
      pz      :     0.002968  p :    -0.005776
      px      :    -0.003207
      py      :    -0.005538
      dz2     :     0.001011  d :     0.036742
      dxz     :     0.005963
      dyz     :     0.025268
      dx2y2   :     0.002365
      dxy     :     0.002136
      f0      :     0.004993  f :     0.023576
      f+1     :     0.000960
      f-1     :     0.003140
      f+2     :     0.002290
      f-2     :     0.010728
      f+3     :     0.000899
      f-3     :     0.000566

 12 H s       :     0.005095  s :     0.005095
      pz      :     0.000526  p :     0.000045
      px      :    -0.000155
      py      :    -0.000326
      dz2     :    -0.000053  d :     0.000500
      dxz     :    -0.000315
      dyz     :     0.000880
      dx2y2   :    -0.000280
      dxy     :     0.000268

 13 H s       :     0.004344  s :     0.004344
      pz      :     0.000999  p :     0.000429
      px      :     0.000037
      py      :    -0.000607
      dz2     :     0.000678  d :     0.001871
      dxz     :     0.000209
      dyz     :    -0.000246
      dx2y2   :     0.001119
      dxy     :     0.000112

 14 H s       :     0.017510  s :     0.017510
      pz      :     0.000279  p :     0.000562
      px      :    -0.000264
      py      :     0.000547
      dz2     :    -0.000183  d :    -0.000226
      dxz     :    -0.000193
      dyz     :    -0.000312
      dx2y2   :     0.000167
      dxy     :     0.000295

 15 H s       :    -0.003099  s :    -0.003099
      pz      :     0.011860  p :     0.013261
      px      :     0.000325
      py      :     0.001077
      dz2     :     0.000162  d :     0.009427
      dxz     :     0.000771
      dyz     :     0.007668
      dx2y2   :     0.000447
      dxy     :     0.000379

 16 H s       :     0.001233  s :     0.001233
      pz      :    -0.005221  p :    -0.006123
      px      :    -0.000429
      py      :    -0.000473
      dz2     :    -0.000020  d :    -0.002665
      dxz     :    -0.000664
      dyz     :    -0.001358
      dx2y2   :    -0.000339
      dxy     :    -0.000284

 17 H s       :    -0.004588  s :    -0.004588
      pz      :     0.019978  p :     0.022121
      px      :     0.001740
      py      :     0.000404
      dz2     :    -0.000017  d :     0.015842
      dxz     :     0.015096
      dyz     :    -0.000360
      dx2y2   :     0.000651
      dxy     :     0.000473

 18 H s       :     0.001233  s :     0.001233
      pz      :    -0.005225  p :    -0.006124
      px      :    -0.000427
      py      :    -0.000473
      dz2     :    -0.000035  d :    -0.002666
      dxz     :    -0.000653
      dyz     :    -0.001356
      dx2y2   :    -0.000335
      dxy     :    -0.000287

 19 H s       :    -0.003099  s :    -0.003099
      pz      :     0.011852  p :     0.013259
      px      :     0.000331
      py      :     0.001076
      dz2     :     0.000143  d :     0.009427
      dxz     :     0.000783
      dyz     :     0.007678
      dx2y2   :     0.000455
      dxy     :     0.000368



                      *****************************
                      * MAYER POPULATION ANALYSIS *
                      *****************************

  NA   - Mulliken gross atomic population
  ZA   - Total nuclear charge
  QA   - Mulliken gross atomic charge
  VA   - Mayer's total valence
  BVA  - Mayer's bonded valence
  FA   - Mayer's free valence

  ATOM       NA         ZA         QA         VA         BVA        FA
  0 C      6.3813     6.0000    -0.3813     3.0965     3.0625     0.0340
  1 C      6.5011     6.0000    -0.5011     3.2145     3.2071     0.0074
  2 C      6.3577     6.0000    -0.3577     3.6259     3.5560     0.0699
  3 C      6.5005     6.0000    -0.5005     3.2143     3.2070     0.0074
  4 C      6.3817     6.0000    -0.3817     3.0927     3.0587     0.0340
  5 C      4.9153     6.0000     1.0847     1.2121     1.2021     0.0099
  6 N      7.1325     7.0000    -0.1325     3.2605     3.0905     0.1701
  7 C      6.3148     6.0000    -0.3148     3.9649     3.9612     0.0038
  8 H      0.9084     1.0000     0.0916     1.0251     1.0249     0.0001
  9 H      0.8335     1.0000     0.1665     1.0239     1.0238     0.0001
 10 H      0.8368     1.0000     0.1632     0.9521     0.9507     0.0014
 11 C      6.3151     6.0000    -0.3151     3.9649     3.9612     0.0038
 12 H      0.9084     1.0000     0.0916     1.0252     1.0250     0.0001
 13 H      0.8337     1.0000     0.1663     1.0241     1.0240     0.0001
 14 H      0.8369     1.0000     0.1631     0.9525     0.9512     0.0014
 15 H      0.6255     1.0000     0.3745     0.6337     0.6336     0.0001
 16 H      0.6118     1.0000     0.3882     0.8632     0.8631     0.0000
 17 H      0.5688     1.0000     0.4312     0.6450     0.6449     0.0001
 18 H      0.6110     1.0000     0.3890     0.8626     0.8625     0.0000
 19 H      0.6250     1.0000     0.3750     0.6336     0.6336     0.0001

  Mayer bond orders larger than 0.100000
B(  0-C ,  1-C ) :   1.5504 B(  0-C ,  2-C ) :   0.2891 B(  0-C ,  4-C ) :   0.2331 
B(  0-C ,  5-C ) :   0.6032 B(  0-C ,  6-N ) :  -0.1274 B(  0-C , 18-H ) :   0.1521 
B(  0-C , 19-H ) :   0.4074 B(  1-C ,  2-C ) :   1.2929 B(  1-C ,  5-C ) :  -0.3311 
B(  1-C , 18-H ) :   0.6368 B(  2-C ,  3-C ) :   1.2922 B(  2-C ,  4-C ) :   0.2883 
B(  2-C ,  5-C ) :  -0.1082 B(  2-C , 17-H ) :   0.4670 B(  3-C ,  4-C ) :   1.5505 
B(  3-C ,  5-C ) :  -0.3328 B(  3-C , 16-H ) :   0.6380 B(  4-C ,  5-C ) :   0.6007 
B(  4-C ,  6-N ) :  -0.1291 B(  4-C , 15-H ) :   0.4097 B(  4-C , 16-H ) :   0.1518 
B(  5-C ,  6-N ) :   0.7793 B(  6-N ,  7-C ) :   1.1700 B(  6-N , 11-C ) :   1.1705 
B(  7-C ,  8-H ) :   0.9871 B(  7-C ,  9-H ) :   0.9466 B(  7-C , 10-H ) :   0.9149 
B( 11-C , 12-H ) :   0.9869 B( 11-C , 13-H ) :   0.9468 B( 11-C , 14-H ) :   0.9153 


-------
TIMINGS
-------

Total SCF time: 0 days 0 hours 8 min 35 sec 

Total time                  ....     515.704 sec
Sum of individual times     ....     515.227 sec  ( 99.9%)

SCF preparation             ....       1.029 sec  (  0.2%)
Fock matrix formation       ....     495.555 sec  ( 96.1%)
  Startup                   ....       1.552 sec  (  0.3% of F)
  Split-RI-J                ....      17.888 sec  (  3.6% of F)
  Chain of spheres X        ....     259.601 sec  ( 52.4% of F)
  XC integration            ....     203.469 sec  ( 41.1% of F)
    Basis function eval.    ....       9.376 sec  (  4.6% of XC)
    Density eval.           ....      73.510 sec  ( 36.1% of XC)
    XC-Functional eval.     ....       1.279 sec  (  0.6% of XC)
    XC-Potential eval.      ....     115.677 sec  ( 56.9% of XC)
  CPCM terms                ....       8.840 sec  (  1.8% of F)
Diagonalization             ....       0.000 sec  (  0.0%)
Density matrix formation    ....       3.613 sec  (  0.7%)
Total Energy calculation    ....       1.483 sec  (  0.3%)
Population analysis         ....       0.532 sec  (  0.1%)
Orbital Transformation      ....       1.519 sec  (  0.3%)
Orbital Orthonormalization  ....       0.000 sec  (  0.0%)
DIIS solution               ....       8.086 sec  (  1.6%)
SOSCF solution              ....       3.410 sec  (  0.7%)
Finished LeanSCF after 516.0 sec

Maximum memory used throughout the entire LEANSCF-calculation: 113.1 MB


-------------------------------------------------------------------------------
                          DFT DISPERSION CORRECTION                            
                                                                               
                              DFTD3 V3.1  Rev 1                                
                          USING Becke-Johnson damping                          
-------------------------------------------------------------------------------
The TPSSH functional is recognized
Active option DFTDOPT                   ...         4   

molecular C6(AA) [au] = 3830.607243 


            DFT-D V3
 parameters
 s6 scaling factor         :     1.0000 
 a1 scaling factor         :     0.4529 
 s8 scaling factor         :     2.2382 
 a2 scaling factor         :     4.6550 
 ad hoc parameters k1-k3   :    16.0000     1.3333    -4.0000 

 Edisp/kcal,au: -14.714356026984  -0.023448816417 
 E6   /kcal   :  -7.130292086 
 E8   /kcal   :  -7.584063941 
 % E8         :  51.541935829 

-------------------------   ----------------
Dispersion correction           -0.023448816
-------------------------   ----------------


-------------------------   --------------------
FINAL SINGLE POINT ENERGY      -366.226625079815
-------------------------   --------------------



           ************************************************************
           *        Program running with 4 parallel MPI-processes     *
           *              working on a common directory               *
           ************************************************************

------------------------------------------------------------------------------
                              ORCA PROPERTY CALCULATIONS
------------------------------------------------------------------------------

GBWName                                 ... cs_rporg_066_ox_solv_01.gbw
Number of atoms                         ...     20
Number of basis functions               ...    721
Max core memory                         ...   3000 MB

Electric properties:
Dipole moment                           ... YES
Quadrupole moment                       ...  NO
Static polarizability (Dipole/Dipole)   ...  NO
Static polarizability (Dipole/Quad.)    ...  NO
Static polarizability (Quad./Quad.)     ...  NO
Static polarizability (Velocity)        ...  NO

Atomic electric properties:
Dipole moment                           ...  NO
Quadrupole moment                       ...  NO
Static polarizability                   ...  NO

Choice of electric origin               ... Center of mass
Position of electric origin             ...    -0.016006     0.000031    -0.062008

General magnetic properties:
Magnetizability                         ...  NO

EPR properties:
g-Tensor (aka g-matrix)                 ...  NO
Zero-Field splitting spin-orbit         ...  NO
Zero-field splitting spin-spin          ...  NO
Hyperfine couplings                     ...  NO (   0 nuclei)
Quadrupole couplings                    ...  NO (   0 nuclei)
Contact density                         ...  NO (   0 nuclei)

NMR properties:
Chemical shifts                         ...  NO (   0 nuclei)
Spin-rotation constants                 ...  NO (   0 nuclei)
Spin-spin couplings                     ...  NO (   0 nuclei,    0 pairs)

Choice of magnetic origin               ... GIAO
Position of magnetic origin             ...     0.000000     0.000000     0.000000

Properties with geometric perturbations:
SCF Hessian                             ...  NO
IR spectrum                             ...  NO
VCD spectrum                            ...  NO
X-ray spectroscopy properties:
SCF XES/XAS/RIXS spectra                ...  NO


-------------
DIPOLE MOMENT
-------------

Method             : SCF
Type of density    : Electron Density
Multiplicity       :   2
Irrep              :   0
Energy             :  -366.2031762633977792 Eh
Relativity type    : 
Basis              : AO
                                X                 Y                 Z
Electronic contribution:     -5.028288527       0.000492624       0.027578767
Nuclear contribution   :      6.490918904      -0.000107030      -0.035404468
                        -----------------------------------------
Total Dipole Moment    :      1.462630377       0.000385594      -0.007825701
                        -----------------------------------------
Magnitude (a.u.)       :      1.462651363
Magnitude (Debye)      :      3.717764308



--------------------
Rotational spectrum 
--------------------
 
Rotational constants in cm-1:             0.115459             0.040921             0.030704 
Rotational constants in MHz :          3461.380126          1226.789981           920.471270 

Dipole components along the rotational axes: 
x,y,z [a.u.] :     1.462651    -0.000444     0.000131 
x,y,z [Debye]:     3.717764    -0.001128     0.000333 

 

Dipole moment calculation done in   0.1 sec 

Maximum memory used throughout the entire PROP-calculation: 64.3 MB

--------------------------------
SUGGESTED CITATIONS FOR THIS RUN
--------------------------------

Below you find a list of papers that are relevant to this ORCA run
We neither can nor want to force you to cite these papers, but we appreciate if you do
You receive ORCA, which is the product of decades of hard work by many enthusiastic individuals, for free
The only thing we kindly ask in return is that you cite our papers,
We deeply appreciate it, if you show your appreciation for ORCA by not just citing the generic ORCA reference.

Please note that relegating all ORCA citations to the supporting information does *not* help us.
SI sections are not indexed - citations you put there will not count into any citation statistics
But we need these citations in order to attract the funding resources that allow us to do what we are doing

Therefore, if you are a happy ORCA user, please consider citing a few of the papers listed below in the main body of your paper

In addition to the list printed below, the program has created the file cs_rporg_066_ox_solv_01.bibtex that contains the list in bibtex format
You can import this file easily into all common literature databanks and citation aid programs


List of essential papers. We consider these as the minimum necessary citations

  1. Neese,F.
     Software update: the ORCA program system, version 5.0
     WIRES Comput. Molec. Sci., 2022 12(1)e1606
     doi.org/10.1002/wcms.1606

List of papers to cite with high priority. The work reported in these papers was absolutely
necessary for this run to complete.
Our perspective: the developers of density functionals and basis sets usually get cited in chemistry papers
Good! But without the algorithms to do something with them, the functionals or basis sets would not do anything.
Hence, in our opinion, the algorithm design and method developments papers are equally worthy of getting cited

  1. Neese,F.
     An improvement of the resolution of the identity approximation for the formation of the Coulomb matrix
     J. Comp. Chem., 2003 24(14)1740-1747
     doi.org/10.1002/jcc.10318
  2. Neese,F.; Wennmohs,F.; Hansen,A.; Becker,U.
     Efficient, approximate and parallel Hartree-Fock and hybrid DFT calculations. A 'chain-of-spheres' algorithm for the Hartree-Fock exchange
     Chem. Phys., 2009 356(1-3)98-109
     doi.org/10.1016/j.chemphys.2008.10.036
  3. Garcia-Rates,M.; Neese,F.
     Effect of the Solute Cavity on the Solvation Energy and its Derivatives within the Framework of the Gaussian Charge Scheme
     J. Comput. Chem., 2020 41 922-939
     doi.org/10.1002/jcc.26139
  4. Helmich-Paris,B.; de Souza,B.; Neese,F.; Izsák,R.
     An improved chain of spheres for exchange algorithm
     J. Chem. Phys., 2021 155 104109
     doi.org/doi: 10.1063/5.0058766.
  5. Neese,F.
     The SHARK Integral Generation and Digestion System
     J. Comp. Chem., 2022  1-16
     doi.org/10.1002/jcc.26942
  6. Grimme,S.; Antony,J.; Ehrlich,S.; Krieg,H.
     A consistent and accurate ab initio parametrization of density functional dispersion correction (DFT-D) for the 94 elements H-Pu
     J. Chem. Phys., 2010 132 154104-XXXX
     doi.org/10.1063/1.3382344
  7. Grimme,S.; Ehrlich,S.; Goerigk,L.
     Effect of the damping function in dispersion corrected density functional theory
     J. Comput. Chem., 2011 32(7)1456-1465
     doi.org/10.1002/jcc.21759

List of suggested additional citations. These are papers that are important in the 'surrounding' of 
of this run, or papers that preceded the highly important papers. If you like your results we are grateful for a citation.

  1. Izsak,R.; Neese,F.
     An overlap fitted chain of spheres exchange method
     J. Chem. Phys., 2011 135 144105
     doi.org/10.1063/1.3646921
  2. Izsak,R.; Hansen,A.; Neese,F.
     The resolution of identity and chain of spheres approximations for the LPNO-CCSD singles Fock term
     Molec. Phys., 2012 110 2413-2417
     doi.org/10.1080/00268976.2012.687466
  3. Neese,F.
     The ORCA program system
     WIRES Comput. Molec. Sci., 2012 2(1)73-78
     doi.org/10.1002/wcms.81
  4. Izsak,R.; Neese,F.; Klopper,W.
     Robust fitting techniques in the chain of spheres approximation to the Fock exchange: The role of the complementary space
     J. Chem. Phys., 2013 139 
     doi.org/10.1063/1.4819264
  5. Neese,F.
     Software update: the ORCA program system, version 4.0
     WIRES Comput. Molec. Sci., 2018 8(1)1-6
     doi.org/10.1002/wcms.1327
  6. Neese,F.; Wennmohs,F.; Becker,U.; Riplinger,C.
     The ORCA quantum chemistry program package
     J. Chem. Phys., 2020 152 Art. No. L224108
     doi.org/10.1063/5.0004608

List of optional additional citations

  1. Neese,F.
     Approximate second-order SCF convergence for spin unrestricted wavefunctions
     Chem. Phys. Lett., 2000 325(1-3)93-98
     doi.org/10.1016/s0009-2614(00)00662-x

Timings for individual modules:

Sum of individual times          ...      535.553 sec (=   8.926 min)
Startup calculation              ...       11.590 sec (=   0.193 min)   2.2 %
SCF iterations                   ...      522.076 sec (=   8.701 min)  97.5 %
Property calculations            ...        1.887 sec (=   0.031 min)   0.4 %
                             ****ORCA TERMINATED NORMALLY****
TOTAL RUN TIME: 0 days 0 hours 8 minutes 58 seconds 397 msec
