
                                 *****************
                                 * O   R   C   A *
                                 *****************

                                            #,                                       
                                            ###                                      
                                            ####                                     
                                            #####                                    
                                            ######                                   
                                           ########,                                 
                                     ,,################,,,,,                         
                               ,,#################################,,                 
                          ,,##########################################,,             
                       ,#########################################, ''#####,          
                    ,#############################################,,   '####,        
                  ,##################################################,,,,####,       
                ,###########''''           ''''###############################       
              ,#####''   ,,,,##########,,,,          '''####'''          '####       
            ,##' ,,,,###########################,,,                        '##       
           ' ,,###''''                  '''############,,,                           
         ,,##''                                '''############,,,,        ,,,,,,###''
      ,#''                                            '''#######################'''  
     '                                                          ''''####''''         
             ,#######,   #######,   ,#######,      ##                                
            ,#'     '#,  ##    ##  ,#'     '#,    #''#        ,####,   ,####,        
            ##       ##  ##   ,#'  ##            #'  '#       #'       #'  '#        
            ##       ##  #######   ##           ,######,      #####,   #    #        
            '#,     ,#'  ##    ##  '#,     ,#' ,#      #,     #,   #   #,  ,#        
             '#######'   ##     ##  '#######'  #'      '#     '####' # '####'        



                #########################################################
                #                        -***-                          #
                #          Department of theory and spectroscopy        #
                #                                                       #
                #                      Frank Neese                      #
                #                                                       #
                #     Directorship, Architecture, Infrastructure        #
                #                    SHARK, DRIVERS                     #
                #        Core code/Algorithms in most modules           #
                #                                                       #
                #        Max Planck Institute fuer Kohlenforschung      #
                #                Kaiser Wilhelm Platz 1                 #
                #                 D-45470 Muelheim/Ruhr                 #
                #                      Germany                          #
                #                                                       #
                #                  All rights reserved                  #
                #                        -***-                          #
                #########################################################


                         Program Version 6.0.0  -   RELEASE  -


 With contributions from (in alphabetic order):
   Daniel Aravena         : Magnetic Suceptibility
   Michael Atanasov       : Ab Initio Ligand Field Theory (pilot matlab implementation)
   Alexander A. Auer      : GIAO ZORA, VPT2 properties, NMR spectrum
   Ute Becker             : All parallelization in ORCA, NUMFREQ, NUMCALC
   Giovanni Bistoni       : ED, misc. LED, open-shell LED, HFLD
   Martin Brehm           : Molecular dynamics
   Dmytro Bykov           : pre 5.0 version of the SCF Hessian
   Marcos Casanova-Páez   : Triplet and SCS-CIS(D). UHF-(DLPNO)-IP/EA/STEOM-CCSD. UHF-CVS-IP/STEOM-CCSD
   Vijay G. Chilkuri      : MRCI spin determinant printing, contributions to CSF-ICE
   Pauline Colinet        : FMM embedding
   Dipayan Datta          : RHF DLPNO-CCSD density
   Achintya Kumar Dutta   : EOM-CC, STEOM-CC
   Nicolas Foglia         : Exact transition moments, OPA infrastructure, MCD improvements
   Dmitry Ganyushin       : Spin-Orbit,Spin-Spin,Magnetic field MRCI
   Miquel Garcia          : C-PCM and meta-GGA Hessian, CCSD/C-PCM, Gaussian charge scheme
   Tiago L. C. Gouveia    : GS-ROHF, GS-ROCIS
   Yang Guo               : DLPNO-NEVPT2, F12-NEVPT2, CIM, IAO-localization
   Andreas Hansen         : Spin unrestricted coupled pair/coupled cluster methods
   Ingolf Harden          : AUTO-CI MPn and infrastructure 
   Benjamin Helmich-Paris : MC-RPA, TRAH-(SCF,CASSCF), AVAS, COSX integrals, SCF dyn. polar.
   Lee Huntington         : MR-EOM, pCC
   Robert Izsak           : Overlap fitted RIJCOSX, COSX-SCS-MP3, EOM
   Riya Kayal             : Wick's Theorem for AUTO-CI, AUTO-CI UHF-CCSDT
   Emily Kempfer          : AUTO-CI, RHF CISDT and CCSDT
   Christian Kollmar      : KDIIS, OOCD, Brueckner-CCSD(T), CCSD density, CASPT2, CASPT2-K, improved NEVPT2
   Axel Koslowski         : Symmetry handling
   Simone Kossmann        : Meta GGA functionals, TD-DFT gradient, OOMP2, (MP2 Hessian; deprecated post 5.0)
   Lucas Lang             : DCDCAS
   Marvin Lechner         : AUTO-CI (C++ implementation), FIC-MRCC
   Spencer Leger          : CASSCF response
   Dagmar Lenk            : GEPOL surface, SMD, ORCA-2-JSON
   Dimitrios Liakos       : Extrapolation schemes; Compound Job, initial MDCI parallelization
   Dimitrios Manganas     : Further ROCIS development; embedding schemes. LFT, Crystal Embedding
   Dimitrios Pantazis     : SARC Basis sets
   Anastasios Papadopoulos: AUTO-CI, single reference methods and gradients
   Taras Petrenko         : pre 6.0 DFT Hessian and TD-DFT gradient, (ASA, deprecated), ECA, 1-Electron XAS/XES, NRVS
   Peter Pinski           : DLPNO-MP2, DLPNO-MP2 Gradient
   Christoph Reimann      : Effective Core Potentials
   Marius Retegan         : Local ZFS, SOC
   Christoph Riplinger    : Optimizer, TS searches, QM/MM, DLPNO-CCSD(T), (RO)-DLPNO pert. Triples
   Michael Roemelt        : Original ROCIS implementation
   Masaaki Saitow         : Open-shell DLPNO-CCSD energy and density
   Barbara Sandhoefer     : DKH picture change effects
   Kantharuban Sivalingam : CASSCF convergence/infrastructure, NEVPT2 and variants, FIC-MRCI
   Bernardo de Souza      : ESD, SOC TD-DFT
   Georgi Stoychev        : AutoAux, RI-MP2 NMR, DLPNO-MP2 response, X2C
   Van Anh Tran           : RI-MP2 g-tensors
   Willem Van den Heuvel  : Paramagnetic NMR
   Zikuan Wang            : NOTCH, Electric field optimization 
   Frank Wennmohs         : Technical directorship and infrastructure
   Hang Xu                : AUTO-CI-Response properties 


 We gratefully acknowledge several colleagues who have allowed us to
 interface, adapt or use parts of their codes:
   Stefan Grimme, W. Hujo, H. Kruse, P. Pracht,  : VdW corrections, initial TS optimization,
                  C. Bannwarth, S. Ehlert,         DFT functionals, gCP, sTDA/sTD-DF
                  L. Wittmann, M. Mueller
   Ed Valeev, F. Pavosevic, A. Kumar             : LibInt (2-el integral package), F12 methods
   Garnet Chan, S. Sharma, J. Yang, R. Olivares  : DMRG
   Ulf Ekstrom                                   : XCFun DFT Library
   Mihaly Kallay                                 : mrcc  (arbitrary order and MRCC methods)
   Frank Weinhold                                : gennbo (NPA and NBO analysis)
   Simon Mueller                                 : openCOSMO-RS
   Christopher J. Cramer and Donald G. Truhlar   : smd solvation model
   Lars Goerigk                                  : TD-DFT with DH, B97 family of functionals
   V. Asgeirsson, H. Jonsson                     : NEB implementation
   FAccTs GmbH                                   : IRC, NEB, NEB-TS, DLPNO-Multilevel, CI-OPT
                                                   MM, QMMM, 2- and 3-layer-ONIOM, Crystal-QMMM,
                                                   LR-CPCM, SF, NACMEs, symmetry and pop. for TD-DFT,
                                                   nearIR, NL-DFT gradient (VV10), updates on ESD,
                                                   ML-optimized integration grids, MBIS, APM,
                                                   GOAT, DOCKER, SOLVATOR, interface openCOSMO-RS
   S Lehtola, MJT Oliveira, MAL Marques          : LibXC Library
   Liviu Ungur et al                             : ANISO software


 Your calculation uses the libint2 library for the computation of 2-el integrals
 For citations please refer to: http://libint.valeyev.net

 Your ORCA version has been built with support for libXC version: 6.2.2
 For citations please refer to: https://libxc.gitlab.io

 This ORCA versions uses:
   CBLAS   interface :  Fast vector & matrix operations
   LAPACKE interface :  Fast linear algebra routines
   SCALAPACK package :  Parallel linear algebra routines
   Shared memory     :  Shared parallel matrices
   BLAS/LAPACK       :  OpenBLAS 0.3.27  USE64BITINT DYNAMIC_ARCH NO_AFFINITY Sandybridge SINGLE_THREADED
        Core in use  :  Sandybridge
   Copyright (c) 2011-2014, The OpenBLAS Project


NOTE: MaxCore=3500 MB was set to SCF,MP2,MDCI,CIPSI,MRCI and CIS
      => If you want to overwrite this, your respective input block should be placed after the MaxCore statement
Your calculation utilizes the atom-pairwise dispersion correction
with the Becke-Johnson damping scheme (D3BJ)


Your calculation utilizes the SMD solvation module
Please cite in your paper:
A.V. Marenich, C.J. Cramer, D.G. Truhlar J. Phys. Chem. B, 113, (2009), 6378 

Warning: RI is on but no J-basis has been assigned. Assigning Def2/J (nothing to worry about!)
================================================================================

----- Orbital basis set information -----
Your calculation utilizes the basis: def2-SV(P)
   F. Weigend and R. Ahlrichs, Phys. Chem. Chem. Phys. 7, 3297 (2005).

----- AuxJ basis set information -----
Your calculation utilizes the auxiliary basis: def2/J
   F. Weigend, Phys. Chem. Chem. Phys. 8, 1057 (2006).

================================================================================
                                        WARNINGS
                       Please study these warnings very carefully!
================================================================================


WARNING: your system is open-shell and RHF/RKS was chosen
  ===> : WILL SWITCH to UHF/UKS


WARNING: Geometry Optimization
  ===> : Switching off AutoStart
         For restart on a previous wavefunction, please use MOREAD

================================================================================
                                       INPUT FILE
================================================================================
NAME = cs_rporg_162_red_opt_03.inp
|  1> !PBE0 opt def2-SV(p) d3 TightSCF SlowConv RIJCOSX defgrid2
|  2> 
|  3> %pal
|  4> nprocs 8
|  5> end
|  6> 
|  7> %scf
|  8> MaxIter 1500
|  9> end
| 10> 
| 11> %maxcore 3500
| 12> 
| 13> !CPCM
| 14> %cpcm smd true
| 15> SMDsolvent "MeCN"
| 16> surfacetype gepol_ses
| 17> rsolv 2.19
| 18> end 
| 19> 
| 20> * xyz -1 2
| 21> C          -1.22535307927293     -0.03882807002799     -0.00002255469277
| 22> C          -1.22206264378164      1.41582015720061     -0.00002423880206
| 23> C           0.00004637420421      2.08121905033007     -0.00000415463824
| 24> C           1.22212161683371      1.41575862792076      0.00002170232485
| 25> C           1.22534433396412     -0.03888819251674      0.00002507087618
| 26> C          -0.00002135567409     -0.71608207495025      0.00000157424078
| 27> H          -0.00004774645346     -1.81053735349218      0.00000261550832
| 28> C           2.43402384370652     -0.77080587803239      0.00007579493229
| 29> N           3.44413671726320     -1.36247120639636      0.00011250089172
| 30> H           2.16848850432676      1.96074544120089      0.00003301965359
| 31> H           0.00007494156619      3.17901522614598     -0.00000842096167
| 32> H          -2.16840192148197      1.96085605610510     -0.00003754989011
| 33> C          -2.43406244869294     -0.77069683887805     -0.00005052688718
| 34> N          -3.44419623650770     -1.36232524460946     -0.00007393255569
| 35> *
| 36> 
| 37>                          ****END OF INPUT****
================================================================================

                       *****************************
                       * Geometry Optimization Run *
                       *****************************

Geometry optimization settings:
Update method            Update   .... BFGS
Choice of coordinates    CoordSys .... (2022) Redundant Internals
Initial Hessian          InHess   .... Almloef's Model
Max. no of cycles        MaxIter  .... 50

Convergence Tolerances:
Energy Change            TolE     ....  5.0000e-06 Eh
Max. Gradient            TolMAXG  ....  3.0000e-04 Eh/bohr
RMS Gradient             TolRMSG  ....  1.0000e-04 Eh/bohr
Max. Displacement        TolMAXD  ....  4.0000e-03 bohr
RMS Displacement         TolRMSD  ....  2.0000e-03 bohr
Strict Convergence                .... False

------------------------------------------------------------------------------
                        ORCA OPTIMIZATION COORDINATE SETUP
------------------------------------------------------------------------------

The optimization will be done in redundant internal coordinates (2022)
Making redundant internal coordinates   ...  (2022 redundants) done
Evaluating the initial hessian          ...  (Almloef) done
Evaluating the coordinates              ...  done
Calculating the B-matrix                .... done
Calculating the G-matrix                .... done
Diagonalizing the G-matrix              .... done
The first mode is                       ....   24
The number of degrees of freedom        ....   36

    -----------------------------------------------------------------
                    Redundant Internal Coordinates


    -----------------------------------------------------------------
         Definition                    Initial Value    Approx d2E/dq
    -----------------------------------------------------------------
      1. B(C   1,C   0)                  1.4547         0.492709   
      2. B(C   2,C   1)                  1.3915         0.621335   
      3. B(C   3,C   2)                  1.3915         0.621336   
      4. B(C   4,C   3)                  1.4547         0.492712   
      5. B(C   5,C   4)                  1.4000         0.602171   
      6. B(C   5,C   0)                  1.4000         0.602173   
      7. B(H   6,C   5)                  1.0945         0.354254   
      8. B(C   7,C   4)                  1.4130         0.574144   
      9. B(N   8,C   7)                  1.1706         1.252714   
     10. B(H   9,C   3)                  1.0921         0.357370   
     11. B(H  10,C   2)                  1.0978         0.349933   
     12. B(H  11,C   1)                  1.0921         0.357369   
     13. B(C  12,C   0)                  1.4130         0.574143   
     14. B(N  13,C  12)                  1.1706         1.252716   
     15. A(C   1,C   0,C  12)          121.3243         0.410929   
     16. A(C   1,C   0,C   5)          118.8003         0.414421   
     17. A(C   5,C   0,C  12)          119.8754         0.425885   
     18. A(C   0,C   1,H  11)          119.8098         0.339102   
     19. A(C   2,C   1,H  11)          121.4937         0.352583   
     20. A(C   0,C   1,C   2)          118.6965         0.416737   
     21. A(C   1,C   2,C   3)          122.8634         0.434402   
     22. A(C   1,C   2,H  10)          118.5684         0.351331   
     23. A(C   3,C   2,H  10)          118.5683         0.351331   
     24. A(C   4,C   3,H   9)          119.8095         0.339102   
     25. A(C   2,C   3,H   9)          121.4938         0.352583   
     26. A(C   2,C   3,C   4)          118.6967         0.416737   
     27. A(C   5,C   4,C   7)          119.8759         0.425884   
     28. A(C   3,C   4,C   5)          118.8001         0.414421   
     29. A(C   3,C   4,C   7)          121.3240         0.410930   
     30. A(C   0,C   5,H   6)          118.9285         0.350203   
     31. A(C   0,C   5,C   4)          122.1430         0.429539   
     32. A(C   4,C   5,H   6)          118.9285         0.350202   
     33. L(C   4,C   7,N   8,C   3, 2) 180.0005         0.483364   
     34. L(C   4,C   7,N   8,C   3, 1) 179.1622         0.483364   
     35. L(C   0,C  12,N  13,C   1, 2) 180.0000         0.483365   
     36. L(C   0,C  12,N  13,C   1, 1) 179.1625         0.483365   
     37. D(H  11,C   1,C   0,C   5)   -179.9997         0.016531   
     38. D(H  11,C   1,C   0,C  12)      0.0006         0.016531   
     39. D(C   2,C   1,C   0,C  12)   -179.9996         0.016531   
     40. D(C   2,C   1,C   0,C   5)      0.0001         0.016531   
     41. D(H  10,C   2,C   1,C   0)    179.9998         0.026721   
     42. D(C   3,C   2,C   1,C   0)     -0.0002         0.026721   
     43. D(C   3,C   2,C   1,H  11)    179.9996         0.026721   
     44. D(H  10,C   2,C   1,H  11)     -0.0004         0.026721   
     45. D(H   9,C   3,C   2,H  10)     -0.0003         0.026721   
     46. D(H   9,C   3,C   2,C   1)    179.9997         0.026721   
     47. D(C   4,C   3,C   2,H  10)   -179.9999         0.026721   
     48. D(C   4,C   3,C   2,C   1)      0.0001         0.026721   
     49. D(C   7,C   4,C   3,C   2)   -179.9988         0.016531   
     50. D(C   5,C   4,C   3,H   9)   -179.9996         0.016531   
     51. D(C   5,C   4,C   3,C   2)      0.0000         0.016531   
     52. D(C   7,C   4,C   3,H   9)      0.0016         0.016531   
     53. D(H   6,C   5,C   4,C   7)     -0.0012         0.025007   
     54. D(C   0,C   5,C   4,C   7)    179.9987         0.025007   
     55. D(C   0,C   5,C   4,C   3)     -0.0001         0.025007   
     56. D(H   6,C   5,C   0,C  12)     -0.0003         0.025007   
     57. D(H   6,C   5,C   0,C   1)   -180.0000         0.025007   
     58. D(H   6,C   5,C   4,C   3)    179.9999         0.025007   
     59. D(C   4,C   5,C   0,C  12)    179.9998         0.025007   
     60. D(C   4,C   5,C   0,C   1)      0.0000         0.025007   
    -----------------------------------------------------------------

Number of atoms                         .... 14
Number of degrees of freedom            .... 60


         *************************************************************
         *                GEOMETRY OPTIMIZATION CYCLE   1            *
         *************************************************************
---------------------------------
CARTESIAN COORDINATES (ANGSTROEM)
---------------------------------
  C     -1.225353   -0.038828   -0.000023
  C     -1.222063    1.415820   -0.000024
  C      0.000046    2.081219   -0.000004
  C      1.222122    1.415759    0.000022
  C      1.225344   -0.038888    0.000025
  C     -0.000021   -0.716082    0.000002
  H     -0.000048   -1.810537    0.000003
  C      2.434024   -0.770806    0.000076
  N      3.444137   -1.362471    0.000113
  H      2.168489    1.960745    0.000033
  H      0.000075    3.179015   -0.000008
  H     -2.168402    1.960856   -0.000038
  C     -2.434062   -0.770697   -0.000051
  N     -3.444196   -1.362325   -0.000074

----------------------------
CARTESIAN COORDINATES (A.U.)
----------------------------
  NO LB      ZA    FRAG     MASS         X           Y           Z
   0 C     6.0000    0    12.011   -2.315582   -0.073374   -0.000043
   1 C     6.0000    0    12.011   -2.309364    2.675512   -0.000046
   2 C     6.0000    0    12.011    0.000088    3.932934   -0.000008
   3 C     6.0000    0    12.011    2.309475    2.675396    0.000041
   4 C     6.0000    0    12.011    2.315565   -0.073488    0.000047
   5 C     6.0000    0    12.011   -0.000040   -1.353199    0.000003
   6 H     1.0000    0     1.008   -0.000090   -3.421420    0.000005
   7 C     6.0000    0    12.011    4.599638   -1.456612    0.000143
   8 N     7.0000    0    14.007    6.508475   -2.574697    0.000213
   9 H     1.0000    0     1.008    4.097849    3.705272    0.000062
  10 H     1.0000    0     1.008    0.000142    6.007468   -0.000016
  11 H     1.0000    0     1.008   -4.097686    3.705481   -0.000071
  12 C     6.0000    0    12.011   -4.599711   -1.456406   -0.000095
  13 N     7.0000    0    14.007   -6.508588   -2.574422   -0.000140

--------------------------------
INTERNAL COORDINATES (ANGSTROEM)
--------------------------------
 C      0   0   0     0.000000000000     0.00000000     0.00000000
 C      1   0   0     1.454651948731     0.00000000     0.00000000
 C      2   1   0     1.391512177174   118.69646849     0.00000000
 C      3   2   1     1.391511937825   122.86338029     0.00000000
 C      4   3   2     1.454650390343   118.69669140     0.00000000
 C      1   2   3     1.400039578235   118.80029657     0.00000000
 H      6   1   2     1.094455278861   118.92851866   180.00001633
 C      5   4   3     1.413014387122   121.32400068   180.00118588
 N      8   5   4     1.170639090181   179.16222480     0.00000000
 H      4   3   2     1.092071844029   121.49378148   179.99974734
 H      3   2   1     1.097796176196   118.56835579   179.99982449
 H      2   1   3     1.092072415085   119.80981454   180.00021221
 C      1   2   3     1.413014591335   121.32434402   180.00038907
 N     13   1   2     1.170638475492   179.16247197     0.00000000

---------------------------
INTERNAL COORDINATES (A.U.)
---------------------------
 C      0   0   0     0.000000000000     0.00000000     0.00000000
 C      1   0   0     2.748893803277     0.00000000     0.00000000
 C      2   1   0     2.629576926875   118.69646849     0.00000000
 C      3   2   1     2.629576474571   122.86338029     0.00000000
 C      4   3   2     2.748890858351   118.69669140     0.00000000
 C      1   2   3     2.645691379514   118.80029657     0.00000000
 H      6   1   2     2.068220742871   118.92851866   180.00001633
 C      5   4   3     2.670210214952   121.32400068   180.00118588
 N      8   5   4     2.212187282105   179.16222480     0.00000000
 H      4   3   2     2.063716703781   121.49378148   179.99974734
 H      3   2   1     2.074534123876   118.56835579   179.99982449
 H      2   1   3     2.063717782921   119.80981454   180.00021221
 C      1   2   3     2.670210600857   121.32434402   180.00038907
 N     13   1   2     2.212186120510   179.16247197     0.00000000

---------------------
BASIS SET INFORMATION
---------------------
There are 3 groups of distinct atoms

 Group   1 Type C   : 7s4p1d contracted to 3s2p1d pattern {511/31/1}
 Group   2 Type H   : 4s contracted to 2s pattern {31}
 Group   3 Type N   : 7s4p1d contracted to 3s2p1d pattern {511/31/1}

Atom   0C    basis set group =>   1
Atom   1C    basis set group =>   1
Atom   2C    basis set group =>   1
Atom   3C    basis set group =>   1
Atom   4C    basis set group =>   1
Atom   5C    basis set group =>   1
Atom   6H    basis set group =>   2
Atom   7C    basis set group =>   1
Atom   8N    basis set group =>   3
Atom   9H    basis set group =>   2
Atom  10H    basis set group =>   2
Atom  11H    basis set group =>   2
Atom  12C    basis set group =>   1
Atom  13N    basis set group =>   3
---------------------------------
AUXILIARY/J BASIS SET INFORMATION
---------------------------------
There are 3 groups of distinct atoms

 Group   1 Type C   : 12s5p4d2f1g contracted to 6s4p3d1f1g pattern {711111/2111/211/2/1}
 Group   2 Type H   : 5s2p1d contracted to 3s1p1d pattern {311/2/1}
 Group   3 Type N   : 12s5p4d2f1g contracted to 6s4p3d1f1g pattern {711111/2111/211/2/1}

Atom   0C    basis set group =>   1
Atom   1C    basis set group =>   1
Atom   2C    basis set group =>   1
Atom   3C    basis set group =>   1
Atom   4C    basis set group =>   1
Atom   5C    basis set group =>   1
Atom   6H    basis set group =>   2
Atom   7C    basis set group =>   1
Atom   8N    basis set group =>   3
Atom   9H    basis set group =>   2
Atom  10H    basis set group =>   2
Atom  11H    basis set group =>   2
Atom  12C    basis set group =>   1
Atom  13N    basis set group =>   3


           ************************************************************
           *        Program running with 8 parallel MPI-processes     *
           *              working on a common directory               *
           ************************************************************
------------------------------------------------------------------------------
                             ORCA STARTUP CALCULATIONS
                           -- RI-GTO INTEGRALS CHOSEN --
------------------------------------------------------------------------------
------------------------------------------------------------------------------
                   ___                                                        
                  /   \      - P O W E R E D   B Y -                         
                 /     \                                                     
                 |  |  |   _    _      __       _____    __    __             
                 |  |  |  | |  | |    /  \     |  _  \  |  |  /  |          
                  \  \/   | |  | |   /    \    | | | |  |  | /  /          
                 / \  \   | |__| |  /  /\  \   | |_| |  |  |/  /          
                |  |  |   |  __  | /  /__\  \  |    /   |      \           
                |  |  |   | |  | | |   __   |  |    \   |  |\   \          
                \     /   | |  | | |  |  |  |  | |\  \  |  | \   \       
                 \___/    |_|  |_| |__|  |__|  |_| \__\ |__|  \__/        
                                                                              
                      - O R C A' S   B I G   F R I E N D -                    
                                      &                                       
                       - I N T E G R A L  F E E D E R -                       
                                                                              
 v1 FN, 2020, v2 2021, v3 2022-2024                                           
------------------------------------------------------------------------------


----------------------
SHARK INTEGRAL PACKAGE
----------------------

Number of atoms                             ...     14
Number of basis functions                   ...    148
Number of shells                            ...     68
Maximum angular momentum                    ...      2
Integral batch strategy                     ... SHARK/LIBINT Hybrid
RI-J (if used) integral strategy            ... SPLIT-RIJ (Revised 2003 algorithm where possible)
Printlevel                                  ...      1
Contraction scheme used                     ... SEGMENTED contraction
Prescreening option                         ... SCHWARTZ
   Thresh                                   ... 2.500e-11
   Tcut                                     ... 2.500e-12
   Tpresel                                  ... 2.500e-12 
Coulomb Range Separation                    ... NOT USED
Exchange Range Separation                   ... NOT USED
Multipole approximations                    ... NOT USED
Finite Nucleus Model                        ... NOT USED
CABS basis                                  ... NOT available
Auxiliary Coulomb fitting basis             ... AVAILABLE
   # of basis functions in Aux-J            ...    534
   # of shells in Aux-J                     ...    170
   Maximum angular momentum in Aux-J        ...      4
Auxiliary J/K fitting basis                 ... NOT available
Auxiliary Correlation fitting basis         ... NOT available
Auxiliary 'external' fitting basis          ... NOT available

Checking pre-screening integrals            ... done (  0.1 sec) Dimension = 68
Check shell pair data                       ... done (  0.1 sec)
Shell pair information
Shell pair cut-off parameter TPreSel        ...   2.5e-12
Total number of shell pairs                 ...      2346
Shell pairs after pre-screening             ...      2147
Total number of primitive shell pairs       ...      9458
Primitive shell pairs kept                  ...      6184
          la=0 lb=0:    669 shell pairs
          la=1 lb=0:    716 shell pairs
          la=1 lb=1:    205 shell pairs
          la=2 lb=0:    326 shell pairs
          la=2 lb=1:    186 shell pairs
          la=2 lb=2:     45 shell pairs

Calculating one electron integrals          ... done (  0.0 sec)
Calculating RI/J V-Matrix + Cholesky decomp.... done (  0.1 sec)
Calculating Nuclear repulsion               ... done (  0.0 sec) ENN=    405.556515259298 Eh

Diagonalization of the overlap matrix:
Smallest eigenvalue                        ... 3.164e-04
Time for diagonalization                   ...    0.004 sec
Threshold for overlap eigenvalues          ... 1.000e-07
Number of eigenvalues below threshold      ... 0
Time for construction of square roots      ...    0.030 sec
Total time needed                          ...    0.116 sec

-------------------
DFT GRID GENERATION
-------------------

General Integration Accuracy     IntAcc      ... 4.388
Radial Grid Type                 RadialGrid  ... OptM3 with GC (2021)
Angular Grid (max. ang.)         AngularGrid ... 4 (Lebedev-302)
Angular grid pruning method      GridPruning ... 4 (adaptive)
Weight generation scheme         WeightScheme... mBecke (2022)
Basis function cutoff            BFCut       ... 1.0000e-11
Integration weight cutoff        WCut        ... 1.0000e-14
Partially contracted basis set               ... off
Rotationally invariant grid construction     ... off
Angular grids for H and He will be reduced by one unit

Total number of grid points                  ...    73174
Total number of batches                      ...     1149
Average number of points per batch           ...       63
Average number of grid points per atom       ...     5227

--------------------
COSX GRID GENERATION
--------------------

GRIDX 1
-------
General Integration Accuracy     IntAcc      ... 3.816
Radial Grid Type                 RadialGrid  ... OptM3 with GC (2021)
Angular Grid (max. ang.)         AngularGrid ... 1 (Lebedev-50)
Angular grid pruning method      GridPruning ... 4 (adaptive)
Weight generation scheme         WeightScheme... mBecke (2022)
Basis function cutoff            BFCut       ... 1.0000e-11
Integration weight cutoff        WCut        ... 1.0000e-14
Partially contracted basis set               ... on
Rotationally invariant grid construction     ... off
Angular grids for H and He will be reduced by one unit

Total number of grid points                  ...     9310
Total number of batches                      ...       78
Average number of points per batch           ...      119
Average number of grid points per atom       ...      665
UseSFitting                                  ... on

GRIDX 2
-------
General Integration Accuracy     IntAcc      ... 4.020
Radial Grid Type                 RadialGrid  ... OptM3 with GC (2021)
Angular Grid (max. ang.)         AngularGrid ... 2 (Lebedev-110)
Angular grid pruning method      GridPruning ... 4 (adaptive)
Weight generation scheme         WeightScheme... mBecke (2022)
Basis function cutoff            BFCut       ... 1.0000e-11
Integration weight cutoff        WCut        ... 1.0000e-14
Partially contracted basis set               ... on
Rotationally invariant grid construction     ... off
Angular grids for H and He will be reduced by one unit

Total number of grid points                  ...    21122
Total number of batches                      ...      171
Average number of points per batch           ...      123
Average number of grid points per atom       ...     1509
UseSFitting                                  ... on

GRIDX 3
-------
General Integration Accuracy     IntAcc      ... 4.338
Radial Grid Type                 RadialGrid  ... OptM3 with GC (2021)
Angular Grid (max. ang.)         AngularGrid ... 3 (Lebedev-194)
Angular grid pruning method      GridPruning ... 4 (adaptive)
Weight generation scheme         WeightScheme... mBecke (2022)
Basis function cutoff            BFCut       ... 1.0000e-11
Integration weight cutoff        WCut        ... 1.0000e-14
Partially contracted basis set               ... on
Rotationally invariant grid construction     ... off
Angular grids for H and He will be reduced by one unit

Total number of grid points                  ...    46738
Total number of batches                      ...      373
Average number of points per batch           ...      125
Average number of grid points per atom       ...     3338
UseSFitting                                  ... on
Initializing property integral containers    ... done (  0.2 sec)

SHARK setup successfully completed in   5.1 seconds

Maximum memory used throughout the entire STARTUP-calculation: 19.2 MB


           ************************************************************
           *        Program running with 8 parallel MPI-processes     *
           *              working on a common directory               *
           ************************************************************
-------------------------------------------------------------------------------
                                 ORCA GUESS
                   Start orbitals & Density for SCF / CASSCF
-------------------------------------------------------------------------------

------------
SCF SETTINGS
------------
Hamiltonian:
 Density Functional     Method          .... DFT(GTOs)
 Exchange Functional    Exchange        .... PBE
   PBE kappa parameter   XKappa         ....  0.804000
   PBE mue parameter    XMuePBE         ....  0.219520
 Correlation Functional Correlation     .... PBE
   PBE beta parameter  CBetaPBE         ....  0.066725
 LDA part of GGA corr.  LDAOpt          .... PW91-LDA
 Gradients option       PostSCFGGA      .... off
 Hybrid DFT is turned on
   Fraction HF Exchange ScalHFX         ....  0.250000
   Scaling of DF-GGA-X  ScalDFX         ....  0.750000
   Scaling of DF-GGA-C  ScalDFC         ....  1.000000
   Scaling of DF-LDA-C  ScalLDAC        ....  1.000000
   Perturbative correction              ....  0.000000
   NL short-range parameter             ....  6.900000
 RI-approximation to the Coulomb term is turned on
   Number of AuxJ basis functions       .... 534
   RIJ-COSX (HFX calculated with COS-X)).... on


General Settings:
 Integral files         IntName         .... cs_rporg_162_red_opt_03
 Hartree-Fock type      HFTyp           .... UHF
 Total Charge           Charge          ....   -1
 Multiplicity           Mult            ....    2
 Number of Electrons    NEL             ....   67
 Basis Dimension        Dim             ....  148
 Nuclear Repulsion      ENuc            ....    405.5565152593 Eh

Convergence Acceleration:
 AO-DIIS                CNVDIIS         .... on
   Start iteration      DIISMaxIt       ....     0
   Startup error        DIISStart       ....  0.200000
   # of expansion vecs  DIISMaxEq       ....     5
   Bias factor          DIISBfac        ....   1.050
   Max. coefficient     DIISMaxC        ....  10.000
 MO-DIIS                CNVKDIIS        .... off
 Trust-Rad. Augm. Hess. CNVTRAH         .... auto
   Auto Start mean grad. ratio tolernc. ....  1.125000
   Auto Start start iteration           ....    50
   Auto Start num. interpolation iter.  ....    10
   Max. Number of Micro iterations      ....    24
   Max. Number of Macro iterations      .... Maxiter - #DIIS iter
   Number of Davidson start vectors     ....     2
   Converg. threshold    (grad. norm)   ....   1.000e-05
   Grad. Scal. Fac. for Micro threshold ....   0.100
   Minimum threshold for Micro iter.    ....   1.000e-02
   NR start threshold (gradient norm)   ....   1.000e-04
   Initial trust radius                 ....   0.400
   Minimum AH scaling param. (alpha)    ....   1.000
   Maximum AH scaling param. (alpha)    .... 1000.000
   Quad. conv. algorithm                .... NR
   White noise on init. David. guess    .... on
   Maximum white noise                  ....   0.010
   Pseudo random numbers                .... off
   Inactive MOs                         .... canonical
   Orbital update algorithm             .... Taylor
   Preconditioner                       .... Diag
   Full preconditioner red. dimension   ....   250
 SOSCF                  CNVSOSCF        .... on
   Start iteration      SOSCFMaxIt      ....   150
   Startup grad/error   SOSCFStart      ....  0.001000
   Hessian update       SOSCFHessUp     .... L-BFGS
 Level Shifting         CNVShift        .... on
   Level shift para.    LevelShift      ....    0.2500
   Turn off err/grad.   ShiftErr        ....    0.0000
 Zerner damping         CNVZerner       .... off
 Static damping         CNVDamp         .... on
   Fraction old density DampFac         ....    0.8500
   Max. Damping (<1)    DampMax         ....    0.9800
   Min. Damping (>=0)   DampMin         ....    0.0000
   Turn off err/grad.   DampErr         ....    0.0300

SCF Procedure:
 Maximum # iterations   MaxIter         ....  1500
 SCF integral mode      SCFMode         .... Direct
   Integral package                     .... SHARK and LIBINT hybrid scheme
 Reset frequency        DirectResetFreq ....    20
 Integral Threshold     Thresh          ....  2.500e-11 Eh
 Primitive CutOff       TCut            ....  2.500e-12 Eh

Convergence Tolerance:
 Convergence Check Mode ConvCheckMode   .... Total+1el-Energy
 Convergence forced     ConvForced      .... 0
 Energy Change          TolE            ....  1.000e-08 Eh
 1-El. energy change                    ....  1.000e-05 Eh
 Orbital Gradient       TolG            ....  1.000e-05
 Orbital Rotation angle TolX            ....  1.000e-05
 DIIS Error             TolErr          ....  5.000e-07

------------------------------
INITIAL GUESS: MODEL POTENTIAL
------------------------------
Loading Hartree-Fock densities                     ... done
Calculating cut-offs                               ... done
Initializing the effective Hamiltonian             ... done
Setting up the integral package (SHARK)            ... done
Starting the Coulomb interaction                   ... done (   0.2 sec)
Making the grid                                    ... done (   0.3 sec)
Mapping shells                                     ... done
Starting the XC term evaluation                    ... done (   0.1 sec)
  promolecular density results
     # of electrons  =     65.995005720
     EX              =    -54.982095836
     EC              =     -2.162952393
     EX+EC           =    -57.145048229
Transforming the Hamiltonian                       ... done (   0.1 sec)
Diagonalizing the Hamiltonian                      ... done (   0.0 sec)
Back transforming the eigenvectors                 ... done (   1.2 sec)
Now organizing SCF variables                       ... done
                      ------------------
                      INITIAL GUESS DONE (   3.0 sec)
                      ------------------
             **** ENERGY FILE WAS UPDATED (cs_rporg_162_red_opt_03.en.tmp) ****
Finished Guess after   4.4 sec
Maximum memory used throughout the entire GUESS-calculation: 10.9 MB


           ************************************************************
           *        Program running with 8 parallel MPI-processes     *
           *              working on a common directory               *
           ************************************************************

-------------------------------------------------------------------------------------------
                                      ORCA LEAN-SCF
                              memory conserving SCF solver
-------------------------------------------------------------------------------------------

--------------------
CPCM SOLVATION MODEL
--------------------
CPCM parameters:
  Epsilon                                         ...      35.6880
  Refrac                                          ...       1.3442
  Rsolv                                           ...       2.1900
  Surface type                                    ...    GEPOL SES
  Discretization scheme                           ... Constant num. charges
  Epsilon function type                           ...         CPCM
Solvent:                                          ... ACETONITRILE
SMD-CDS solvent descriptors:
  Soln                                            ...       1.3442
  Soln25                                          ...       1.3416
  Sola                                            ...       0.0700
  Solb                                            ...       0.3200
  Solg                                            ...      41.2500
  Solc                                            ...       0.0000
  Solh                                            ...       0.0000
Radii:
  Scheme                                          ... Element-dependent radii
  Radius for C  used is    3.4960 Bohr (=   1.8500 Ang.)
  Radius for H  used is    2.2677 Bohr (=   1.2000 Ang.)
  Radius for N  used is    3.5716 Bohr (=   1.8900 Ang.)
Calculating surface                               ...        done! (  0.0s)
Cavity surface points                             ...          544
Cavity Volume                                     ...    1017.7225
Cavity Surface-area                               ...     603.5180
Calculating surface distance matrix               ...        done! (  0.0s)
Performing Cholesky decomposition & store         ...        done! (  0.0s)
Overall time for CPCM initialization              ...                 0.1s

----------------------------------------D-I-I-S--------------------------------------------
Iteration    Energy (Eh)           Delta-E    RMSDP     MaxDP     DIISErr   Damp  Time(sec)
-------------------------------------------------------------------------------------------
               ***  Starting incremental Fock matrix formation  ***
    1    -415.7789727816922323     0.00e+00  1.04e-03  2.18e-02  1.02e-01  0.850   7.3
Warning: op=0 Small HOMO/LUMO gap (   0.067) - skipping pre-diagonalization
         Will do a full diagonalization
    2    -415.8433369758803337    -6.44e-02  1.03e-03  1.82e-02  7.52e-02  0.850   6.6
                               ***Turning on AO-DIIS***
    3    -415.8850608646118872    -4.17e-02  6.33e-04  1.09e-02  5.03e-02  0.850   5.6
    4    -415.9126376166881300    -2.76e-02  4.44e-04  7.52e-03  3.99e-02  0.850   7.4
    5    -415.9327652130899651    -2.01e-02  3.37e-04  5.56e-03  3.38e-02  0.850   6.0
    6    -415.9487311950686035    -1.60e-02  2.73e-04  4.42e-03  2.90e-02  0.850   7.8
    7    -415.9619215631691986    -1.32e-02  1.55e-03  2.50e-02  2.45e-02  0.000   9.6
    8    -416.0285069106250830    -6.66e-02  2.10e-04  5.11e-03  6.80e-03  0.000   8.5
    9    -416.0288588464399027    -3.52e-04  8.84e-05  1.83e-03  3.92e-03  0.000   7.2
   10    -416.0290384267565287    -1.80e-04  4.41e-05  1.33e-03  1.24e-03  0.000   7.5
                              *** Initializing SOSCF ***
---------------------------------------S-O-S-C-F--------------------------------------
Iteration    Energy (Eh)           Delta-E    RMSDP     MaxDP     MaxGrad    Time(sec)
--------------------------------------------------------------------------------------
   11    -416.0290732280620887    -3.48e-05  3.57e-05  1.32e-03  6.65e-04     8.1
               *** Restarting incremental Fock matrix formation ***
   12    -416.0291084922274649    -3.53e-05  3.14e-05  8.47e-04  5.41e-04     4.6
   13    -416.0291149311511845    -6.44e-06  4.17e-05  1.45e-03  2.49e-04     5.7
   14    -416.0291174553543669    -2.52e-06  1.60e-05  2.78e-04  1.83e-04     5.7
   15    -416.0291182196158388    -7.64e-07  8.50e-06  1.25e-04  1.08e-04     5.3
   16    -416.0291182017373330     1.79e-08  5.16e-06  9.27e-05  1.07e-04     5.5
   17    -416.0291183942221096    -1.92e-07  1.36e-06  5.75e-05  2.59e-05     7.1
   18    -416.0291183985452790    -4.32e-09  7.89e-07  3.96e-05  1.93e-05     4.8
                 **** Energy Check signals convergence ****

               *****************************************************
               *                     SUCCESS                       *
               *           SCF CONVERGED AFTER  18 CYCLES          *
               *****************************************************

Recomputing exchange energy using gridx3       ... done (    1.319 sec)
Old exchange energy                            :    -14.027915285 Eh
New exchange energy                            :    -14.027946431 Eh
Exchange energy change after final integration :     -0.000031146 Eh
Total energy after final integration           :   -416.029149544 Eh

SMD CDS free energy correction energy :                 0.93894     Kcal/mol
Total Energy after SMD CDS correction =              -416.027653245 Eh
             **** ENERGY FILE WAS UPDATED (cs_rporg_162_red_opt_03.en.tmp) ****

----------------
TOTAL SCF ENERGY
----------------

Total Energy       :       -416.02765324497540 Eh          -11320.68798 eV

Components:
Nuclear Repulsion  :        405.55651525929841 Eh           11035.75383 eV
Electronic Energy  :       -821.50612509842676 Eh          -22354.31814 eV
One Electron Energy:      -1376.13837916863031 Eh          -37446.62905 eV
Two Electron Energy:        554.63225407020354 Eh           15092.31091 eV
CPCM Dielectric    :         -0.07950855941688 Eh              -2.16354 eV
SMD CDS (Gcds)     :          0.00149629950127 Eh               0.04072 eV

Virial components:
Potential Energy   :       -828.12198065777193 Eh          -22534.34472 eV
Kinetic Energy     :        412.09432741279647 Eh           11213.65674 eV
Virial Ratio       :          2.00954472209524

DFT components:
N(Alpha)           :       34.000027117083 electrons
N(Beta)            :       33.000029257882 electrons
N(Total)           :       67.000056374965 electrons
E(X)               :      -42.019821709946 Eh       
E(C)               :       -2.226319395228 Eh       
E(XC)              :      -44.246141105175 Eh       

CPCM Solvation Model Properties:
Surface-charge          :          0.97260128851559
Corrected charge        :          1.00000000000000
Outlying charge corr.   :          0.00005308026670 Eh               0.00144 eV
Free-energy (cav+disp)  :          0.00149629950127 Eh               0.04072 eV

---------------
SCF CONVERGENCE
---------------

  Last Energy change         ...    4.3232e-09  Tolerance :   1.0000e-08
  Last MAX-Density change    ...    3.9622e-05  Tolerance :   1.0000e-07
  Last RMS-Density change    ...    7.8923e-07  Tolerance :   5.0000e-09
  Last DIIS Error            ...    6.6543e-04  Tolerance :   5.0000e-07
  Last Orbital Gradient      ...    1.9306e-05  Tolerance :   1.0000e-05
  Last Orbital Rotation      ...    6.2541e-05  Tolerance :   1.0000e-05


----------------------
UHF SPIN CONTAMINATION
----------------------

Warning: in a DFT calculation there is little theoretical justification to 
         calculate <S**2> as in Hartree-Fock theory. We will do it anyways
         but you should keep in mind that the values have only limited relevance

Expectation value of <S**2>     :     0.767668
Ideal value S*(S+1) for S=0.5   :     0.750000
Deviation                       :     0.017668

----------------
ORBITAL ENERGIES
----------------
                 SPIN UP ORBITALS
  NO   OCC          E(Eh)            E(eV) 
   0   1.0000     -14.368623      -390.9901 
   1   1.0000     -14.368615      -390.9899 
   2   1.0000     -10.260008      -279.1890 
   3   1.0000     -10.259990      -279.1885 
   4   1.0000     -10.245444      -278.7927 
   5   1.0000     -10.242583      -278.7149 
   6   1.0000     -10.242557      -278.7141 
   7   1.0000     -10.222026      -278.1555 
   8   1.0000     -10.214088      -277.9395 
   9   1.0000     -10.214071      -277.9390 
  10   1.0000      -0.906269       -24.6608 
  11   1.0000      -0.902578       -24.5604 
  12   1.0000      -0.860555       -23.4169 
  13   1.0000      -0.773656       -21.0522 
  14   1.0000      -0.763049       -20.7636 
  15   1.0000      -0.648081       -17.6352 
  16   1.0000      -0.634123       -17.2554 
  17   1.0000      -0.569203       -15.4888 
  18   1.0000      -0.489721       -13.3260 
  19   1.0000      -0.481806       -13.1106 
  20   1.0000      -0.458835       -12.4855 
  21   1.0000      -0.429497       -11.6872 
  22   1.0000      -0.409349       -11.1389 
  23   1.0000      -0.378448       -10.2981 
  24   1.0000      -0.374863       -10.2006 
  25   1.0000      -0.373339       -10.1591 
  26   1.0000      -0.361642        -9.8408 
  27   1.0000      -0.360807        -9.8180 
  28   1.0000      -0.336150        -9.1471 
  29   1.0000      -0.329149        -8.9566 
  30   1.0000      -0.324957        -8.8425 
  31   1.0000      -0.268513        -7.3066 
  32   1.0000      -0.260531        -7.0894 
  33   1.0000      -0.107227        -2.9178 
  34   0.0000      -0.020068        -0.5461 
  35   0.0000       0.046445         1.2638 
  36   0.0000       0.060806         1.6546 
  37   0.0000       0.065545         1.7836 
  38   0.0000       0.089196         2.4271 
  39   0.0000       0.127486         3.4691 
  40   0.0000       0.134288         3.6542 
  41   0.0000       0.138384         3.7656 
  42   0.0000       0.179437         4.8827 
  43   0.0000       0.192934         5.2500 
  44   0.0000       0.193880         5.2758 

                 SPIN DOWN ORBITALS
  NO   OCC          E(Eh)            E(eV) 
   0   1.0000     -14.366372      -390.9289 
   1   1.0000     -14.366365      -390.9287 
   2   1.0000     -10.260222      -279.1948 
   3   1.0000     -10.260204      -279.1943 
   4   1.0000     -10.246388      -278.8184 
   5   1.0000     -10.240771      -278.6655 
   6   1.0000     -10.240765      -278.6654 
   7   1.0000     -10.224556      -278.2243 
   8   1.0000     -10.207648      -277.7642 
   9   1.0000     -10.207647      -277.7642 
  10   1.0000      -0.902732       -24.5646 
  11   1.0000      -0.899245       -24.4697 
  12   1.0000      -0.855353       -23.2753 
  13   1.0000      -0.764977       -20.8161 
  14   1.0000      -0.758428       -20.6379 
  15   1.0000      -0.634209       -17.2577 
  16   1.0000      -0.631877       -17.1943 
  17   1.0000      -0.568225       -15.4622 
  18   1.0000      -0.484294       -13.1783 
  19   1.0000      -0.479595       -13.0504 
  20   1.0000      -0.455351       -12.3907 
  21   1.0000      -0.429133       -11.6773 
  22   1.0000      -0.396199       -10.7811 
  23   1.0000      -0.374857       -10.2004 
  24   1.0000      -0.370093       -10.0707 
  25   1.0000      -0.363294        -9.8857 
  26   1.0000      -0.358828        -9.7642 
  27   1.0000      -0.358466        -9.7544 
  28   1.0000      -0.327575        -8.9138 
  29   1.0000      -0.323305        -8.7976 
  30   1.0000      -0.321743        -8.7551 
  31   1.0000      -0.257343        -7.0027 
  32   1.0000      -0.228377        -6.2144 
  33   0.0000      -0.018621        -0.5067 
  34   0.0000      -0.014923        -0.4061 
  35   0.0000       0.048297         1.3142 
  36   0.0000       0.063107         1.7172 
  37   0.0000       0.083252         2.2654 
  38   0.0000       0.090603         2.4654 
  39   0.0000       0.127474         3.4687 
  40   0.0000       0.140557         3.8247 
  41   0.0000       0.149659         4.0724 
  42   0.0000       0.180372         4.9082 
  43   0.0000       0.195614         5.3229 
*Only the first 10 virtual orbitals were printed.

                    ********************************
                    * MULLIKEN POPULATION ANALYSIS *
                    ********************************

--------------------------------------------
MULLIKEN ATOMIC CHARGES AND SPIN POPULATIONS
--------------------------------------------
   0 C :   -0.182147    0.108623
   1 C :   -0.185588    0.465038
   2 C :   -0.118870   -0.206786
   3 C :   -0.185596    0.465034
   4 C :   -0.182160    0.108626
   5 C :   -0.108026   -0.072282
   6 H :    0.111166    0.002630
   7 C :   -0.061160   -0.018512
   8 N :   -0.156112    0.105559
   9 H :    0.087699   -0.026146
  10 H :    0.110374    0.007318
  11 H :    0.087699   -0.026146
  12 C :   -0.061163   -0.018512
  13 N :   -0.156116    0.105557
Sum of atomic charges         :   -1.0000000
Sum of atomic spin populations:    1.0000000

-----------------------------------------------------
MULLIKEN REDUCED ORBITAL CHARGES AND SPIN POPULATIONS
-----------------------------------------------------
CHARGE
  0 C s       :     3.032026  s :     3.032026
      pz      :     1.173419  p :     3.106681
      px      :     0.962456
      py      :     0.970805
      dz2     :     0.003320  d :     0.043440
      dxz     :     0.005354
      dyz     :     0.008049
      dx2y2   :     0.012303
      dxy     :     0.014415

  1 C s       :     3.251108  s :     3.251108
      pz      :     1.140426  p :     2.899913
      px      :     0.854670
      py      :     0.904816
      dz2     :     0.003552  d :     0.034567
      dxz     :     0.003240
      dyz     :     0.005397
      dx2y2   :     0.011154
      dxy     :     0.011224

  2 C s       :     3.197306  s :     3.197306
      pz      :     0.989036  p :     2.880855
      px      :     0.978491
      py      :     0.913328
      dz2     :     0.003295  d :     0.040709
      dxz     :     0.011604
      dyz     :     0.001884
      dx2y2   :     0.014526
      dxy     :     0.009400

  3 C s       :     3.251112  s :     3.251112
      pz      :     1.140429  p :     2.899917
      px      :     0.854667
      py      :     0.904821
      dz2     :     0.003552  d :     0.034567
      dxz     :     0.003240
      dyz     :     0.005397
      dx2y2   :     0.011154
      dxy     :     0.011224

  4 C s       :     3.032029  s :     3.032029
      pz      :     1.173425  p :     3.106691
      px      :     0.962461
      py      :     0.970805
      dz2     :     0.003320  d :     0.043440
      dxz     :     0.005354
      dyz     :     0.008049
      dx2y2   :     0.012303
      dxy     :     0.014415

  5 C s       :     3.309134  s :     3.309134
      pz      :     0.943640  p :     2.758949
      px      :     0.967067
      py      :     0.848242
      dz2     :     0.003489  d :     0.039943
      dxz     :     0.011523
      dyz     :     0.001839
      dx2y2   :     0.013670
      dxy     :     0.009422

  6 H s       :     0.888834  s :     0.888834

  7 C s       :     3.089860  s :     3.089860
      pz      :     0.957613  p :     2.918265
      px      :     1.004620
      py      :     0.956033
      dz2     :     0.003303  d :     0.053034
      dxz     :     0.018337
      dyz     :     0.005934
      dx2y2   :     0.014668
      dxy     :     0.010792

  8 N s       :     3.562299  s :     3.562299
      pz      :     1.193361  p :     3.564162
      px      :     1.238621
      py      :     1.132180
      dz2     :     0.002782  d :     0.029651
      dxz     :     0.006780
      dyz     :     0.002323
      dx2y2   :     0.009225
      dxy     :     0.008542

  9 H s       :     0.912301  s :     0.912301

 10 H s       :     0.889626  s :     0.889626

 11 H s       :     0.912301  s :     0.912301

 12 C s       :     3.089865  s :     3.089865
      pz      :     0.957612  p :     2.918263
      px      :     1.004622
      py      :     0.956029
      dz2     :     0.003303  d :     0.053034
      dxz     :     0.018338
      dyz     :     0.005934
      dx2y2   :     0.014668
      dxy     :     0.010792

 13 N s       :     3.562301  s :     3.562301
      pz      :     1.193360  p :     3.564163
      px      :     1.238630
      py      :     1.132173
      dz2     :     0.002782  d :     0.029651
      dxz     :     0.006780
      dyz     :     0.002323
      dx2y2   :     0.009225
      dxy     :     0.008542


SPIN
  0 C s       :     0.013535  s :     0.013535
      pz      :     0.104726  p :     0.092240
      px      :     0.002332
      py      :    -0.014818
      dz2     :    -0.000368  d :     0.002847
      dxz     :    -0.000070
      dyz     :     0.003281
      dx2y2   :    -0.000124
      dxy     :     0.000130

  1 C s       :     0.070955  s :     0.070955
      pz      :     0.369008  p :     0.394968
      px      :     0.015665
      py      :     0.010295
      dz2     :    -0.001085  d :    -0.000885
      dxz     :    -0.000387
      dyz     :     0.000694
      dx2y2   :    -0.000152
      dxy     :     0.000045

  2 C s       :    -0.043691  s :    -0.043691
      pz      :    -0.124578  p :    -0.170534
      px      :    -0.031951
      py      :    -0.014005
      dz2     :     0.000273  d :     0.007440
      dxz     :     0.006854
      dyz     :     0.000140
      dx2y2   :     0.000110
      dxy     :     0.000063

  3 C s       :     0.070954  s :     0.070954
      pz      :     0.369006  p :     0.394965
      px      :     0.015665
      py      :     0.010295
      dz2     :    -0.001085  d :    -0.000885
      dxz     :    -0.000387
      dyz     :     0.000694
      dx2y2   :    -0.000152
      dxy     :     0.000045

  4 C s       :     0.013536  s :     0.013536
      pz      :     0.104729  p :     0.092243
      px      :     0.002332
      py      :    -0.014818
      dz2     :    -0.000368  d :     0.002847
      dxz     :    -0.000070
      dyz     :     0.003281
      dx2y2   :    -0.000124
      dxy     :     0.000130

  5 C s       :    -0.013579  s :    -0.013579
      pz      :    -0.044204  p :    -0.061688
      px      :    -0.017085
      py      :    -0.000400
      dz2     :     0.000100  d :     0.002985
      dxz     :     0.002921
      dyz     :     0.000002
      dx2y2   :    -0.000031
      dxy     :    -0.000007

  6 H s       :     0.002630  s :     0.002630

  7 C s       :    -0.011067  s :    -0.011067
      pz      :     0.004339  p :    -0.011606
      px      :    -0.008496
      py      :    -0.007449
      dz2     :    -0.000045  d :     0.004160
      dxz     :     0.003410
      dyz     :     0.000771
      dx2y2   :    -0.000010
      dxy     :     0.000034

  8 N s       :     0.005393  s :     0.005393
      pz      :     0.093913  p :     0.100463
      px      :     0.001431
      py      :     0.005120
      dz2     :    -0.000006  d :    -0.000297
      dxz     :    -0.000186
      dyz     :    -0.000065
      dx2y2   :    -0.000025
      dxy     :    -0.000015

  9 H s       :    -0.026146  s :    -0.026146

 10 H s       :     0.007318  s :     0.007318

 11 H s       :    -0.026146  s :    -0.026146

 12 C s       :    -0.011066  s :    -0.011066
      pz      :     0.004339  p :    -0.011606
      px      :    -0.008496
      py      :    -0.007449
      dz2     :    -0.000045  d :     0.004160
      dxz     :     0.003410
      dyz     :     0.000771
      dx2y2   :    -0.000010
      dxy     :     0.000034

 13 N s       :     0.005393  s :     0.005393
      pz      :     0.093911  p :     0.100461
      px      :     0.001430
      py      :     0.005120
      dz2     :    -0.000006  d :    -0.000297
      dxz     :    -0.000186
      dyz     :    -0.000065
      dx2y2   :    -0.000025
      dxy     :    -0.000015



                     *******************************
                     * LOEWDIN POPULATION ANALYSIS *
                     *******************************

-------------------------------------------
LOEWDIN ATOMIC CHARGES AND SPIN POPULATIONS
-------------------------------------------
   0 C :   -0.179552    0.104966
   1 C :   -0.222361    0.365119
   2 C :   -0.143105   -0.101146
   3 C :   -0.222364    0.365117
   4 C :   -0.179557    0.104968
   5 C :   -0.068810   -0.036542
   6 H :    0.145260    0.000748
   7 C :   -0.036093    0.012338
   8 N :   -0.225754    0.096598
   9 H :    0.129998   -0.012242
  10 H :    0.134185    0.003387
  11 H :    0.129998   -0.012243
  12 C :   -0.036091    0.012337
  13 N :   -0.225753    0.096596

----------------------------------------------------
LOEWDIN REDUCED ORBITAL CHARGES AND SPIN POPULATIONS
----------------------------------------------------
CHARGE
  0 C s       :     2.839381  s :     2.839381
      pz      :     1.131287  p :     3.227464
      px      :     1.031741
      py      :     1.064436
      dz2     :     0.008006  d :     0.112708
      dxz     :     0.011332
      dyz     :     0.016161
      dx2y2   :     0.035477
      dxy     :     0.041732

  1 C s       :     2.900716  s :     2.900716
      pz      :     1.133011  p :     3.235902
      px      :     1.073520
      py      :     1.029371
      dz2     :     0.006893  d :     0.085743
      dxz     :     0.006039
      dyz     :     0.011763
      dx2y2   :     0.030991
      dxy     :     0.030057

  2 C s       :     2.898209  s :     2.898209
      pz      :     0.977837  p :     3.144236
      px      :     1.094589
      py      :     1.071810
      dz2     :     0.006859  d :     0.100660
      dxz     :     0.025922
      dyz     :     0.002917
      dx2y2   :     0.037711
      dxy     :     0.027252

  3 C s       :     2.900716  s :     2.900716
      pz      :     1.133013  p :     3.235905
      px      :     1.073520
      py      :     1.029371
      dz2     :     0.006893  d :     0.085743
      dxz     :     0.006038
      dyz     :     0.011763
      dx2y2   :     0.030992
      dxy     :     0.030057

  4 C s       :     2.839380  s :     2.839380
      pz      :     1.131291  p :     3.227468
      px      :     1.031744
      py      :     1.064433
      dz2     :     0.008006  d :     0.112708
      dxz     :     0.011332
      dyz     :     0.016161
      dx2y2   :     0.035477
      dxy     :     0.041732

  5 C s       :     2.899128  s :     2.899128
      pz      :     0.943147  p :     3.072330
      px      :     1.052875
      py      :     1.076307
      dz2     :     0.006922  d :     0.097352
      dxz     :     0.024566
      dyz     :     0.002936
      dx2y2   :     0.035918
      dxy     :     0.027010

  6 H s       :     0.854740  s :     0.854740

  7 C s       :     2.914080  s :     2.914080
      pz      :     0.943418  p :     2.997648
      px      :     1.090511
      py      :     0.963718
      dz2     :     0.009844  d :     0.124366
      dxz     :     0.038390
      dyz     :     0.012583
      dx2y2   :     0.033323
      dxy     :     0.030226

  8 N s       :     3.426765  s :     3.426765
      pz      :     1.194478  p :     3.749306
      px      :     1.372551
      py      :     1.182277
      dz2     :     0.005979  d :     0.049683
      dxz     :     0.009590
      dyz     :     0.003285
      dx2y2   :     0.014172
      dxy     :     0.016658

  9 H s       :     0.870002  s :     0.870002

 10 H s       :     0.865815  s :     0.865815

 11 H s       :     0.870002  s :     0.870002

 12 C s       :     2.914080  s :     2.914080
      pz      :     0.943417  p :     2.997646
      px      :     1.090519
      py      :     0.963709
      dz2     :     0.009844  d :     0.124365
      dxz     :     0.038391
      dyz     :     0.012581
      dx2y2   :     0.033323
      dxy     :     0.030226

 13 N s       :     3.426765  s :     3.426765
      pz      :     1.194477  p :     3.749305
      px      :     1.372564
      py      :     1.182265
      dz2     :     0.005979  d :     0.049683
      dxz     :     0.009590
      dyz     :     0.003284
      dx2y2   :     0.014172
      dxy     :     0.016658


SPIN
  0 C s       :     0.002037  s :     0.002037
      pz      :     0.098025  p :     0.096923
      px      :     0.001185
      py      :    -0.002287
      dz2     :    -0.000390  d :     0.006006
      dxz     :    -0.000341
      dyz     :     0.006653
      dx2y2   :    -0.000006
      dxy     :     0.000091

  1 C s       :     0.013627  s :     0.013627
      pz      :     0.338799  p :     0.352516
      px      :     0.007632
      py      :     0.006085
      dz2     :    -0.001194  d :    -0.001024
      dxz     :    -0.001001
      dyz     :     0.002028
      dx2y2   :    -0.000543
      dxy     :    -0.000315

  2 C s       :    -0.007318  s :    -0.007318
      pz      :    -0.098163  p :    -0.112367
      px      :    -0.009424
      py      :    -0.004781
      dz2     :     0.000412  d :     0.018539
      dxz     :     0.016319
      dyz     :     0.000529
      dx2y2   :     0.000620
      dxy     :     0.000660

  3 C s       :     0.013627  s :     0.013627
      pz      :     0.338797  p :     0.352514
      px      :     0.007632
      py      :     0.006085
      dz2     :    -0.001194  d :    -0.001024
      dxz     :    -0.001000
      dyz     :     0.002028
      dx2y2   :    -0.000543
      dxy     :    -0.000315

  4 C s       :     0.002037  s :     0.002037
      pz      :     0.098027  p :     0.096925
      px      :     0.001185
      py      :    -0.002287
      dz2     :    -0.000390  d :     0.006006
      dxz     :    -0.000341
      dyz     :     0.006653
      dx2y2   :    -0.000007
      dxy     :     0.000091

  5 C s       :    -0.002795  s :    -0.002795
      pz      :    -0.035926  p :    -0.041080
      px      :    -0.003709
      py      :    -0.001445
      dz2     :     0.000138  d :     0.007333
      dxz     :     0.006946
      dyz     :     0.000097
      dx2y2   :     0.000062
      dxy     :     0.000090

  6 H s       :     0.000748  s :     0.000748

  7 C s       :    -0.002140  s :    -0.002140
      pz      :     0.010796  p :     0.003667
      px      :    -0.002749
      py      :    -0.004380
      dz2     :     0.000012  d :     0.010811
      dxz     :     0.008328
      dyz     :     0.002139
      dx2y2   :     0.000144
      dxy     :     0.000187

  8 N s       :     0.001616  s :     0.001616
      pz      :     0.089747  p :     0.095200
      px      :     0.001231
      py      :     0.004222
      dz2     :     0.000007  d :    -0.000217
      dxz     :    -0.000050
      dyz     :    -0.000023
      dx2y2   :    -0.000092
      dxy     :    -0.000058

  9 H s       :    -0.012242  s :    -0.012242

 10 H s       :     0.003387  s :     0.003387

 11 H s       :    -0.012243  s :    -0.012243

 12 C s       :    -0.002140  s :    -0.002140
      pz      :     0.010796  p :     0.003667
      px      :    -0.002749
      py      :    -0.004380
      dz2     :     0.000012  d :     0.010810
      dxz     :     0.008328
      dyz     :     0.002139
      dx2y2   :     0.000144
      dxy     :     0.000187

 13 N s       :     0.001616  s :     0.001616
      pz      :     0.089745  p :     0.095198
      px      :     0.001230
      py      :     0.004223
      dz2     :     0.000007  d :    -0.000217
      dxz     :    -0.000050
      dyz     :    -0.000023
      dx2y2   :    -0.000092
      dxy     :    -0.000059



                      *****************************
                      * MAYER POPULATION ANALYSIS *
                      *****************************

  NA   - Mulliken gross atomic population
  ZA   - Total nuclear charge
  QA   - Mulliken gross atomic charge
  VA   - Mayer's total valence
  BVA  - Mayer's bonded valence
  FA   - Mayer's free valence

  ATOM       NA         ZA         QA         VA         BVA        FA
  0 C      6.1821     6.0000    -0.1821     3.8660     3.8518     0.0142
  1 C      6.1856     6.0000    -0.1856     3.7706     3.6265     0.1441
  2 C      6.1189     6.0000    -0.1189     3.8448     3.8269     0.0179
  3 C      6.1856     6.0000    -0.1856     3.7706     3.6265     0.1441
  4 C      6.1822     6.0000    -0.1822     3.8660     3.8518     0.0142
  5 C      6.1080     6.0000    -0.1080     3.8776     3.8752     0.0024
  6 H      0.8888     1.0000     0.1112     0.9578     0.9578     0.0000
  7 C      6.0612     6.0000    -0.0612     4.0697     4.0690     0.0007
  8 N      7.1561     7.0000    -0.1561     3.0842     3.0752     0.0090
  9 H      0.9123     1.0000     0.0877     0.9579     0.9572     0.0007
 10 H      0.8896     1.0000     0.1104     0.9458     0.9457     0.0001
 11 H      0.9123     1.0000     0.0877     0.9579     0.9572     0.0007
 12 C      6.0612     6.0000    -0.0612     4.0697     4.0690     0.0007
 13 N      7.1561     7.0000    -0.1561     3.0842     3.0752     0.0090

  Mayer bond orders larger than 0.100000
B(  0-C ,  1-C ) :   1.1240 B(  0-C ,  5-C ) :   1.3800 B(  0-C , 12-C ) :   1.1697 
B(  1-C ,  2-C ) :   1.3900 B(  1-C , 11-H ) :   0.9676 B(  2-C ,  3-C ) :   1.3900 
B(  2-C , 10-H ) :   0.9563 B(  3-C ,  4-C ) :   1.1240 B(  3-C ,  9-H ) :   0.9676 
B(  4-C ,  5-C ) :   1.3800 B(  4-C ,  7-C ) :   1.1697 B(  5-C ,  6-H ) :   0.9600 
B(  7-C ,  8-N ) :   2.8934 B( 12-C , 13-N ) :   2.8934 

-------
TIMINGS
-------

Total SCF time: 0 days 0 hours 2 min 7 sec 

Total time                  ....     127.631 sec
Sum of individual times     ....     122.010 sec  ( 95.6%)

SCF preparation             ....       1.409 sec  (  1.1%)
Fock matrix formation       ....      71.452 sec  ( 56.0%)
  Startup                   ....       9.861 sec  ( 13.8% of F)
  Split-RI-J                ....      10.329 sec  ( 14.5% of F)
  Chain of spheres X        ....      24.021 sec  ( 33.6% of F)
  XC integration            ....      10.375 sec  ( 14.5% of F)
    XC Preparation          ....       0.000 sec  (  0.0% of XC)
    Basis function eval.    ....       0.705 sec  (  6.8% of XC)
    Density eval.           ....       0.598 sec  (  5.8% of XC)
    XC-Functional eval.     ....       0.207 sec  (  2.0% of XC)
    XC-Potential eval.      ....       0.631 sec  (  6.1% of XC)
  CPCM terms                ....       4.195 sec  (  5.9% of F)
Diagonalization             ....       0.000 sec  (  0.0%)
Density matrix formation    ....      14.308 sec  ( 11.2%)
Total Energy calculation    ....       9.165 sec  (  7.2%)
Population analysis         ....       1.372 sec  (  1.1%)
Orbital Transformation      ....       1.217 sec  (  1.0%)
Orbital Orthonormalization  ....       0.000 sec  (  0.0%)
DIIS solution               ....      17.911 sec  ( 14.0%)
SOSCF solution              ....       5.176 sec  (  4.1%)
Finished LeanSCF after 128.5 sec

Maximum memory used throughout the entire LEANSCF-calculation: 16.2 MB


-------------------------------------------------------------------------------
                          DFT DISPERSION CORRECTION                            
                                                                               
                              DFTD3 V3.1  Rev 1                                
                          USING Becke-Johnson damping                          
-------------------------------------------------------------------------------
The PBE0 functional is recognized
Active option DFTDOPT                   ...         4   

molecular C6(AA) [au] = 3294.364927 


            DFT-D V3
 parameters
 s6 scaling factor         :     1.0000 
 a1 scaling factor         :     0.4145 
 s8 scaling factor         :     1.2177 
 a2 scaling factor         :     4.8593 
 ad hoc parameters k1-k3   :    16.0000     1.3333    -4.0000 

 Edisp/kcal,au: -8.866520966598  -0.014129699052 
 E6   /kcal   :  -5.417474359 
 E8   /kcal   :  -3.449046608 
 % E8         :  38.899661102 

-------------------------   ----------------
Dispersion correction           -0.014129699
-------------------------   ----------------


-------------------------   --------------------
FINAL SINGLE POINT ENERGY      -416.041782944027
-------------------------   --------------------



           ************************************************************
           *        Program running with 8 parallel MPI-processes     *
           *              working on a common directory               *
           ************************************************************
------------------------------------------------------------------------------
                         ORCA SCF GRADIENT CALCULATION
------------------------------------------------------------------------------

Nuc. rep. gradient        (SHARK) ... done (  0.0 sec)
HCore & Overlap gradient  (SHARK) ... done (  0.1 sec)
Split-RIJ-J gradient      (SHARK) ... done (  0.6 sec)
COSX-gradient                     ... done (  5.1 sec)
XC gradient                       ... done (  1.4 sec)
CPCM gradient                     ... done (  0.1 sec)
SMD gradient                      ... done (  0.1 sec)
Dispersion correction             ... done (  0.1 sec)

-------------------
DISPERSION GRADIENT
-------------------

   1   C   :   -0.000180691   -0.000046185   -0.000000004
   2   C   :   -0.000133292    0.000195667   -0.000000003
   3   C   :    0.000000006    0.000274344   -0.000000001
   4   C   :    0.000133301    0.000195659    0.000000001
   5   C   :    0.000180689   -0.000046193    0.000000003
   6   C   :   -0.000000004   -0.000144730   -0.000000001
   7   H   :   -0.000000004   -0.000161868   -0.000000000
   8   C   :    0.000312352   -0.000171512    0.000000009
   9   N   :    0.000292320   -0.000169294    0.000000010
  10   H   :    0.000110773    0.000127362    0.000000001
  11   H   :    0.000000004    0.000160163   -0.000000001
  12   H   :   -0.000110767    0.000127368   -0.000000002
  13   C   :   -0.000312359   -0.000171499   -0.000000007
  14   N   :   -0.000292327   -0.000169282   -0.000000007

Difference to translation invariance:
           :    0.0000000000    0.0000000000    0.0000000000

Difference to rotation invariance:
           :   -0.0000000000    0.0000000000   -0.0000000000

Norm of the Dispersion gradient    ...    0.0009321486
RMS gradient                       ...    0.0001438336
MAX gradient                       ...    0.0003123594

------------------
CARTESIAN GRADIENT
------------------

   1   C   :   -0.000045546   -0.000296194   -0.000000129
   2   C   :    0.001852298    0.000062509   -0.000002737
   3   C   :   -0.000000917   -0.002207312   -0.000000001
   4   C   :   -0.001852052    0.000062493    0.000002647
   5   C   :    0.000045865   -0.000294876   -0.000000912
   6   C   :   -0.000000207    0.004788701   -0.000000655
   7   H   :   -0.000000429    0.000087021   -0.000000104
   8   C   :    0.001877340   -0.000435777    0.000000572
   9   N   :    0.000747554   -0.000530129   -0.000000822
  10   H   :    0.000186987   -0.000536670   -0.000009219
  11   H   :    0.000000671    0.000802599    0.000000223
  12   H   :   -0.000187091   -0.000536247    0.000009350
  13   C   :   -0.001876542   -0.000434972    0.000000642
  14   N   :   -0.000747930   -0.000531146    0.000001145

Difference to translation invariance:
           :    0.0000000000   -0.0000000000    0.0000000000

Difference to rotation invariance:
           :    0.0000003350    0.0000791756    0.0000021294

Norm of the Cartesian gradient     ...    0.0067272163
RMS gradient                       ...    0.0010380320
MAX gradient                       ...    0.0047887008

-------
TIMINGS
-------

Total SCF gradient time     ....        7.539 sec

Densities                   ....       0.001 sec  (  0.0%)
One electron gradient       ....       0.051 sec  (  0.7%)
RI-J Coulomb gradient       ....       0.600 sec  (  8.0%)
COSX gradient               ....       5.105 sec  ( 67.7%)
XC gradient                 ....       1.377 sec  ( 18.3%)
CPCM gradient               ....       0.091 sec  (  1.2%)
   A-Matrix (El+Nuc)        ....       0.013 sec  (  0.2%)
   Potential                ....       0.079 sec  (  1.0%)
SMD gradient                ....       0.060 sec  (  0.8%)

Maximum memory used throughout the entire SCFGRAD-calculation: 28.6 MB
------------------------------------------------------------------------------
                         ORCA GEOMETRY RELAXATION STEP
------------------------------------------------------------------------------

Reading the OPT-File                    .... done
Getting information on internals        .... done
Copying old internal coords+grads       .... done
Making the new internal coordinates     .... (2022 redundants) done
Validating the new internal coordinates .... (2022 redundants) done
Calculating the B-matrix                .... done
Calculating the G,G- and P matrices     .... done
Transforming gradient to internals      .... done
Projecting the internal gradient        .... done
Number of atoms                         ....  14
Number of internal coordinates          ....  60
Current Energy                          ....  -416.041782944 Eh
Current gradient norm                   ....     0.006727216 Eh/bohr
Maximum allowed component of the step   ....  0.300
Current trust radius                    ....  0.300
Evaluating the initial hessian          ....  (Almloef) done
Projecting the Hessian                  .... done
Forming the augmented Hessian           .... done
Diagonalizing the augmented Hessian     .... done
Last element of RFO vector              ....  0.999888982
Lowest eigenvalues of augmented Hessian:
 -0.000099923  0.019556100  0.019601066  0.021104476  0.021233430
Length of the computed step             ....  0.014902145
The final length of the internal step   ....  0.014902145
Converting the step to Cartesian space:
 Initial RMS(Int)=    0.0019238587
Transforming coordinates:
 Iter   0:  RMS(Cart)=    0.0037304200 RMS(Int)=    2.5650423039
done
Storing new coordinates                 .... done

                                .--------------------.
          ----------------------|Geometry convergence|-------------------------
          Item                value                   Tolerance       Converged
          ---------------------------------------------------------------------
          RMS gradient        0.0008844813            0.0001000000      NO
          MAX gradient        0.0027456406            0.0003000000      NO
          RMS step            0.0019238587            0.0020000000      YES
          MAX step            0.0064206640            0.0040000000      NO
          ........................................................
          Max(Bonds)      0.0025      Max(Angles)    0.37
          Max(Dihed)        0.01      Max(Improp)    0.00
          ---------------------------------------------------------------------

The optimization has not yet converged - more geometry cycles are needed


    ---------------------------------------------------------------------------
                         Redundant Internal Coordinates
                            (Angstroem and degrees)

        Definition                    Value    dE/dq     Step     New-Value
    ----------------------------------------------------------------------------
     1. B(C   1,C   0)                1.4547 -0.001173  0.0013    1.4559   
     2. B(C   2,C   1)                1.3915 -0.000702  0.0006    1.3921   
     3. B(C   3,C   2)                1.3915 -0.000702  0.0006    1.3921   
     4. B(C   4,C   3)                1.4547 -0.001174  0.0013    1.4559   
     5. B(C   5,C   4)                1.4000  0.000066 -0.0001    1.4000   
     6. B(C   5,C   0)                1.4000  0.000065 -0.0001    1.4000   
     7. B(H   6,C   5)                1.0945 -0.000087  0.0001    1.0946   
[...]
      pz      :     0.976738  p :     3.143438
      px      :     1.094610
      py      :     1.072090
      dz2     :     0.006851  d :     0.100437
      dxz     :     0.025812
      dyz     :     0.002921
      dx2y2   :     0.037642
      dxy     :     0.027211

  3 C s       :     2.901182  s :     2.901182
      pz      :     1.133553  p :     3.235868
      px      :     1.073585
      py      :     1.028730
      dz2     :     0.006877  d :     0.085447
      dxz     :     0.006003
      dyz     :     0.011694
      dx2y2   :     0.030869
      dxy     :     0.030005

  4 C s       :     2.839149  s :     2.839149
      pz      :     1.130548  p :     3.227045
      px      :     1.032341
      py      :     1.064156
      dz2     :     0.008021  d :     0.112929
      dxz     :     0.011378
      dyz     :     0.016205
      dx2y2   :     0.035406
      dxy     :     0.041919

  5 C s       :     2.899472  s :     2.899472
      pz      :     0.943089  p :     3.071967
      px      :     1.052344
      py      :     1.076534
      dz2     :     0.006921  d :     0.097250
      dxz     :     0.024407
      dyz     :     0.002994
      dx2y2   :     0.035707
      dxy     :     0.027220

  6 H s       :     0.853773  s :     0.853773

  7 C s       :     2.913269  s :     2.913269
      pz      :     0.943387  p :     2.998151
      px      :     1.090798
      py      :     0.963967
      dz2     :     0.009873  d :     0.125027
      dxz     :     0.038597
      dyz     :     0.012674
      dx2y2   :     0.033585
      dxy     :     0.030298

  8 N s       :     3.426365  s :     3.426365
      pz      :     1.195109  p :     3.750786
      px      :     1.372570
      py      :     1.183107
      dz2     :     0.005979  d :     0.049693
      dxz     :     0.009589
      dyz     :     0.003289
      dx2y2   :     0.014175
      dxy     :     0.016661

  9 H s       :     0.869663  s :     0.869663

 10 H s       :     0.865768  s :     0.865768

 11 H s       :     0.869663  s :     0.869663

 12 C s       :     2.913269  s :     2.913269
      pz      :     0.943386  p :     2.998150
      px      :     1.090806
      py      :     0.963959
      dz2     :     0.009873  d :     0.125027
      dxz     :     0.038599
      dyz     :     0.012672
      dx2y2   :     0.033585
      dxy     :     0.030298

 13 N s       :     3.426364  s :     3.426364
      pz      :     1.195107  p :     3.750784
      px      :     1.372583
      py      :     1.183095
      dz2     :     0.005979  d :     0.049693
      dxz     :     0.009590
      dyz     :     0.003288
      dx2y2   :     0.014176
      dxy     :     0.016660


SPIN
  0 C s       :     0.002015  s :     0.002015
      pz      :     0.097961  p :     0.096844
      px      :     0.001183
      py      :    -0.002300
      dz2     :    -0.000391  d :     0.005988
      dxz     :    -0.000344
      dyz     :     0.006634
      dx2y2   :    -0.000004
      dxy     :     0.000091

  1 C s       :     0.013651  s :     0.013651
      pz      :     0.338973  p :     0.352714
      px      :     0.007656
      py      :     0.006084
      dz2     :    -0.001194  d :    -0.001026
      dxz     :    -0.000996
      dyz     :     0.002021
      dx2y2   :    -0.000540
      dxy     :    -0.000317

  2 C s       :    -0.007327  s :    -0.007327
      pz      :    -0.098339  p :    -0.112579
      px      :    -0.009461
      py      :    -0.004779
      dz2     :     0.000412  d :     0.018459
      dxz     :     0.016240
      dyz     :     0.000531
      dx2y2   :     0.000615
      dxy     :     0.000661

  3 C s       :     0.013651  s :     0.013651
      pz      :     0.338972  p :     0.352712
      px      :     0.007656
      py      :     0.006084
      dz2     :    -0.001194  d :    -0.001026
      dxz     :    -0.000996
      dyz     :     0.002021
      dx2y2   :    -0.000540
      dxy     :    -0.000317

  4 C s       :     0.002015  s :     0.002015
      pz      :     0.097965  p :     0.096848
      px      :     0.001183
      py      :    -0.002300
      dz2     :    -0.000391  d :     0.005987
      dxz     :    -0.000344
      dyz     :     0.006634
      dx2y2   :    -0.000004
      dxy     :     0.000091

  5 C s       :    -0.002789  s :    -0.002789
      pz      :    -0.035947  p :    -0.041117
      px      :    -0.003737
      py      :    -0.001433
      dz2     :     0.000138  d :     0.007332
      dxz     :     0.006941
      dyz     :     0.000101
      dx2y2   :     0.000054
      dxy     :     0.000097

  6 H s       :     0.000738  s :     0.000738

  7 C s       :    -0.002127  s :    -0.002127
      pz      :     0.010645  p :     0.003537
      px      :    -0.002740
      py      :    -0.004368
      dz2     :     0.000012  d :     0.010860
      dxz     :     0.008366
      dyz     :     0.002150
      dx2y2   :     0.000144
      dxy     :     0.000188

  8 N s       :     0.001618  s :     0.001618
      pz      :     0.089901  p :     0.095350
      px      :     0.001232
      py      :     0.004217
      dz2     :     0.000007  d :    -0.000219
      dxz     :    -0.000051
      dyz     :    -0.000023
      dx2y2   :    -0.000092
      dxy     :    -0.000059

  9 H s       :    -0.012251  s :    -0.012251

 10 H s       :     0.003377  s :     0.003377

 11 H s       :    -0.012251  s :    -0.012251

 12 C s       :    -0.002127  s :    -0.002127
      pz      :     0.010644  p :     0.003536
      px      :    -0.002740
      py      :    -0.004368
      dz2     :     0.000012  d :     0.010860
      dxz     :     0.008366
      dyz     :     0.002150
      dx2y2   :     0.000144
      dxy     :     0.000188

 13 N s       :     0.001618  s :     0.001618
      pz      :     0.089899  p :     0.095347
      px      :     0.001232
      py      :     0.004217
      dz2     :     0.000007  d :    -0.000219
      dxz     :    -0.000051
      dyz     :    -0.000023
      dx2y2   :    -0.000092
      dxy     :    -0.000059



                      *****************************
                      * MAYER POPULATION ANALYSIS *
                      *****************************

  NA   - Mulliken gross atomic population
  ZA   - Total nuclear charge
  QA   - Mulliken gross atomic charge
  VA   - Mayer's total valence
  BVA  - Mayer's bonded valence
  FA   - Mayer's free valence

  ATOM       NA         ZA         QA         VA         BVA        FA
  0 C      6.1823     6.0000    -0.1823     3.8650     3.8508     0.0142
  1 C      6.1854     6.0000    -0.1854     3.7697     3.6254     0.1442
  2 C      6.1185     6.0000    -0.1185     3.8476     3.8297     0.0180
  3 C      6.1854     6.0000    -0.1854     3.7697     3.6254     0.1442
  4 C      6.1823     6.0000    -0.1823     3.8650     3.8508     0.0142
  5 C      6.1081     6.0000    -0.1081     3.8757     3.8734     0.0024
  6 H      0.8869     1.0000     0.1131     0.9577     0.9577     0.0000
  7 C      6.0623     6.0000    -0.0623     4.0735     4.0728     0.0007
  8 N      7.1566     7.0000    -0.1566     3.0838     3.0747     0.0091
  9 H      0.9116     1.0000     0.0884     0.9579     0.9572     0.0007
 10 H      0.8898     1.0000     0.1102     0.9458     0.9458     0.0001
 11 H      0.9116     1.0000     0.0884     0.9579     0.9572     0.0007
 12 C      6.0623     6.0000    -0.0623     4.0735     4.0728     0.0007
 13 N      7.1566     7.0000    -0.1566     3.0838     3.0747     0.0091

  Mayer bond orders larger than 0.100000
B(  0-C ,  1-C ) :   1.1226 B(  0-C ,  5-C ) :   1.3774 B(  0-C , 12-C ) :   1.1730 
B(  1-C ,  2-C ) :   1.3907 B(  1-C , 11-H ) :   0.9673 B(  2-C ,  3-C ) :   1.3907 
B(  2-C , 10-H ) :   0.9564 B(  3-C ,  4-C ) :   1.1226 B(  3-C ,  9-H ) :   0.9673 
B(  4-C ,  5-C ) :   1.3774 B(  4-C ,  7-C ) :   1.1730 B(  5-C ,  6-H ) :   0.9603 
B(  7-C ,  8-N ) :   2.8923 B( 12-C , 13-N ) :   2.8923 

-------
TIMINGS
-------

Total SCF time: 0 days 0 hours 0 min 22 sec 

Total time                  ....      22.598 sec
Sum of individual times     ....      20.118 sec  ( 89.0%)

SCF preparation             ....       1.516 sec  (  6.7%)
Fock matrix formation       ....      12.121 sec  ( 53.6%)
  Startup                   ....       2.729 sec  ( 22.5% of F)
  Split-RI-J                ....       1.263 sec  ( 10.4% of F)
  Chain of spheres X        ....       4.034 sec  ( 33.3% of F)
  XC integration            ....       1.286 sec  ( 10.6% of F)
    XC Preparation          ....       0.000 sec  (  0.0% of XC)
    Basis function eval.    ....       0.115 sec  (  8.9% of XC)
    Density eval.           ....       0.104 sec  (  8.1% of XC)
    XC-Functional eval.     ....       0.035 sec  (  2.7% of XC)
    XC-Potential eval.      ....       0.122 sec  (  9.5% of XC)
  CPCM terms                ....       1.181 sec  (  9.7% of F)
Diagonalization             ....       0.000 sec  (  0.0%)
Density matrix formation    ....       1.482 sec  (  6.6%)
Total Energy calculation    ....       1.257 sec  (  5.6%)
Population analysis         ....       1.329 sec  (  5.9%)
Orbital Transformation      ....       0.412 sec  (  1.8%)
Orbital Orthonormalization  ....       0.000 sec  (  0.0%)
DIIS solution               ....       0.510 sec  (  2.3%)
SOSCF solution              ....       1.491 sec  (  6.6%)
Finished LeanSCF after  23.4 sec

Maximum memory used throughout the entire LEANSCF-calculation: 16.6 MB


-------------------------------------------------------------------------------
                          DFT DISPERSION CORRECTION                            
                                                                               
                              DFTD3 V3.1  Rev 1                                
                          USING Becke-Johnson damping                          
-------------------------------------------------------------------------------
The PBE0 functional is recognized
Active option DFTDOPT                   ...         4   

molecular C6(AA) [au] = 3294.202460 


            DFT-D V3
 parameters
 s6 scaling factor         :     1.0000 
 a1 scaling factor         :     0.4145 
 s8 scaling factor         :     1.2177 
 a2 scaling factor         :     4.8593 
 ad hoc parameters k1-k3   :    16.0000     1.3333    -4.0000 

 Edisp/kcal,au: -8.873762062384  -0.014141238471 
 E6   /kcal   :  -5.421558664 
 E8   /kcal   :  -3.452203398 
 % E8         :  38.903492948 

-------------------------   ----------------
Dispersion correction           -0.014141238
-------------------------   ----------------


-------------------------   --------------------
FINAL SINGLE POINT ENERGY      -416.041864783108
-------------------------   --------------------

                                *** OPTIMIZATION RUN DONE ***



           ************************************************************
           *        Program running with 8 parallel MPI-processes     *
           *              working on a common directory               *
           ************************************************************

------------------------------------------------------------------------------
                              ORCA PROPERTY CALCULATIONS
------------------------------------------------------------------------------

GBWName                                 ... cs_rporg_162_red_opt_03.gbw
Number of atoms                         ...     14
Number of basis functions               ...    148
Max core memory                         ...   3500 MB

Electric properties:
Dipole moment                           ... YES
Quadrupole moment                       ...  NO
Static polarizability (Dipole/Dipole)   ...  NO
Static polarizability (Dipole/Quad.)    ...  NO
Static polarizability (Quad./Quad.)     ...  NO
Static polarizability (Velocity)        ...  NO

Atomic electric properties:
Dipole moment                           ...  NO
Quadrupole moment                       ...  NO
Static polarizability                   ...  NO

Choice of electric origin               ... Center of mass
Position of electric origin             ...    -0.000003    -0.027561     0.000010

General magnetic properties:
Magnetizability                         ...  NO

EPR properties:
g-Tensor (aka g-matrix)                 ...  NO
Zero-Field splitting spin-orbit         ...  NO
Zero-field splitting spin-spin          ...  NO
Hyperfine couplings                     ...  NO (   0 nuclei)
Quadrupole couplings                    ...  NO (   0 nuclei)
Contact density                         ...  NO (   0 nuclei)

NMR properties:
Chemical shifts                         ...  NO (   0 nuclei)
Spin-rotation constants                 ...  NO (   0 nuclei)
Spin-spin couplings                     ...  NO (   0 nuclei,    0 pairs)

Choice of magnetic origin               ... GIAO
Position of magnetic origin             ...     0.000000     0.000000     0.000000

Properties with geometric perturbations:
SCF Hessian                             ...  NO
IR spectrum                             ...  NO
VCD spectrum                            ...  NO
X-ray spectroscopy properties:
SCF XES/XAS/RIXS spectra                ...  NO


-------------
DIPOLE MOMENT
-------------

Method             : SCF
Type of density    : Electron Density
Multiplicity       :   2
Irrep              :   0
Energy             :  -416.0277235446361033 Eh
Relativity type    : 
Basis              : AO
                                X                 Y                 Z
Electronic contribution:     -0.000122643      -3.405315059       0.000010378
Nuclear contribution   :      0.000108938       5.002510224      -0.000022192
                        -----------------------------------------
Total Dipole Moment    :     -0.000013705       1.597195165      -0.000011814
                        -----------------------------------------
Magnitude (a.u.)       :      1.597195166
Magnitude (Debye)      :      4.059747477



--------------------
Rotational spectrum 
--------------------
 
Rotational constants in cm-1:             0.086792             0.030455             0.022545 
Rotational constants in MHz :          2601.952900           913.031680           675.867961 

Dipole components along the rotational axes: 
x,y,z [a.u.] :    -0.000050    -1.597195    -0.000006 
x,y,z [Debye]:    -0.000126    -4.059747    -0.000015 

 

Dipole moment calculation done in   0.3 sec 

Maximum memory used throughout the entire PROP-calculation: 7.2 MB

--------------------------------
SUGGESTED CITATIONS FOR THIS RUN
--------------------------------

Below you find a list of papers that are relevant to this ORCA run
We neither can nor want to force you to cite these papers, but we appreciate if you do
You receive ORCA, which is the product of decades of hard work by many enthusiastic individuals, for free
The only thing we kindly ask in return is that you cite our papers,
We deeply appreciate it, if you show your appreciation for ORCA by not just citing the generic ORCA reference.

Please note that relegating all ORCA citations to the supporting information does *not* help us.
SI sections are not indexed - citations you put there will not count into any citation statistics
But we need these citations in order to attract the funding resources that allow us to do what we are doing

Therefore, if you are a happy ORCA user, please consider citing a few of the papers listed below in the main body of your paper

In addition to the list printed below, the program has created the file cs_rporg_162_red_opt_03.bibtex that contains the list in bibtex format
You can import this file easily into all common literature databanks and citation aid programs


List of essential papers. We consider these as the minimum necessary citations

  1. Neese,F.
     Software update: the ORCA program system, version 5.0
     WIRES Comput. Molec. Sci., 2022 12(1)e1606
     doi.org/10.1002/wcms.1606

List of papers to cite with high priority. The work reported in these papers was absolutely
necessary for this run to complete.
Our perspective: the developers of density functionals and basis sets usually get cited in chemistry papers
Good! But without the algorithms to do something with them, the functionals or basis sets would not do anything.
Hence, in our opinion, the algorithm design and method developments papers are equally worthy of getting cited

  1. Neese,F.
     An improvement of the resolution of the identity approximation for the formation of the Coulomb matrix
     J. Comp. Chem., 2003 24(14)1740-1747
     doi.org/10.1002/jcc.10318
  2. Neese,F.; Wennmohs,F.; Hansen,A.; Becker,U.
     Efficient, approximate and parallel Hartree-Fock and hybrid DFT calculations. A 'chain-of-spheres' algorithm for the Hartree-Fock exchange
     Chem. Phys., 2009 356(1-3)98-109
     doi.org/10.1016/j.chemphys.2008.10.036
  3. Garcia-Rates,M.; Neese,F.
     Effect of the Solute Cavity on the Solvation Energy and its Derivatives within the Framework of the Gaussian Charge Scheme
     J. Comput. Chem., 2020 41 922-939
     doi.org/10.1002/jcc.26139
  4. Helmich-Paris,B.; de Souza,B.; Neese,F.; Izsák,R.
     An improved chain of spheres for exchange algorithm
     J. Chem. Phys., 2021 155 104109
     doi.org/doi: 10.1063/5.0058766.
  5. Neese,F.
     The SHARK Integral Generation and Digestion System
     J. Comp. Chem., 2022  1-16
     doi.org/10.1002/jcc.26942
  6. Grimme,S.; Antony,J.; Ehrlich,S.; Krieg,H.
     A consistent and accurate ab initio parametrization of density functional dispersion correction (DFT-D) for the 94 elements H-Pu
     J. Chem. Phys., 2010 132 154104-XXXX
     doi.org/10.1063/1.3382344
  7. Grimme,S.; Ehrlich,S.; Goerigk,L.
     Effect of the damping function in dispersion corrected density functional theory
     J. Comput. Chem., 2011 32(7)1456-1465
     doi.org/10.1002/jcc.21759

List of suggested additional citations. These are papers that are important in the 'surrounding' of 
of this run, or papers that preceded the highly important papers. If you like your results we are grateful for a citation.

  1. Izsak,R.; Neese,F.
     An overlap fitted chain of spheres exchange method
     J. Chem. Phys., 2011 135 144105
     doi.org/10.1063/1.3646921
  2. Izsak,R.; Hansen,A.; Neese,F.
     The resolution of identity and chain of spheres approximations for the LPNO-CCSD singles Fock term
     Molec. Phys., 2012 110 2413-2417
     doi.org/10.1080/00268976.2012.687466
  3. Neese,F.
     The ORCA program system
     WIRES Comput. Molec. Sci., 2012 2(1)73-78
     doi.org/10.1002/wcms.81
  4. Izsak,R.; Neese,F.; Klopper,W.
     Robust fitting techniques in the chain of spheres approximation to the Fock exchange: The role of the complementary space
     J. Chem. Phys., 2013 139 
     doi.org/10.1063/1.4819264
  5. Neese,F.
     Software update: the ORCA program system, version 4.0
     WIRES Comput. Molec. Sci., 2018 8(1)1-6
     doi.org/10.1002/wcms.1327
  6. Neese,F.; Wennmohs,F.; Becker,U.; Riplinger,C.
     The ORCA quantum chemistry program package
     J. Chem. Phys., 2020 152 Art. No. L224108
     doi.org/10.1063/5.0004608

List of optional additional citations

  1. Neese,F.
     Approximate second-order SCF convergence for spin unrestricted wavefunctions
     Chem. Phys. Lett., 2000 325(1-3)93-98
     doi.org/10.1016/s0009-2614(00)00662-x

Timings for individual modules:

Sum of individual times          ...      317.231 sec (=   5.287 min)
Startup calculation              ...       22.058 sec (=   0.368 min)   7.0 %
SCF iterations                   ...      262.640 sec (=   4.377 min)  82.8 %
Property calculations            ...        2.066 sec (=   0.034 min)   0.7 %
SCF Gradient evaluation          ...       30.147 sec (=   0.502 min)   9.5 %
Geometry relaxation              ...        0.320 sec (=   0.005 min)   0.1 %
                             ****ORCA TERMINATED NORMALLY****
TOTAL RUN TIME: 0 days 0 hours 5 minutes 35 seconds 261 msec
