 vasp.6.4.2 20Jul23 (build Oct 03 2024 14:39:03) complex                        
  
 executed on             LinuxIFC date 2025.08.15  10:11:59
 running   60 mpi-ranks, on    2 nodes
 distrk:  each k-point on   60 cores,    1 groups
 distr:  one band on NCORE=  30 cores,    2 groups


--------------------------------------------------------------------------------------------------------


 INCAR:
   SYSTEM = 001
   ISTART = 1
   ICHARG = 2
   INIWAV = 1
   LHFCALC = .TRUE.
   HFSCREEN = 0.2
   NELM = 100
   ALGO = Damped  	
   ISPIN = 2
   EDIFF = 1E-05
   ISMEAR = 0
   SIGMA = 0.05
   PREC = accurate
   ENCUT = 500
   LREAL = auto  	
   LDIAG = .FALSE.
   LWAVE = .TRUE.
   LCHARG = .FALSE.
   LAECHG = .FALSE.
   LVHAR = .FALSE.
   LVTOT = .FALSE.
   EDIFFG = -0.02
   IBRION = 2
   NSW = 500
   ISIF = 2
   POTIM = 0.5
   IVDW = 12
   VDW_A1 = 0.383
   VDW_S8 = 2.310
   VDW_A2 = 5.685
   LPLANE = .TRUE.
   NCORE = 30
   LSCALU = .FALSE.
   NSIM = 4
   LSOL = .TRUE.
   EB_K = 35.6880
   LAMBDA_D_K = 3.04
   TAU = 0

 POTCAR:    PAW_PBE C 08Apr2002                   
 POTCAR:    PAW_PBE H 15Jun2001                   
 -----------------------------------------------------------------------------
|                                                                             |
|           W    W    AA    RRRRR   N    N  II  N    N   GGGG   !!!           |
|           W    W   A  A   R    R  NN   N  II  NN   N  G    G  !!!           |
|           W    W  A    A  R    R  N N  N  II  N N  N  G       !!!           |
|           W WW W  AAAAAA  RRRRR   N  N N  II  N  N N  G  GGG   !            |
|           WW  WW  A    A  R   R   N   NN  II  N   NN  G    G                |
|           W    W  A    A  R    R  N    N  II  N    N   GGGG   !!!           |
|                                                                             |
|     You use a magnetic or noncollinear calculation, but did not specify     |
|     the initial magnetic moment with the MAGMOM tag. Note that a            |
|     default of 1 will be used for all atoms. This ferromagnetic setup       |
|     may break the symmetry of the crystal, in particular it may rule        |
|     out finding an antiferromagnetic solution. Thence, we recommend         |
|     setting the initial magnetic moment manually or verifying carefully     |
|     that this magnetic setup is desired.                                    |
|                                                                             |
 -----------------------------------------------------------------------------

 -----------------------------------------------------------------------------
|                                                                             |
|           W    W    AA    RRRRR   N    N  II  N    N   GGGG   !!!           |
|           W    W   A  A   R    R  NN   N  II  NN   N  G    G  !!!           |
|           W    W  A    A  R    R  N N  N  II  N N  N  G       !!!           |
|           W WW W  AAAAAA  RRRRR   N  N N  II  N  N N  G  GGG   !            |
|           WW  WW  A    A  R   R   N   NN  II  N   NN  G    G                |
|           W    W  A    A  R    R  N    N  II  N    N   GGGG   !!!           |
|                                                                             |
|     For optimal performance we recommend to set                             |
|       NCORE = 2 up to number-of-cores-per-socket                            |
|     NCORE specifies how many cores store one orbital (NPAR=cpu/NCORE).      |
|     This setting can greatly improve the performance of VASP for DFT.       |
|     The default, NCORE=1 might be grossly inefficient on modern             |
|     multi-core architectures or massively parallel machines. Do your        |
|     own testing! More info at https://www.vasp.at/wiki/index.php/NCORE      |
|     Unfortunately you need to use the default for GW and RPA                |
|     calculations (for HF NCORE is supported but not extensively tested      |
|     yet).                                                                   |
|                                                                             |
 -----------------------------------------------------------------------------

 POTCAR:    PAW_PBE C 08Apr2002                   
   SHA256 =  253f7b50bb8d59471dbedb8285d89021f4a42ed1a2c5d38a03a736e69125dd95 C/POTCAR              
   COPYR  = (c) Copyright 08Apr2002 Georg Kresse                                                    
   COPYR  = This file is part of the software VASP. Any use, copying, and all other rights are regul
   COPYR  = If you do not have a valid VASP license, you may not use, copy or distribute this file. 
   VRHFIN =C: s2p2                                                                                  
   LEXCH  = PE                                                                                      
   EATOM  =   147.1560 eV,   10.8157 Ry                                                             
                                                                                                    
   TITEL  = PAW_PBE C 08Apr2002                                                                     
   LULTRA =        F    use ultrasoft PP ?                                                          
   IUNSCR =        1    unscreen: 0-lin 1-nonlin 2-no                                               
   RPACOR =    1.200    partial core radius                                                         
   POMASS =   12.011; ZVAL   =    4.000    mass and valenz                                          
   RCORE  =    1.500    outmost cutoff radius                                                       
   RWIGS  =    1.630; RWIGS  =    0.863    wigner-seitz radius (au A)                               
   ENMAX  =  400.000; ENMIN  =  300.000 eV                                                          
   ICORE  =        2    local potential                                                             
   LCOR   =        T    correct aug charges                                                         
   LPAW   =        T    paw PP                                                                      
   EAUG   =  644.873                                                                                
   DEXC   =    0.000                                                                                
   RMAX   =    1.529    core radius for proj-oper                                                   
   RAUG   =    1.300    factor for augmentation sphere                                              
   RDEP   =    1.501    radius for radial grids                                                     
   RDEPT  =    1.300    core radius for aug-charge                                                  
                                                                                                    
   Atomic configuration                                                                             
    4 entries                                                                                       
     n  l   j            E        occ.                                                              
     1  0  0.50      -273.3789   2.0000                                                             
     2  0  0.50       -13.7508   2.0000                                                             
     2  1  0.50        -5.2854   2.0000                                                             
     3  2  1.50        -5.4423   0.0000                                                             
   Description                                                                                      
     l       E           TYP  RCUT    TYP  RCUT                                                     
     0    -13.7508458     23  1.200                                                                 
     0     -8.2022199     23  1.200                                                                 
     1     -5.2854383     23  1.500                                                                 
     1     34.0145650     23  1.500                                                                 
     2     -5.4423304      7  1.500                                                                 
  local pseudopotential read in
  partial core-charges read in
  partial kinetic energy density read in
  atomic valenz-charges read in
  non local Contribution for L=           0  read in
    real space projection operators read in
  non local Contribution for L=           0  read in
    real space projection operators read in
  non local Contribution for L=           1  read in
    real space projection operators read in
  non local Contribution for L=           1  read in
    real space projection operators read in
    PAW grid and wavefunctions read in
 
   number of l-projection  operators is LMAX  =           4
   number of lm-projection operators is LMMAX =           8
 
 POTCAR:    PAW_PBE H 15Jun2001                   
   SHA256 =  030f79b5d3ab3cf0e668861823c8fb652ff669f3e15e46930bd03bfd63a607b6 H/POTCAR              
   COPYR  = (c) Copyright 15Jun2001 Georg Kresse                                                    
   COPYR  = This file is part of the software VASP. Any use, copying, and all other rights are regul
   COPYR  = If you do not have a valid VASP license, you may not use, copy or distribute this file. 
   VRHFIN =H: ultrasoft test                                                                        
   LEXCH  = PE                                                                                      
   EATOM  =    12.4884 eV,    0.9179 Ry                                                             
                                                                                                    
   TITEL  = PAW_PBE H 15Jun2001                                                                     
   LULTRA =        F    use ultrasoft PP ?                                                          
   IUNSCR =        0    unscreen: 0-lin 1-nonlin 2-no                                               
   RPACOR =    0.000    partial core radius                                                         
   POMASS =    1.000; ZVAL   =    1.000    mass and valenz                                          
   RCORE  =    1.100    outmost cutoff radius                                                       
   RWIGS  =    0.700; RWIGS  =    0.370    wigner-seitz radius (au A)                               
   ENMAX  =  250.000; ENMIN  =  200.000 eV                                                          
   RCLOC  =    0.701    cutoff for local pot                                                        
   LCOR   =        T    correct aug charges                                                         
   LPAW   =        T    paw PP                                                                      
   EAUG   =  400.000                                                                                
   RMAX   =    1.123    core radius for proj-oper                                                   
   RAUG   =    1.200    factor for augmentation sphere                                              
   RDEP   =    1.112    radius for radial grids                                                     
   RDEPT  =    0.926    core radius for aug-charge                                                  
                                                                                                    
   Atomic configuration                                                                             
    2 entries                                                                                       
     n  l   j            E        occ.                                                              
     1  0  0.50        -6.4927   1.0000                                                             
     2  1  0.50        -3.4015   0.0000                                                             
   Description                                                                                      
     l       E           TYP  RCUT    TYP  RCUT                                                     
     0     -6.4927494     23  1.100                                                                 
     0      6.8029130     23  1.100                                                                 
     1     -4.0817478     23  1.100                                                                 
  local pseudopotential read in
  atomic valenz-charges read in
  non local Contribution for L=           0  read in
    real space projection operators read in
  non local Contribution for L=           0  read in
    real space projection operators read in
  non local Contribution for L=           1  read in
    real space projection operators read in
    PAW grid and wavefunctions read in
 
   number of l-projection  operators is LMAX  =           3
   number of lm-projection operators is LMMAX =           5
 
 Optimization of the real space projectors (new method)

 maximal supplied QI-value         = 25.13
 optimisation between [QCUT,QGAM] = [ 11.31, 22.87] = [ 35.82,146.48] Ry 
 Optimized for a Real-space Cutoff    1.03 Angstroem

   l    n(q)    QCUT    max X(q) W(low)/X(q) W(high)/X(q)  e(spline) 
   0      7    11.310   115.676    0.20E-03    0.90E-03    0.20E-06
   0      7    11.310    87.132    0.20E-03    0.89E-03    0.19E-06
   1      6    11.310     4.429    0.16E-03    0.28E-03    0.12E-06
   1      6    11.310     2.733    0.12E-03    0.21E-03    0.99E-07
 Optimization of the real space projectors (new method)

 maximal supplied QI-value         = 34.20
 optimisation between [QCUT,QGAM] = [ 11.29, 22.57] = [ 35.68,142.71] Ry 
 Optimized for a Real-space Cutoff    1.20 Angstroem

   l    n(q)    QCUT    max X(q) W(low)/X(q) W(high)/X(q)  e(spline) 
   0      8    11.287    19.460    0.22E-03    0.50E-03    0.19E-06
   0      8    11.287    12.209    0.21E-03    0.48E-03    0.18E-06
   1      8    11.287     4.655    0.21E-03    0.11E-04    0.26E-06
  PAW_PBE C 08Apr2002                   :
 energy of atom  1       EATOM= -147.1560
 kinetic energy error for atom=    0.0076 (will be added to EATOM!!)
  PAW_PBE H 15Jun2001                   :
 energy of atom  2       EATOM=  -12.4884
 kinetic energy error for atom=    0.0020 (will be added to EATOM!!)
 
 
 POSCAR: C H
  positions in direct lattice
  velocities in cartesian coordinates
 exchange correlation table for  LEXCH =        8
   RHO(1)=    0.500       N(1)  =     2000
   RHO(2)=  100.500       N(2)  =     4000
 


--------------------------------------------------------------------------------------------------------


 ion  position               nearest neighbor table
   1  0.561  0.482  0.500-  18 1.09  10 1.38   2 1.42
   2  0.561  0.518  0.500-  17 1.09   3 1.38   1 1.42
   3  0.531  0.535  0.500-  16 1.09   2 1.38   4 1.42
   4  0.500  0.518  0.500-   3 1.42   5 1.42   9 1.44
   5  0.469  0.535  0.500-  15 1.09   6 1.38   4 1.42
   6  0.439  0.518  0.500-  14 1.09   5 1.38   7 1.42
   7  0.439  0.482  0.500-  13 1.09   8 1.38   6 1.42
   8  0.469  0.465  0.500-  12 1.09   7 1.38   9 1.42
   9  0.500  0.482  0.500-   8 1.42  10 1.42   4 1.44
  10  0.531  0.465  0.500-  11 1.09   1 1.38   9 1.42
  11  0.531  0.438  0.500-  10 1.09
  12  0.469  0.438  0.500-   8 1.09
  13  0.415  0.469  0.500-   7 1.09
  14  0.415  0.531  0.500-   6 1.09
  15  0.469  0.562  0.500-   5 1.09
  16  0.531  0.562  0.500-   3 1.09
  17  0.585  0.531  0.500-   2 1.09
  18  0.585  0.469  0.500-   1 1.09
 
  LATTYP: Found a simple cubic cell.
 ALAT       =    40.0000000000
  
  Lattice vectors:
  
 A1 = (  40.0000000000,   0.0000000000,   0.0000000000)
 A2 = (   0.0000000000,  40.0000000000,   0.0000000000)
 A3 = (   0.0000000000,   0.0000000000,  40.0000000000)


Analysis of symmetry for initial positions (statically):
=====================================================================
 Subroutine PRICEL returns:
 Original cell was already a primitive cell.
 

 Routine SETGRP: Setting up the symmetry group for a 
 simple cubic supercell.


 Subroutine GETGRP returns: Found  8 space group operations
 (whereof  8 operations were pure point group operations)
 out of a pool of 48 trial point group operations.


The static configuration has the point symmetry D_2h.


Analysis of symmetry for dynamics (positions and initial velocities):
=====================================================================
 Subroutine PRICEL returns:
 Original cell was already a primitive cell.
 

 Routine SETGRP: Setting up the symmetry group for a 
 simple cubic supercell.


 Subroutine GETGRP returns: Found  8 space group operations
 (whereof  8 operations were pure point group operations)
 out of a pool of 48 trial point group operations.


The dynamic configuration has the point symmetry D_2h.


Analysis of constrained symmetry for selective dynamics:
=====================================================================
 Subroutine PRICEL returns:
 Original cell was already a primitive cell.
 

 Routine SETGRP: Setting up the symmetry group for a 
 simple cubic supercell.


 Subroutine GETGRP returns: Found  8 space group operations
 (whereof  8 operations were pure point group operations)
 out of a pool of 48 trial point group operations.


The constrained configuration has the point symmetry D_2h.


Analysis of structural, dynamic, and magnetic symmetry:
=====================================================================
 Subroutine PRICEL returns:
 Original cell was already a primitive cell.
 

 Routine SETGRP: Setting up the symmetry group for a 
 simple cubic supercell.


 Subroutine GETGRP returns: Found  8 space group operations
 (whereof  8 operations were pure point group operations)
 out of a pool of 48 trial point group operations.


The overall configuration has the point symmetry D_2h.


 Subroutine INISYM returns: Found  8 space group operations
 (whereof  8 operations are pure point group operations),
 and found     1 'primitive' translations


----------------------------------------------------------------------------------------

                                     Primitive cell                                     

  volume of cell :   64000.0000

  direct lattice vectors                    reciprocal lattice vectors
    40.000000000  0.000000000  0.000000000     0.025000000  0.000000000  0.000000000
     0.000000000 40.000000000  0.000000000     0.000000000  0.025000000  0.000000000
     0.000000000  0.000000000 40.000000000     0.000000000  0.000000000  0.025000000

  length of vectors
    40.000000000 40.000000000 40.000000000     0.025000000  0.025000000  0.025000000

  position of ions in fractional coordinates (direct lattice)
     0.560903305  0.482268946  0.500000000
     0.560903305  0.517730054  0.500000000
     0.531107909  0.535176074  0.500000000
     0.500000000  0.517980080  0.500000000
     0.468892091  0.535176074  0.500000000
     0.439096695  0.517731054  0.500000000
     0.439096695  0.482269946  0.500000000
     0.468892091  0.464823926  0.500000000
     0.500000000  0.482019920  0.500000000
     0.531107909  0.464823926  0.500000000
     0.530974707  0.437505661  0.500000000
     0.469024293  0.437506661  0.500000000
     0.415393361  0.468782302  0.500000000
     0.415394361  0.531218698  0.500000000
     0.469025293  0.562494339  0.500000000
     0.530975707  0.562493339  0.500000000
     0.584606639  0.531217698  0.500000000
     0.584605639  0.468781302  0.500000000

  ion indices of the primitive-cell ions
   primitive index   ion index
                 1           1
                 2           2
                 3           3
                 4           4
                 5           5
                 6           6
                 7           7
                 8           8
                 9           9
                10          10
                11          11
                12          12
                13          13
                14          14
                15          15
                16          16
                17          17
                18          18

----------------------------------------------------------------------------------------

 
 
 KPOINTS: K-Point Grid                            

Automatic generation of k-mesh.
 Grid dimensions read from file:
 generate k-points for:    1    1    1

 Generating k-lattice:

  Cartesian coordinates                     Fractional coordinates (reciprocal lattice)
     0.025000000  0.000000000  0.000000000     1.000000000  0.000000000  0.000000000
     0.000000000  0.025000000  0.000000000     0.000000000  1.000000000  0.000000000
     0.000000000  0.000000000  0.025000000     0.000000000  0.000000000  1.000000000

  Length of vectors
     0.025000000  0.025000000  0.025000000

  Shift w.r.t. Gamma in fractional coordinates (k-lattice)
     0.000000000  0.000000000  0.000000000

 
 Subroutine IBZKPT returns following result:
 ===========================================
 
 Found      1 irreducible k-points:
 
 Following reciprocal coordinates:
            Coordinates               Weight
  0.000000  0.000000  0.000000      1.000000
 
 Following cartesian coordinates:
            Coordinates               Weight
  0.000000  0.000000  0.000000      1.000000
 
 
 Subroutine IBZKPT_HF returns following result:
 ==============================================
 
 Found      1 k-points in 1st BZ
 the following      1 k-points will be used (e.g. in the exchange kernel)
 Following reciprocal coordinates:   # in IRBZ
  0.000000  0.000000  0.000000    1.00000000   1 t-inv F


--------------------------------------------------------------------------------------------------------




 Dimension of arrays:
   k-points           NKPTS =      1   k-points in BZ     NKDIM =      1   number of bands    NBANDS=     44
   number of dos      NEDOS =    301   number of ions     NIONS =     18
   non local maximal  LDIM  =      4   non local SUM 2l+1 LMDIM =      8
   total plane-waves  NPLWV = ******
   max r-space proj   IRMAX =   2915   max aug-charges    IRDMAX=   4885
   dimension x,y,z NGX =   294 NGY =  294 NGZ =  294
   dimension x,y,z NGXF=   588 NGYF=  588 NGZF=  588
   support grid    NGXF=   588 NGYF=  588 NGZF=  588
   ions per type =              10   8
   NGX,Y,Z   is equivalent  to a cutoff of  12.22, 12.22, 12.22 a.u.
   NGXF,Y,Z  is equivalent  to a cutoff of  24.44, 24.44, 24.44 a.u.

 SYSTEM =  001                                     
 POSCAR =  C H                                     

 Startparameter for this run:
   NWRITE =      2    write-flag & timer
   PREC   = accura    normal or accurate (medium, high low for compatibility)
   ISTART =      1    job   : 0-new  1-cont  2-samecut
   ICHARG =      2    charge: 1-file 2-atom 10-const
   ISPIN  =      2    spin polarized calculation?
   LNONCOLLINEAR =      F non collinear calculations
   LSORBIT =      F    spin-orbit coupling
   INIWAV =      1    electr: 0-lowe 1-rand  2-diag
   LASPH  =      F    aspherical Exc in radial PAW
 Electronic Relaxation 1
   ENCUT  =  500.0 eV  36.75 Ry    6.06 a.u.  72.93 72.93 72.93*2*pi/ulx,y,z
   ENINI  =  500.0     initial cutoff
   ENAUG  =  644.9 eV  augmentation charge cutoff
   NELM   =    100;   NELMIN=  2; NELMDL=  0     # of ELM steps 
   EDIFF  = 0.1E-04   stopping-criterion for ELM
   LREAL  =      T    real-space projection
   NLSPLINE    = F    spline interpolate recip. space projectors
   LCOMPAT=      F    compatible to vasp.4.4
   GGA_COMPAT  = T    GGA compatible to vasp.4.4-vasp.4.6
   LMAXPAW     = -100 max onsite density
   LMAXMIX     =    2 max onsite mixed and CHGCAR
   VOSKOWN=      0    Vosko Wilk Nusair interpolation
   ROPT   =   -0.00025  -0.00025
 Ionic relaxation
   EDIFFG = -.2E-01   stopping-criterion for IOM
   NSW    =    500    number of steps for IOM
   NBLOCK =      1;   KBLOCK =    500    inner block; outer block 
   IBRION =      2    ionic relax: 0-MD 1-quasi-New 2-CG
   NFREE  =      1    steps in history (QN), initial steepest desc. (CG)
   ISIF   =      2    stress and relaxation
   IWAVPR =     11    prediction:  0-non 1-charg 2-wave 3-comb
   ISYM   =      3    0-nonsym 1-usesym 2-fastsym
   LCORR  =      T    Harris-Foulkes like correction to forces

   POTIM  = 0.5000    time-step for ionic-motion
   TEIN   =    0.0    initial temperature
   TEBEG  =    0.0;   TEEND  =   0.0 temperature during run
   SMASS  =  -3.00    Nose mass-parameter (am)
   estimated Nose-frequenzy (Omega)   =  0.10E-29 period in steps = 0.13E+47 mass=  -0.366E-25a.u.
   SCALEE = 1.0000    scale energy and forces
   NPACO  =    256;   APACO  = 10.0  distance and # of slots for P.C.
   PSTRESS=    0.0 pullay stress

  Mass of Ions in am
   POMASS =  12.01  1.00
  Ionic Valenz
   ZVAL   =   4.00  1.00
  Atomic Wigner-Seitz radii
   RWIGS  =  -1.00 -1.00
  virtual crystal weights 
   VCA    =   1.00  1.00
   NELECT =      48.0000    total number of electrons
   NUPDOWN=      -1.0000    fix difference up-down

 DOS related values:
   EMIN   =  10.00;   EMAX   =-10.00  energy-range for DOS
   EFERMI =   0.00;   METHOD = LEGACY      
   ISMEAR =     0;   SIGMA  =   0.05  broadening in eV -4-tet -1-fermi 0-gaus

 Electronic relaxation 2 (details)
   IALGO  =     53    algorithm
   LDIAG  =      F    sub-space diagonalisation (order eigenvalues)
   LSUBROT=      F    optimize rotation matrix (better conditioning)
   TURBO    =      0    0=normal 1=particle mesh
   IRESTART =      0    0=no restart 2=restart with 2 vectors
   NREBOOT  =      0    no. of reboots
   NMIN     =      0    reboot dimension
   EREF     =   0.00    reference energy to select bands
   IMIX   =      4    mixing-type and parameters
     AMIX     =   0.40;   BMIX     =  1.00
     AMIX_MAG =   1.60;   BMIX_MAG =  1.00
     AMIN     =   0.10
     WC   =   100.;   INIMIX=   1;  MIXPRE=   1;  MAXMIX= -45

 Intra band minimization:
   WEIMIN = 0.0010     energy-eigenvalue tresh-hold
   EBREAK =  0.57E-07  absolut break condition
   DEPER  =   0.30     relativ break condition  

   TIME   =   0.40     timestep for ELM

  volume/ion in A,a.u.               =    3555.56     23994.07
  Fermi-wavevector in a.u.,A,eV,Ry     =   0.148740  0.281078  0.301011  0.022124
  Thomas-Fermi vector in A             =   0.822372
 
 Write flags
   LWAVE        =      T    write WAVECAR
   LDOWNSAMPLE  =      F    k-point downsampling of WAVECAR
   LCHARG       =      F    write CHGCAR
   LVTOT        =      F    write LOCPOT, total local potential
   LVHAR        =      F    write LOCPOT, Hartree potential only
   LELF         =      F    write electronic localiz. function (ELF)
   LORBIT       =      0    0 simple, 1 ext, 2 COOP (PROOUT), +10 PAW based schemes


 Dipole corrections
   LMONO  =      F    monopole corrections only (constant potential shift)
   LDIPOL =      F    correct potential (dipole corrections)
   IDIPOL =      0    1-x, 2-y, 3-z, 4-all directions 
   EPSILON=  1.0000000 bulk dielectric constant

 Exchange correlation treatment:
   GGA     =    --    GGA type
   LEXCH   =     8    internal setting for exchange type
   LIBXC   =     F    Libxc                    
   VOSKOWN =     0    Vosko Wilk Nusair interpolation
   EXXOEP  =     0    0=HF, 1=EXX-LHF (local Hartree Fock) 2=EXX OEP
   LHFCALC =     T    Hartree Fock is set to
   LSYMGRAD=     F    symmetrize gradient (conserves proper symmetry)
   PRECFOCK=normal    Normal, Fast or Accurate (Low or Medium for compatibility)
   LRHFCALC=     F    long range Hartree Fock
   LRSCOR  =     F    long range correlation only (use DFT for short range part)
   LTHOMAS =     F    Thomas Fermi screening in HF
   LMODELHF=     F    short range full HF, long range fraction AEXX
   FOCKCORR=     1    mode to apply convergence corrections
   LFOCKACE=     T    use Adeptively-Compressed-Exchange operator
   ENCUT4O =  -1.0   cutoff for four orbital integrals eV
   LMAXFOCK=     4    L truncation for augmentation on plane wave grid
   LMAXFOCKAE=  -1    L truncation for all-electron charge restoration on plane wave grid
   NMAXFOCKAE=   1    number of basis functions for all-electron charge restoration
   LFOCKAEDFT=     F  apply the AE augmentation even for DFT
   NKREDX  =     1    reduce k-point grid by
   NKREDY  =     1    reduce k-point grid by
   NKREDZ  =     1    reduce k-point grid by
   SHIFTRED=     F    shift reduced grid of Gamma
   HFKIDENT=     F    idential grid for each k-point
   ODDONLY =     F    use only odd q-grid points
   EVENONLY=     F    use only even q-grid points
   HFALPHA =   -1.0000 decay constant for conv. correction
   MCALPHA =    0.0000 extent of test-charge in conv. correction in multipole expansion
   AEXX    =    0.2500 exact exchange contribution
   HFSCREEN=    0.2000 screening length (either q_TF or 0.3 A-1)
   HFSCREENC=   0.2000 screening length for correlation (either q_TF or 0.3 A-1)
   HFRCUT  =    0.0000 spherical cutoff for potential kernel
   ALDAX   =    0.7500 LDA exchange part
   AGGAX   =    0.7500 GGA exchange part
   ALDAC   =    1.0000 LDA correlation
   AGGAC   =    1.0000 GGA correlation
   ENCUTFOCK=  -1.0 apply spherical cutoff to Coloumb kernel
   NBANDSGWLOW=     1    first orbital included in HF term
   NBLOCK_FOCK=    64    blocking factor in FOCK_ACC

 Linear response parameters
   LEPSILON=     F    determine dielectric tensor
   LRPA    =     F    only Hartree local field effects (RPA)
   LNABLA  =     F    use nabla operator in PAW spheres
   LVEL    =     F    velocity operator in full k-point grid
   CSHIFT  =0.1000    complex shift for real part using Kramers Kronig
   OMEGAMAX=  -1.0    maximum frequency
   DEG_THRESHOLD= 0.2000000E-02 threshold for treating states as degnerate
   RTIME   =   -0.100 relaxation time in fs
  (WPLASMAI=    0.000 imaginary part of plasma frequency in eV, 0.658/RTIME)
   DFIELD  = 0.0000000 0.0000000 0.0000000 field for delta impulse in time
 
  Optional k-point grid parameters
   LKPOINTS_OPT  =     F    use optional k-point grid
   KPOINTS_OPT_MODE=     1    mode for optional k-point grid
 
 Orbital magnetization related:
   ORBITALMAG=     F  switch on orbital magnetization
   LCHIMAG   =     F  perturbation theory with respect to B field
   DQ        =  0.001000  dq finite difference perturbation B field
   LLRAUG    =     F  two centre corrections for induced B field
   LBONE     =     F  B-component reconstruction in AE one-centre
   LVGVCALC  =     T  calculate vGv susceptibility
   LVGVAPPL  =     F  apply vGv susceptibility instead of pGv for G=0

 Random number generation:
   RANDOM_GENERATOR = DEFAULT
   PCG_SEED         = not used
 Solvation model:
   LSOL    =     T         switch on solvation model
   EB_K    = 35.688000     relative permittivity of the bulk solvent
   SIGMA_K =  0.600000     width of the dielectric cavity
   NC_K    =  0.002500     cutoff charge density
   TAU     =  0.000000     cavity surface tension
   LAMBDA_D_K    =  3.040000     Debye length in Angstroms
   LRHOB     =     F     write boundcharge  density
   LRHOION     =     F     write ioniccharge density



--------------------------------------------------------------------------------------------------------


 conjugate gradient relaxation of ions
   using selective dynamics as specified on POSCAR
 charge density and potential will be updated during run
 spin polarized calculation
 Conjugate gradient for all bands (Kresse, et al. variant)
 perform Loewdin sub-space diagonalisation
    ordering is kept fixed
    before iterative eigenvector-optimisation
 modified Broyden-mixing scheme, WC =      100.0
 initial mixing is a Kerker type mixing with AMIX =  0.4000 and BMIX =      1.0000
 Hartree-type preconditioning will be used
 using additional bands           20
 real space projection scheme for non local part
 use partial core corrections
 no Harris-corrections to forces 
 use gradient corrections 
 use of overlap-Matrix (Vanderbilt PP)
 Gauss-broadening in eV      SIGMA  =   0.05


--------------------------------------------------------------------------------------------------------


  energy-cutoff  :      500.00
  volume of cell :    64000.00
      direct lattice vectors                 reciprocal lattice vectors
    40.000000000  0.000000000  0.000000000     0.025000000  0.000000000  0.000000000
     0.000000000 40.000000000  0.000000000     0.000000000  0.025000000  0.000000000
     0.000000000  0.000000000 40.000000000     0.000000000  0.000000000  0.025000000

  length of vectors
    40.000000000 40.000000000 40.000000000     0.025000000  0.025000000  0.025000000


 
 old parameters found on file WAVECAR:
  energy-cutoff  :      500.00
  volume of cell :    64000.00
      direct lattice vectors                 reciprocal lattice vectors
    40.000000000  0.000000000  0.000000000     0.025000000  0.000000000  0.000000000
     0.000000000 40.000000000  0.000000000     0.000000000  0.025000000  0.000000000
     0.000000000  0.000000000 40.000000000     0.000000000  0.000000000  0.025000000

  length of vectors

 
 k-points in units of 2pi/SCALE and weight: K-Point Grid                            
   0.00000000  0.00000000  0.00000000       1.000
 
 k-points in reciprocal lattice and weights: K-Point Grid                            
   0.00000000  0.00000000  0.00000000       1.000
 
 position of ions in fractional coordinates (direct lattice) 
   0.56090330  0.48226895  0.50000000
   0.56090330  0.51773005  0.50000000
   0.53110791  0.53517607  0.50000000
   0.50000000  0.51798008  0.50000000
   0.46889209  0.53517607  0.50000000
   0.43909670  0.51773105  0.50000000
   0.43909670  0.48226995  0.50000000
   0.46889209  0.46482393  0.50000000
   0.50000000  0.48201992  0.50000000
   0.53110791  0.46482393  0.50000000
   0.53097471  0.43750566  0.50000000
   0.46902429  0.43750666  0.50000000
   0.41539336  0.46878230  0.50000000
   0.41539436  0.53121870  0.50000000
   0.46902529  0.56249434  0.50000000
   0.53097571  0.56249334  0.50000000
   0.58460664  0.53121770  0.50000000
   0.58460564  0.46878130  0.50000000
 
 position of ions in cartesian coordinates  (Angst):
  22.43613219 19.29075786 20.00000000
  22.43613219 20.70920214 20.00000000
  21.24431637 21.40704297 20.00000000
  20.00000000 20.71920320 20.00000000
  18.75568363 21.40704297 20.00000000
  17.56386781 20.70924214 20.00000000
  17.56386781 19.29079786 20.00000000
  18.75568363 18.59295703 20.00000000
  20.00000000 19.28079680 20.00000000
  21.24431637 18.59295703 20.00000000
  21.23898829 17.50022645 20.00000000
  18.76097171 17.50026645 20.00000000
  16.61573443 18.75129206 20.00000000
  16.61577443 21.24874794 20.00000000
  18.76101171 22.49977355 20.00000000
  21.23902829 22.49973355 20.00000000
  23.38426557 21.24870794 20.00000000
  23.38422557 18.75125206 20.00000000
 


--------------------------------------------------------------------------------------------------------


 k-point   1 :   0.0000 0.0000 0.0000  plane waves: 1624525

 maximum and minimum number of plane-waves per node :     54169    54136

 maximum number of plane-waves:   1624525
 maximum index in each direction: 
   IXMAX=   72   IYMAX=   72   IZMAX=   72
   IXMIN=  -72   IYMIN=  -72   IZMIN=  -72


 real space projection operators:
  total allocation   :       1992.75 KBytes
  max/ min on nodes  :         74.66         46.44


 parallel 3D FFT for wavefunctions:
    minimum data exchange during FFTs selected (reduces bandwidth)
 parallel 3D FFT for charge:
    minimum data exchange during FFTs selected (reduces bandwidth)


 FFT grid for exact exchange (Hartree Fock) 
  NGX =224; NGY =224; NGZ =224

 
 Radii for the augmentation spheres in the non-local exchange
 for species   1 augmentation radius   0.874 (default was   0.699)
       energy cutoff for augmentation   2000.0
 for species   2 augmentation radius   0.650 (default was   0.520)
       energy cutoff for augmentation   2000.0

 real space projection operators:
  total allocation   :        449.58 KBytes
  max/ min on nodes  :         20.11          9.14

 Maximum index for augmentation-charges in exchange           69
  SETUP_FOCK is finished

 total amount of memory used by VASP MPI-rank0   656649. kBytes
=======================================================================

   base      :      30000. kBytes
   nonlr-proj:       1127. kBytes
   fftplans  :     164499. kBytes
   grid      :     346590. kBytes
   one-center:          6. kBytes
   HF        :          4. kBytes
   wavefun   :     114423. kBytes
 
     INWAV:  cpu time      9.3426: real time     10.7202
 Broyden mixing: mesh for mixing (old mesh)
   NGX =145   NGY =145   NGZ =145
  (NGX  =588   NGY  =588   NGZ  =588)
  gives a total of ****** points

 initial charge density was supplied:
 charge density of overlapping atoms calculated
 number of electron      48.0000000 magnetization      18.0000000
 charge density for first step will be calculated from the start-wavefunctions


--------------------------------------------------------------------------------------------------------


 Maximum index for non-local projection operator          227
 Maximum index for augmentation-charges          218 (set IRDMAX)


--------------------------------------------------------------------------------------------------------


 initial charge from wavefunction
 First call to EWALD:  gamma=   0.044
 Maximum number of real-space cells 3x 3x 3
 Maximum number of reciprocal cells 3x 3x 3

    FEWALD:  cpu time      0.0017: real time      0.0017


--------------------------------------- Ionic step        1  -------------------------------------------




--------------------------------------- Iteration      1(   1)  ---------------------------------------


    POTLOK:  cpu time    159.1239: real time    160.6676
    SETDIJ:  cpu time      0.0980: real time      0.1005
    TRIAL :  cpu time     86.4995: real time     87.2419
    CORREC:  cpu time      0.0018: real time      0.0018
    CHARGE:  cpu time      1.4808: real time      1.4921
    --------------------------------------------
      LOOP:  cpu time    247.2775: real time    249.5843

 eigenvalue-minimisations  :     0
 total energy-change (2. order) :-0.1376216E+03  (-0.1082286E+00)
 number of electron      47.9999996 magnetization       0.0000000
 augmentation part        1.1044659 magnetization      -0.0000351

 Free energy of the ion-electron system (eV)
  ---------------------------------------------------
  alpha Z        PSCENC =         0.16864210
  Ewald energy   TEWEN  =      4951.57965347
  -Hartree energ DENC   =     -6215.84553539
  -exchange      EXHF   =       104.58976229
  -V(xc)+E(xc)   XCENC  =       121.90558931
  PAW double counting   =      4254.57345177    -4259.35080977
  entropy T*S    EENTRO =        -0.00000000
  eigenvalues    EBANDS =      -651.07995516
  atomic energy  EATOM  =      1549.87284757
  ---------------------------------------------------
  free energy    TOTEN  =      -137.62162438 eV

  energy without entropy =     -137.62162438  energy(sigma->0) =     -137.62162438
  exchange ACFDT corr.  =         0.00000000  see jH, gK, PRB 81, 115126


--------------------------------------------------------------------------------------------------------




--------------------------------------- Iteration      1(   2)  ---------------------------------------


    POTLOK:  cpu time    136.6456: real time    137.8186
    SETDIJ:  cpu time      0.0959: real time      0.0964
    TRIAL :  cpu time     86.4482: real time     87.1596
    CORREC:  cpu time      0.0011: real time      0.0012
    CHARGE:  cpu time      1.4787: real time      1.4895
    --------------------------------------------
      LOOP:  cpu time    224.6711: real time    226.5751

 eigenvalue-minimisations  :     0
 total energy-change (2. order) :-0.8209223E-01  (-0.5498942E-01)
 number of electron      47.9999996 magnetization       0.0000000
 augmentation part        1.0972829 magnetization      -0.0000536

 Free energy of the ion-electron system (eV)
  ---------------------------------------------------
  alpha Z        PSCENC =         0.16864210
  Ewald energy   TEWEN  =      4951.57965347
  -Hartree energ DENC   =     -6214.93366907
  -exchange      EXHF   =       104.60299462
  -V(xc)+E(xc)   XCENC  =       121.85282516
  PAW double counting   =      4358.26539969    -4362.98867340
  entropy T*S    EENTRO =        -0.00000000
  eigenvalues    EBANDS =      -652.76683265
  atomic energy  EATOM  =      1549.87284757
  ---------------------------------------------------
  free energy    TOTEN  =      -137.70371661 eV

  energy without entropy =     -137.70371661  energy(sigma->0) =     -137.70371661
  exchange ACFDT corr.  =        -0.00000000  see jH, gK, PRB 81, 115126


--------------------------------------------------------------------------------------------------------




--------------------------------------- Iteration      1(   3)  ---------------------------------------


    POTLOK:  cpu time    134.4388: real time    135.6172
    SETDIJ:  cpu time      0.0993: real time      0.0998
    TRIAL :  cpu time     86.5328: real time     87.2475
    CORREC:  cpu time      0.0013: real time      0.0013
    CHARGE:  cpu time      1.4862: real time      1.4970
    --------------------------------------------
      LOOP:  cpu time    222.5676: real time    224.4790

 eigenvalue-minimisations  :     0
 total energy-change (2. order) :-0.3699251E-01  (-0.1565624E-01)
 number of electron      47.9999996 magnetization       0.0000000
 augmentation part        1.0940994 magnetization      -0.0000518

 Free energy of the ion-electron system (eV)
  ---------------------------------------------------
  alpha Z        PSCENC =         0.16864210
  Ewald energy   TEWEN  =      4951.57965347
  -Hartree energ DENC   =     -6214.62915313
  -exchange      EXHF   =       104.62981614
  -V(xc)+E(xc)   XCENC  =       121.81809952
  PAW double counting   =      4465.40251571    -4470.07589261
  entropy T*S    EENTRO =        -0.00000000
  eigenvalues    EBANDS =      -653.66768901
  atomic energy  EATOM  =      1549.87284757
  ---------------------------------------------------
  free energy    TOTEN  =      -137.74070912 eV

  energy without entropy =     -137.74070912  energy(sigma->0) =     -137.74070912
  exchange ACFDT corr.  =        -0.00000000  see jH, gK, PRB 81, 115126


--------------------------------------------------------------------------------------------------------




--------------------------------------- Iteration      1(   4)  ---------------------------------------


    POTLOK:  cpu time    128.4117: real time    129.4859
    SETDIJ:  cpu time      0.1041: real time      0.1065
    TRIAL :  cpu time     86.4208: real time     87.1513
    CORREC:  cpu time      0.0015: real time      0.0015
    CHARGE:  cpu time      1.4851: real time      1.4967
    --------------------------------------------
      LOOP:  cpu time    216.4247: real time    218.2508

 eigenvalue-minimisations  :     0
 total energy-change (2. order) :-0.1004541E-01  (-0.4489588E-02)
 number of electron      47.9999996 magnetization       0.0000000
 augmentation part        1.0932507 magnetization      -0.0000402

 Free energy of the ion-electron system (eV)
  ---------------------------------------------------
  alpha Z        PSCENC =         0.16864210
  Ewald energy   TEWEN  =      4951.57965347
  -Hartree energ DENC   =     -6215.21574460
  -exchange      EXHF   =       104.67137062
  -V(xc)+E(xc)   XCENC  =       121.82294536
  PAW double counting   =      4539.66767679    -4544.31425737
  entropy T*S    EENTRO =        -0.00000000
  eigenvalues    EBANDS =      -653.34131831
  atomic energy  EATOM  =      1549.87284757
  ---------------------------------------------------
  free energy    TOTEN  =      -137.75075453 eV

  energy without entropy =     -137.75075453  energy(sigma->0) =     -137.75075453
  exchange ACFDT corr.  =        -0.00000000  see jH, gK, PRB 81, 115126


--------------------------------------------------------------------------------------------------------




--------------------------------------- Iteration      1(   5)  ---------------------------------------


    POTLOK:  cpu time    122.9417: real time    123.9834
    SETDIJ:  cpu time      0.1140: real time      0.1165
    TRIAL :  cpu time     86.3323: real time     87.0597
    CORREC:  cpu time      0.0018: real time      0.0018
    CHARGE:  cpu time      1.4833: real time      1.4956
    --------------------------------------------
      LOOP:  cpu time    210.8740: real time    212.6711

 eigenvalue-minimisations  :     0
 total energy-change (2. order) :-0.2836936E-02  (-0.1562757E-02)
 number of electron      47.9999996 magnetization       0.0000000
 augmentation part        1.0932169 magnetization      -0.0000251

 Free energy of the ion-electron system (eV)
  ---------------------------------------------------
  alpha Z        PSCENC =         0.16864210
  Ewald energy   TEWEN  =      4951.57965347
  -Hartree energ DENC   =     -6215.75014394
  -exchange      EXHF   =       104.70415245
  -V(xc)+E(xc)   XCENC  =       121.83846328
  PAW double counting   =      4579.91180530    -4584.54759886
  entropy T*S    EENTRO =        -0.00000000
  eigenvalues    EBANDS =      -652.84932017
  atomic energy  EATOM  =      1549.87284757
  ---------------------------------------------------
  free energy    TOTEN  =      -137.75359147 eV

  energy without entropy =     -137.75359147  energy(sigma->0) =     -137.75359147
  exchange ACFDT corr.  =        -0.00000000  see jH, gK, PRB 81, 115126


--------------------------------------------------------------------------------------------------------




--------------------------------------- Iteration      1(   6)  ---------------------------------------


    POTLOK:  cpu time    124.8313: real time    125.9541
    SETDIJ:  cpu time      0.1044: real time      0.1050
    TRIAL :  cpu time     86.5793: real time     87.3099
    CORREC:  cpu time      0.0022: real time      0.0022
    CHARGE:  cpu time      1.4810: real time      1.4932
    --------------------------------------------
      LOOP:  cpu time    213.0021: real time    214.8745

 eigenvalue-minimisations  :     0
 total energy-change (2. order) :-0.1029991E-02  (-0.7207578E-03)
 number of electron      47.9999996 magnetization       0.0000000
 augmentation part        1.0934085 magnetization      -0.0000170

 Free energy of the ion-electron system (eV)
  ---------------------------------------------------
  alpha Z        PSCENC =         0.16864210
  Ewald energy   TEWEN  =      4951.57965347
  -Hartree energ DENC   =     -6215.88171444
  -exchange      EXHF   =       104.71952801
  -V(xc)+E(xc)   XCENC  =       121.84727092
  PAW double counting   =      4596.96076025    -4601.59363257
  entropy T*S    EENTRO =        -0.00000000
  eigenvalues    EBANDS =      -652.67692395
  atomic energy  EATOM  =      1549.87284757
  ---------------------------------------------------
  free energy    TOTEN  =      -137.75462146 eV

  energy without entropy =     -137.75462146  energy(sigma->0) =     -137.75462146
  exchange ACFDT corr.  =        -0.00000000  see jH, gK, PRB 81, 115126


--------------------------------------------------------------------------------------------------------




--------------------------------------- Iteration      1(   7)  ---------------------------------------


    POTLOK:  cpu time    121.4626: real time    122.4878
    SETDIJ:  cpu time      0.0979: real time      0.0985
    TRIAL :  cpu time     86.3822: real time     87.1025
    CORREC:  cpu time      0.0018: real time      0.0018
    CHARGE:  cpu time      1.4772: real time      1.4892
    --------------------------------------------
      LOOP:  cpu time    209.4247: real time    211.1932

 eigenvalue-minimisations  :     0
 total energy-change (2. order) :-0.5115148E-03  (-0.3614342E-03)
 number of electron      47.9999996 magnetization       0.0000000
 augmentation part        1.0936258 magnetization      -0.0000154

 Free energy of the ion-electron system (eV)
  ---------------------------------------------------
  alpha Z        PSCENC =         0.16864210
  Ewald energy   TEWEN  =      4951.57965347
  -Hartree energ DENC   =     -6215.81099546
  -exchange      EXHF   =       104.72360081
  -V(xc)+E(xc)   XCENC  =       121.84983107
  PAW double counting   =      4601.15961391    -4605.79265215
  entropy T*S    EENTRO =        -0.00000000
  eigenvalues    EBANDS =      -652.70880571
  atomic energy  EATOM  =      1549.87284757
  ---------------------------------------------------
  free energy    TOTEN  =      -137.75513297 eV

  energy without entropy =     -137.75513297  energy(sigma->0) =     -137.75513297
  exchange ACFDT corr.  =         0.00000000  see jH, gK, PRB 81, 115126


--------------------------------------------------------------------------------------------------------




--------------------------------------- Iteration      1(   8)  ---------------------------------------


    POTLOK:  cpu time    115.6530: real time    116.5891
    SETDIJ:  cpu time      0.0965: real time      0.0970
    TRIAL :  cpu time     86.0977: real time     86.8207
    CORREC:  cpu time      0.0011: real time      0.0011
    CHARGE:  cpu time      1.4793: real time      1.4905
    --------------------------------------------
      LOOP:  cpu time    203.3292: real time    205.0061

 eigenvalue-minimisations  :     0
 total energy-change (2. order) :-0.2657767E-03  (-0.1708245E-03)
 number of electron      47.9999996 magnetization       0.0000000
 augmentation part        1.0937863 magnetization      -0.0000159

 Free energy of the ion-electron system (eV)
  ---------------------------------------------------
  alpha Z        PSCENC =         0.16864210
  Ewald energy   TEWEN  =      4951.57965347
  -Hartree energ DENC   =     -6215.75675312
  -exchange      EXHF   =       104.72374455
  -V(xc)+E(xc)   XCENC  =       121.85043906
  PAW double counting   =      4599.34211000    -4603.97635942
  entropy T*S    EENTRO =        -0.00000000
  eigenvalues    EBANDS =      -652.75249306
  atomic energy  EATOM  =      1549.87284757
  ---------------------------------------------------
  free energy    TOTEN  =      -137.75539875 eV

  energy without entropy =     -137.75539875  energy(sigma->0) =     -137.75539875
  exchange ACFDT corr.  =         0.00000000  see jH, gK, PRB 81, 115126


--------------------------------------------------------------------------------------------------------




--------------------------------------- Iteration      1(   9)  ---------------------------------------


    POTLOK:  cpu time    113.4660: real time    114.4088
    SETDIJ:  cpu time      0.1102: real time      0.1108
    TRIAL :  cpu time     86.4787: real time     87.1932
    CORREC:  cpu time      0.0019: real time      0.0019
    CHARGE:  cpu time      1.4779: real time      1.4902
    --------------------------------------------
      LOOP:  cpu time    201.5371: real time    203.2145

 eigenvalue-minimisations  :     0
 total energy-change (2. order) :-0.1268744E-03  (-0.7570875E-04)
 number of electron      47.9999996 magnetization       0.0000000
 augmentation part        1.0938713 magnetization      -0.0000155

 Free energy of the ion-electron system (eV)
  ---------------------------------------------------
  alpha Z        PSCENC =         0.16864210
  Ewald energy   TEWEN  =      4951.57965347
  -Hartree energ DENC   =     -6215.75339020
  -exchange      EXHF   =       104.72327319
  -V(xc)+E(xc)   XCENC  =       121.85089142
  PAW double counting   =      4595.62587436    -4600.26137411
  entropy T*S    EENTRO =        -0.00000000
  eigenvalues    EBANDS =      -652.75932075
  atomic energy  EATOM  =      1549.87284757
  ---------------------------------------------------
  free energy    TOTEN  =      -137.75552563 eV

  energy without entropy =     -137.75552563  energy(sigma->0) =     -137.75552563
  exchange ACFDT corr.  =         0.00000000  see jH, gK, PRB 81, 115126


--------------------------------------------------------------------------------------------------------




--------------------------------------- Iteration      1(  10)  ---------------------------------------


    POTLOK:  cpu time    109.7155: real time    110.6742
    SETDIJ:  cpu time      0.0964: real time      0.0969
    TRIAL :  cpu time     86.5204: real time     87.2303
    CORREC:  cpu time      0.0012: real time      0.0012
    CHARGE:  cpu time      1.4848: real time      1.4956
    --------------------------------------------
      LOOP:  cpu time    197.8201: real time    199.5078

 eigenvalue-minimisations  :     0
 total energy-change (2. order) :-0.5620483E-04  (-0.3258768E-04)
 number of electron      47.9999996 magnetization       0.0000000
 augmentation part        1.0938998 magnetization      -0.0000141

 Free energy of the ion-electron system (eV)
  ---------------------------------------------------
  alpha Z        PSCENC =         0.16864210
  Ewald energy   TEWEN  =      4951.57965347
  -Hartree energ DENC   =     -6215.75881101
  -exchange      EXHF   =       104.72274069
  -V(xc)+E(xc)   XCENC  =       121.85113050
  PAW double counting   =      4592.07107323    -4596.70757428
  entropy T*S    EENTRO =        -0.00000000
  eigenvalues    EBANDS =      -652.75585943
  atomic energy  EATOM  =      1549.87284757
  ---------------------------------------------------
  free energy    TOTEN  =      -137.75558183 eV

  energy without entropy =     -137.75558183  energy(sigma->0) =     -137.75558183
  exchange ACFDT corr.  =         0.00000000  see jH, gK, PRB 81, 115126


--------------------------------------------------------------------------------------------------------




--------------------------------------- Iteration      1(  11)  ---------------------------------------


    POTLOK:  cpu time    107.8137: real time    108.7864
    SETDIJ:  cpu time      0.1128: real time      0.1134
    TRIAL :  cpu time     86.1756: real time     86.8831
    CORREC:  cpu time      0.0011: real time      0.0011
    CHARGE:  cpu time      1.4758: real time      1.4875
    --------------------------------------------
      LOOP:  cpu time    195.5800: real time    197.2785

 eigenvalue-minimisations  :     0
 total energy-change (2. order) :-0.2450480E-04  (-0.1534961E-04)
 number of electron      47.9999996 magnetization       0.0000000
 augmentation part        1.0939042 magnetization      -0.0000119

 Free energy of the ion-electron system (eV)
  ---------------------------------------------------
  alpha Z        PSCENC =         0.16864210
  Ewald energy   TEWEN  =      4951.57965347
  -Hartree energ DENC   =     -6215.75132294
  -exchange      EXHF   =       104.72216791
  -V(xc)+E(xc)   XCENC  =       121.85100216
  PAW double counting   =      4589.54132241    -4594.17834210
  entropy T*S    EENTRO =        -0.00000000
  eigenvalues    EBANDS =      -652.76078932
  atomic energy  EATOM  =      1549.87284757
  ---------------------------------------------------
  free energy    TOTEN  =      -137.75560633 eV

  energy without entropy =     -137.75560633  energy(sigma->0) =     -137.75560633
  exchange ACFDT corr.  =        -0.00000000  see jH, gK, PRB 81, 115126


--------------------------------------------------------------------------------------------------------




--------------------------------------- Iteration      1(  12)  ---------------------------------------


    POTLOK:  cpu time    104.5748: real time    105.4128
    SETDIJ:  cpu time      0.0980: real time      0.1005
    TRIAL :  cpu time     86.5041: real time     87.2206
    CORREC:  cpu time      0.0020: real time      0.0020
    CHARGE:  cpu time      1.4830: real time      1.4938
    --------------------------------------------
      LOOP:  cpu time    192.6678: real time    194.2412

 eigenvalue-minimisations  :     0
 total energy-change (2. order) :-0.1210715E-04  (-0.8330254E-05)
 number of electron      47.9999996 magnetization       0.0000000
 augmentation part        1.0939061 magnetization      -0.0000099

 Free energy of the ion-electron system (eV)
  ---------------------------------------------------
  alpha Z        PSCENC =         0.16864210
  Ewald energy   TEWEN  =      4951.57965347
  -Hartree energ DENC   =     -6215.74141525
  -exchange      EXHF   =       104.72184445
  -V(xc)+E(xc)   XCENC  =       121.85081924
  PAW double counting   =      4588.22607408    -4592.86332851
  entropy T*S    EENTRO =        -0.00000000
  eigenvalues    EBANDS =      -652.76746927
  atomic energy  EATOM  =      1549.87284757
  ---------------------------------------------------
  free energy    TOTEN  =      -137.75561844 eV

  energy without entropy =     -137.75561844  energy(sigma->0) =     -137.75561844
  exchange ACFDT corr.  =        -0.00000000  see jH, gK, PRB 81, 115126


--------------------------------------------------------------------------------------------------------




--------------------------------------- Iteration      1(  13)  ---------------------------------------


    POTLOK:  cpu time    100.8452: real time    101.6975
    SETDIJ:  cpu time      0.1003: real time      0.1009
    TRIAL :  cpu time     87.2929: real time     88.0309
    CORREC:  cpu time      0.0015: real time      0.0015
    CHARGE:  cpu time      1.4858: real time      1.4983
    --------------------------------------------
      LOOP:  cpu time    189.7332: real time    191.3439

 eigenvalue-minimisations  :     0
 total energy-change (2. order) :-0.6980159E-05  (-0.4898418E-05)
 number of electron      47.9999996 magnetization       0.0000000
 augmentation part        1.0939102 magnetization      -0.0000082

 Free energy of the ion-electron system (eV)
  ---------------------------------------------------
  alpha Z        PSCENC =         0.16864210
  Ewald energy   TEWEN  =      4951.57965347
  -Hartree energ DENC   =     -6215.73934476
  -exchange      EXHF   =       104.72187821
  -V(xc)+E(xc)   XCENC  =       121.85082618
  PAW double counting   =      4587.79976436    -4592.43710435
  entropy T*S    EENTRO =        -0.00000000
  eigenvalues    EBANDS =      -652.76833112
  atomic energy  EATOM  =      1549.87284757
  ---------------------------------------------------
  free energy    TOTEN  =      -137.75562542 eV

  energy without entropy =     -137.75562542  energy(sigma->0) =     -137.75562542
  exchange ACFDT corr.  =        -0.00000000  see jH, gK, PRB 81, 115126


--------------------------------------------------------------------------------------------------------


  average scaling for gradient   1.6587


 average (electrostatic) potential at core
  the test charge radii are     0.6991  0.5201
  (the norm of the test charge is              1.0000)
       1 -55.0277       2 -55.0277       3 -55.0478       4 -55.3238       5 -55.0478
       6 -55.0277       7 -55.0277       8 -55.0478       9 -55.3238      10 -55.0478
      11 -37.8998      12 -37.9001      13 -37.8621      14 -37.8624      15 -37.8998
      16 -37.9001      17 -37.8621      18 -37.8624
 
 
 
 E-fermi :  -5.7445     XC(G=0):  -0.0246     alpha+bet : -0.0191

 Fermi energy:        -5.7445301729

 spin component 1

 k-point     1 :       0.0000    0.0000    0.0000
  band No.  band energies     occupation 
      1     -24.1738      1.00000
      2     -22.6713      1.00000
      3     -21.3594      1.00000
      4     -20.4333      1.00000
      5     -19.8022      1.00000
      6     -17.1873      1.00000
      7     -16.7920      1.00000
      8     -16.3242      1.00000
      9     -14.0156      1.00000
     10     -13.9172      1.00000
     11     -13.4613      1.00000
     12     -12.1267      1.00000
     13     -12.0040      1.00000
     14     -11.3193      1.00000
     15     -11.2886      1.00000
     16     -10.8539      1.00000
     17     -10.7998      1.00000
     18      -9.9638      1.00000
     19      -9.0899      1.00000
     20      -9.1294      1.00000
     21      -8.9013      1.00000
     22      -7.9458      1.00000
     23      -6.8026      1.00000
     24      -6.0213      1.00000
     25      -1.6978      0.00000
     26      -0.9438      0.00000
     27      -0.1525      0.00000
     28      -0.3126      0.00000
     29      -0.0223      0.00000
     30       0.0253      0.00000
     31       0.0154      0.00000
     32       0.0951      0.00000
     33       0.0986      0.00000
     34       0.0996      0.00000
     35       0.1183      0.00000
     36       0.1241      0.00000
     37       0.1361      0.00000
     38       0.1819      0.00000
     39       0.1924      0.00000
     40       0.1994      0.00000
     41       0.2024      0.00000
     42       0.2101      0.00000
     43       0.2466      0.00000
     44       0.2846      0.00000
 Fermi energy:        -5.7445301729

 spin component 2

 k-point     1 :       0.0000    0.0000    0.0000
  band No.  band energies     occupation 
      1     -24.1738      1.00000
      2     -22.6713      1.00000
      3     -21.3595      1.00000
      4     -20.4333      1.00000
      5     -19.8022      1.00000
      6     -17.1873      1.00000
      7     -16.7920      1.00000
      8     -16.3242      1.00000
      9     -14.0156      1.00000
     10     -13.9172      1.00000
     11     -13.4613      1.00000
     12     -12.1267      1.00000
     13     -12.0040      1.00000
     14     -11.3193      1.00000
     15     -11.2886      1.00000
     16     -10.8539      1.00000
     17     -10.7998      1.00000
     18      -9.9639      1.00000
     19      -9.0899      1.00000
     20      -9.1294      1.00000
     21      -8.9013      1.00000
     22      -7.9459      1.00000
     23      -6.8026      1.00000
     24      -6.0213      1.00000
     25      -1.6978      0.00000
     26      -0.9438      0.00000
     27      -0.1502      0.00000
     28      -0.3125      0.00000
     29      -0.0207      0.00000
     30       0.0244      0.00000
     31       0.0158      0.00000
     32       0.0957      0.00000
     33       0.0991      0.00000
     34       0.1019      0.00000
     35       0.1180      0.00000
     36       0.1335      0.00000
     37       0.1469      0.00000
     38       0.1779      0.00000
     39       0.1904      0.00000
     40       0.1919      0.00000
     41       0.1938      0.00000
     42       0.1958      0.00000
     43       0.2002      0.00000
     44       0.2215      0.00000


--------------------------------------------------------------------------------------------------------


 soft charge-density along one line, spin component           1
         0         1         2         3         4         5         6         7         8         9
 total charge-density along one line
 
 soft charge-density along one line, spin component           2
         0         1         2         3         4         5         6         7         8         9
 total charge-density along one line
 
 pseudopotential strength for first ion, spin component:           1
  9.985  13.277   0.001   0.000  -0.001  -0.002  -0.000   0.002
 13.277  17.653   0.001   0.000  -0.001  -0.003  -0.000   0.003
  0.001   0.001  -4.205   0.000  -0.001   8.199  -0.000   0.001
  0.000   0.000   0.000  -4.206  -0.000  -0.000   8.205   0.000
 -0.001  -0.001  -0.001  -0.000  -4.205   0.001   0.000   8.198
 -0.002  -0.003   8.199  -0.000   0.001 -18.101   0.000  -0.001
 -0.000  -0.000  -0.000   8.205   0.000   0.000 -18.119  -0.000
  0.002   0.003   0.001   0.000   8.198  -0.001  -0.000 -18.100
 pseudopotential strength for first ion, spin component:           2
  9.985  13.277   0.001  -0.000  -0.001  -0.002   0.000   0.002
 13.277  17.653   0.001  -0.000  -0.001  -0.003   0.000   0.003
  0.001   0.001  -4.205   0.000  -0.001   8.199  -0.000   0.001
 -0.000  -0.000   0.000  -4.206  -0.000  -0.000   8.205   0.000
 -0.001  -0.001  -0.001  -0.000  -4.205   0.001   0.000   8.198
 -0.002  -0.003   8.199  -0.000   0.001 -18.101   0.000  -0.001
  0.000   0.000  -0.000   8.205   0.000   0.000 -18.119  -0.000
  0.002   0.003   0.001   0.000   8.198  -0.001  -0.000 -18.100
 total augmentation occupancy for first ion, spin component:           1
  8.757  -3.946   0.052  -0.000  -0.249   0.014   0.000  -0.049
 -3.946   1.813  -0.041  -0.000   0.158  -0.009  -0.000   0.029
  0.052  -0.041   1.828   0.000   0.054   0.174  -0.000   0.010
 -0.000  -0.000   0.000   1.145  -0.000   0.000   0.075  -0.000
 -0.249   0.158   0.054  -0.000   1.826   0.010   0.000   0.169
  0.014  -0.009   0.174   0.000   0.010   0.018  -0.000   0.002
  0.000  -0.000  -0.000   0.075   0.000  -0.000   0.005   0.000
 -0.049   0.029   0.010  -0.000   0.169   0.002   0.000   0.017
 total augmentation occupancy for first ion, spin component:           2
  0.000  -0.000  -0.000   0.000   0.000  -0.000  -0.000   0.000
 -0.000   0.000   0.000   0.000  -0.000   0.000   0.000  -0.000
 -0.000   0.000   0.000   0.000   0.000   0.000  -0.000   0.000
  0.000   0.000   0.000  -0.000   0.000  -0.000  -0.000   0.000
  0.000  -0.000   0.000   0.000   0.000  -0.000  -0.000  -0.000
 -0.000   0.000   0.000  -0.000  -0.000   0.000  -0.000  -0.000
 -0.000   0.000  -0.000  -0.000  -0.000  -0.000  -0.000   0.000
  0.000  -0.000   0.000   0.000  -0.000  -0.000   0.000  -0.000


------------------------ aborting loop because EDIFF is reached ----------------------------------------


    FORLOC:  cpu time      0.3452: real time      0.3497
    FORHF :  cpu time     58.9950: real time     59.5136
    FORNL :  cpu time      4.4183: real time      4.4509
    STRESS:  cpu time     13.4260: real time     13.5375
    FORCOR:  cpu time      8.4426: real time      8.4909
    OFIELD:  cpu time      0.0331: real time      0.0333
 WARNING: Using user supplied parameters
     VDW_A1 = 0.383
     VDW_A2 = 5.685
     VDW_S8 = 2.31
     because the xc functional is not supported. Required parameters not
     defined in the INCAR file will be replaced with PBE defaults ones.


 ---------------------------------------------------------------------------------------------

         DFTD3 V3.0 Rev 1        
 IVDW         = 12
 DF unknown   
 parameters
 VDW_S6       =    1.0000
 VDW_S8       =    2.3100
 VDW_A1       =    0.3830
 VDW_A2       =    5.6850
 k1-k3        =   16.0000    1.3333   -4.0000
 VDW_RADIUS   =   50.2022 A
 VDW_CNRADIUS =   21.1671 A
 Edisp (eV)   -0.38828

 E6    (eV) :    -0.1954
 E8    (eV) :    -0.1929
 % E8        : 49.68
    FORVDW:  cpu time      0.0057: real time      0.0057

  FORCE on cell =-STRESS in cart. coord.  units (eV):
  Direction    XX          YY          ZZ          XY          YZ          ZX
  --------------------------------------------------------------------------------------
  Alpha Z     0.16864     0.16864     0.16864
  Ewald    3111.97021  2234.61072  -395.00113    -0.00600     0.00000    -0.00000
  Hartree  3109.10629  2358.88124   747.75349    -0.00620    -0.00001     0.00001
  E(xc)    -130.93461  -131.04047  -133.24421     0.00001    -0.00000     0.00000
  Local   -6661.77952 -5032.95070  -885.44979     0.01239     0.00001    -0.00001
  n-local   -51.72174   -52.49605   -46.90294    -0.00001     0.00000    -0.00000
  augment    -2.69489    -2.72421    -2.55697     0.00000    -0.00000     0.00000
  Kinetic   669.43470   669.39912   753.57366    -0.00002    -0.00001     0.00000
  Fock      -47.07090   -46.80164   -41.48402    -0.00001    -0.00000    -0.00000
  vdW        -0.16754    -0.07879    -0.00000     0.00000     0.00000     0.00000
  -------------------------------------------------------------------------------------
  Total      -3.68936    -3.03214    -3.14327     0.00000     0.00000     0.00000
  in kB      -0.09236    -0.07591    -0.07869     0.00000     0.00000     0.00000
  external pressure =       -0.08 kB  Pullay stress =        0.00 kB


 VOLUME and BASIS-vectors are now :
 -----------------------------------------------------------------------------
  energy-cutoff  :      500.00
  volume of cell :    64000.00
      direct lattice vectors                 reciprocal lattice vectors
    40.000000000  0.000000000  0.000000000     0.025000000  0.000000000  0.000000000
     0.000000000 40.000000000  0.000000000     0.000000000  0.025000000  0.000000000
     0.000000000  0.000000000 40.000000000     0.000000000  0.000000000  0.025000000

  length of vectors
    40.000000000 40.000000000 40.000000000     0.025000000  0.025000000  0.025000000


 FORCES acting on ions:
    Electron-Ion                     Ewald-Force                    Non-Local-Force
 -----------------------------------------------------------------------------------------------
   -.201E+03 0.891E+02 0.586E-06   0.201E+03 -.894E+02 -.467E-17   -.109E+01 0.611E+00 -.662E-23
   -.201E+03 -.891E+02 0.138E-05   0.201E+03 0.894E+02 -.298E-17   -.109E+01 -.611E+00 0.662E-23
   -.681E+02 -.194E+03 0.481E-06   0.682E+02 0.194E+03 -.294E-17   -.256E+00 -.127E+01 -.331E-23
   -.417E-03 -.874E+02 -.329E-06   0.399E-03 0.872E+02 0.307E-17   0.298E-21 -.427E+00 -.993E-23
   0.681E+02 -.194E+03 0.568E-06   -.682E+02 0.194E+03 0.133E-17   0.256E+00 -.127E+01 -.414E-23
   0.201E+03 -.891E+02 -.106E-05   -.201E+03 0.894E+02 0.234E-17   0.109E+01 -.611E+00 0.331E-22
   0.201E+03 0.891E+02 0.106E-05   -.201E+03 -.894E+02 0.636E-17   0.109E+01 0.611E+00 -.265E-22
   0.681E+02 0.194E+03 0.243E-06   -.682E+02 -.194E+03 0.135E-17   0.256E+00 0.127E+01 0.000E+00
   0.423E-03 0.874E+02 0.274E-06   -.399E-03 -.872E+02 -.360E-17   0.106E-21 0.427E+00 0.165E-22
   -.681E+02 0.194E+03 0.220E-05   0.682E+02 -.194E+03 -.605E-18   -.256E+00 0.127E+01 0.207E-23
   -.144E+02 0.880E+02 0.134E-07   0.144E+02 -.932E+02 -.498E-18   0.398E-03 0.564E+01 0.248E-23
   0.144E+02 0.880E+02 0.696E-06   -.144E+02 -.932E+02 0.221E-17   -.398E-03 0.564E+01 -.827E-24
   0.778E+02 0.413E+02 0.119E-05   -.824E+02 -.440E+02 0.938E-19   0.493E+01 0.282E+01 0.000E+00
   0.778E+02 -.413E+02 -.144E-05   -.824E+02 0.440E+02 0.206E-18   0.493E+01 -.282E+01 0.000E+00
   0.144E+02 -.880E+02 -.109E-05   -.144E+02 0.932E+02 0.147E-17   -.398E-03 -.564E+01 0.000E+00
   -.144E+02 -.880E+02 0.380E-06   0.144E+02 0.932E+02 0.135E-18   0.398E-03 -.564E+01 -.207E-23
   -.778E+02 -.413E+02 0.156E-05   0.824E+02 0.440E+02 0.431E-18   -.493E+01 -.282E+01 -.331E-23
   -.778E+02 0.413E+02 -.419E-06   0.824E+02 -.440E+02 0.110E-18   -.493E+01 0.282E+01 0.331E-23
 -----------------------------------------------------------------------------------------------
   -.226E-05 -.521E-05 0.871E-05   -.284E-13 -.568E-13 0.380E-17   0.888E-15 -.888E-15 0.744E-23
 
 
 POSITION                                       TOTAL-FORCE (eV/Angst)
 -----------------------------------------------------------------------------------
     22.43613     19.29076     20.00000        -0.270561     -0.032568      0.000000
     22.43613     20.70920     20.00000        -0.270561      0.032568      0.000000
     21.24432     21.40704     20.00000         0.126396     -0.174814      0.000000
     20.00000     20.71920     20.00000         0.000000     -0.205075     -0.000000
     18.75568     21.40704     20.00000        -0.126396     -0.174814      0.000000
     17.56387     20.70924     20.00000         0.270561      0.032568      0.000000
     17.56387     19.29080     20.00000         0.270561     -0.032568     -0.000000
     18.75568     18.59296     20.00000        -0.126396      0.174814     -0.000000
     20.00000     19.28080     20.00000         0.000000      0.205075     -0.000000
     21.24432     18.59296     20.00000         0.126396      0.174814     -0.000000
     21.23899     17.50023     20.00000         0.018673      0.274589     -0.000000
     18.76097     17.50027     20.00000        -0.018673      0.274589      0.000000
     16.61573     18.75129     20.00000         0.213711      0.125345      0.000000
     16.61577     21.24875     20.00000         0.213711     -0.125345     -0.000000
     18.76101     22.49977     20.00000        -0.018673     -0.274589     -0.000000
     21.23903     22.49973     20.00000         0.018673     -0.274589      0.000000
     23.38427     21.24871     20.00000        -0.213711     -0.125345      0.000000
     23.38423     18.75125     20.00000        -0.213711      0.125345      0.000000
 -----------------------------------------------------------------------------------
    total drift:                               -0.000002     -0.000005      0.000009


--------------------------------------------------------------------------------------------------------



  FREE ENERGIE OF THE ION-ELECTRON SYSTEM (eV)
  ---------------------------------------------------
  free  energy   TOTEN  =      -138.14390845 eV

  energy  without entropy=     -138.14390845  energy(sigma->0) =     -138.14390845
 


--------------------------------------------------------------------------------------------------------


    POTLOK:  cpu time     97.4499: real time     98.3324


--------------------------------------------------------------------------------------------------------




--------------------------------------------------------------------------------------------------------


    WAVPRE:  cpu time      0.7960: real time      0.8154
    FEWALD:  cpu time      0.0110: real time      0.0110

 real space projection operators:
  total allocation   :       1987.12 KBytes
  max/ min on nodes  :         75.97         46.12

    ORTHCH:  cpu time      1.5180: real time      1.5292
    POTLOK:  cpu time    143.3824: real time    144.5692
    EDDIAG:  cpu time     81.8640: real time     82.5724
    CHARGE:  cpu time      1.4774: real time      1.4902
 writing wavefunctions
     LOOP+:  cpu time   3152.1912: real time   3180.1168


--------------------------------------- Ionic step        2  -------------------------------------------




--------------------------------------- Iteration      2(   1)  ---------------------------------------


    POTLOK:  cpu time    145.5283: real time    146.8786
    SETDIJ:  cpu time      0.1078: real time      0.1084
    TRIAL :  cpu time     86.0402: real time     86.7519
    CORREC:  cpu time      0.0013: real time      0.0013
    CHARGE:  cpu time      1.4817: real time      1.4928
    --------------------------------------------
      LOOP:  cpu time    233.2240: real time    235.2989

 eigenvalue-minimisations  :     0
 total energy-change (2. order) : 0.5171346E+00  (-0.5190705E+00)
 number of electron      47.9999991 magnetization      -0.0000000
 augmentation part        1.1060785 magnetization       0.0000463

 Free energy of the ion-electron system (eV)
  ---------------------------------------------------
  alpha Z        PSCENC =         0.16864210
  Ewald energy   TEWEN  =      4977.76830105
  -Hartree energ DENC   =     -6218.50606630
  -exchange      EXHF   =       104.77002486
  -V(xc)+E(xc)   XCENC  =       121.88703471
  PAW double counting   =      4752.58667642    -4757.23075137
  entropy T*S    EENTRO =        -0.00000000
  eigenvalues    EBANDS =      -672.09962654
  atomic energy  EATOM  =      1549.87284757
  ---------------------------------------------------
  free energy    TOTEN  =      -137.23848385 eV

  energy without entropy =     -137.23848385  energy(sigma->0) =     -137.23848385
  exchange ACFDT corr.  =        -0.00000000  see jH, gK, PRB 81, 115126


--------------------------------------------------------------------------------------------------------




--------------------------------------- Iteration      2(   2)  ---------------------------------------


    POTLOK:  cpu time    143.0875: real time    144.3648
    SETDIJ:  cpu time      0.1132: real time      0.1139
    TRIAL :  cpu time     86.3526: real time     87.0930
    CORREC:  cpu time      0.0015: real time      0.0015
    CHARGE:  cpu time      1.4821: real time      1.4930
    --------------------------------------------
      LOOP:  cpu time    231.0400: real time    233.0762

 eigenvalue-minimisations  :     0
 total energy-change (2. order) :-0.3466334E+00  (-0.2050721E+00)
 number of electron      47.9999991 magnetization      -0.0000000
 augmentation part        1.1081920 magnetization       0.0000394

 Free energy of the ion-electron system (eV)
  ---------------------------------------------------
  alpha Z        PSCENC =         0.16864210
  Ewald energy   TEWEN  =      4977.76830105
  -Hartree energ DENC   =     -6239.75904191
  -exchange      EXHF   =       105.15409729
  -V(xc)+E(xc)   XCENC  =       122.25084379
  PAW double counting   =      4699.97118740    -4704.65111150
  entropy T*S    EENTRO =        -0.00000000
  eigenvalues    EBANDS =      -654.51712348
  atomic energy  EATOM  =      1549.87284757
  ---------------------------------------------------
  free energy    TOTEN  =      -137.58511722 eV

  energy without entropy =     -137.58511722  energy(sigma->0) =     -137.58511722
  exchange ACFDT corr.  =        -0.00000000  see jH, gK, PRB 81, 115126


--------------------------------------------------------------------------------------------------------




--------------------------------------- Iteration      2(   3)  ---------------------------------------


    POTLOK:  cpu time    139.0519: real time    140.2789
    SETDIJ:  cpu time      0.0992: real time      0.1016
    TRIAL :  cpu time     86.1703: real time     86.8527
    CORREC:  cpu time      0.0019: real time      0.0019
    CHARGE:  cpu time      1.4801: real time      1.4909
    --------------------------------------------
      LOOP:  cpu time    226.8065: real time    228.7342

 eigenvalue-minimisations  :     0
 total energy-change (2. order) :-0.1266039E+00  (-0.7158024E-01)
 number of electron      47.9999991 magnetization      -0.0000000
 augmentation part        1.1049154 magnetization       0.0000230

 Free energy of the ion-electron system (eV)
  ---------------------------------------------------
  alpha Z        PSCENC =         0.16864210
  Ewald energy   TEWEN  =      4977.76830105
  -Hartree energ DENC   =     -6245.96730343
  -exchange      EXHF   =       105.20298078
  -V(xc)+E(xc)   XCENC  =       122.29325262
  PAW double counting   =      4668.38075246    -4673.06393567
  entropy T*S    EENTRO =        -0.00000000
  eigenvalues    EBANDS =      -649.73777672
  atomic energy  EATOM  =      1549.87284757
  ---------------------------------------------------
  free energy    TOTEN  =      -137.71172117 eV

  energy without entropy =     -137.71172117  energy(sigma->0) =     -137.71172117
  exchange ACFDT corr.  =        -0.00000000  see jH, gK, PRB 81, 115126


--------------------------------------------------------------------------------------------------------




--------------------------------------- Iteration      2(   4)  ---------------------------------------


    POTLOK:  cpu time    135.2942: real time    136.4522
    SETDIJ:  cpu time      0.0966: real time      0.0992
    TRIAL :  cpu time     85.9145: real time     86.6285
    CORREC:  cpu time      0.0020: real time      0.0020
    CHARGE:  cpu time      1.4762: real time      1.4873
    --------------------------------------------
      LOOP:  cpu time    222.7862: real time    224.6778

 eigenvalue-minimisations  :     0
 total energy-change (2. order) :-0.3790237E-01  (-0.1492983E-01)
 number of electron      47.9999991 magnetization      -0.0000000
 augmentation part        1.1038222 magnetization       0.0000106

 Free energy of the ion-electron system (eV)
  ---------------------------------------------------
[...]
  Ewald energy   TEWEN  =      4990.15481102
  -Hartree energ DENC   =     -6252.96884300
  -exchange      EXHF   =       105.22535819
  -V(xc)+E(xc)   XCENC  =       122.29937456
  PAW double counting   =      4709.15130082    -4713.82963498
  entropy T*S    EENTRO =        -0.00000000
  eigenvalues    EBANDS =      -654.74770413
  atomic energy  EATOM  =      1549.87284757
  ---------------------------------------------------
  free energy    TOTEN  =      -137.78645121 eV

  energy without entropy =     -137.78645121  energy(sigma->0) =     -137.78645121
  exchange ACFDT corr.  =        -0.00000000  see jH, gK, PRB 81, 115126


--------------------------------------------------------------------------------------------------------




--------------------------------------- Iteration     23(   4)  ---------------------------------------


    POTLOK:  cpu time    113.2955: real time    114.2677
    SETDIJ:  cpu time      0.1105: real time      0.1110
    TRIAL :  cpu time     85.8829: real time     86.6052
    CORREC:  cpu time      0.0017: real time      0.0017
    CHARGE:  cpu time      1.4845: real time      1.4952
    --------------------------------------------
      LOOP:  cpu time    200.7798: real time    202.4915

 eigenvalue-minimisations  :     0
 total energy-change (2. order) :-0.3182135E-04  (-0.1242853E-04)
 number of electron      47.9999995 magnetization       0.0000000
 augmentation part        1.1092762 magnetization       0.0000000

 Free energy of the ion-electron system (eV)
  ---------------------------------------------------
  alpha Z        PSCENC =         0.16864210
  Ewald energy   TEWEN  =      4990.15481102
  -Hartree energ DENC   =     -6252.93561652
  -exchange      EXHF   =       105.22429948
  -V(xc)+E(xc)   XCENC  =       122.29830810
  PAW double counting   =      4709.21133458    -4713.88955385
  entropy T*S    EENTRO =        -0.00000000
  eigenvalues    EBANDS =      -654.77679945
  atomic energy  EATOM  =      1549.87284757
  ---------------------------------------------------
  free energy    TOTEN  =      -137.78648303 eV

  energy without entropy =     -137.78648303  energy(sigma->0) =     -137.78648303
  exchange ACFDT corr.  =        -0.00000000  see jH, gK, PRB 81, 115126


--------------------------------------------------------------------------------------------------------




--------------------------------------- Iteration     23(   5)  ---------------------------------------


    POTLOK:  cpu time    109.6686: real time    110.6013
    SETDIJ:  cpu time      0.1116: real time      0.1122
    TRIAL :  cpu time     86.4148: real time     87.1326
    CORREC:  cpu time      0.0014: real time      0.0014
    CHARGE:  cpu time      1.4899: real time      1.5013
    --------------------------------------------
      LOOP:  cpu time    197.6883: real time    199.3582

 eigenvalue-minimisations  :     0
 total energy-change (2. order) :-0.6507567E-05  (-0.3688809E-05)
 number of electron      47.9999995 magnetization       0.0000000
 augmentation part        1.1092849 magnetization       0.0000000

 Free energy of the ion-electron system (eV)
  ---------------------------------------------------
  alpha Z        PSCENC =         0.16864210
  Ewald energy   TEWEN  =      4990.15481102
  -Hartree energ DENC   =     -6252.93075925
  -exchange      EXHF   =       105.22448179
  -V(xc)+E(xc)   XCENC  =       122.29838790
  PAW double counting   =      4709.24013557    -4713.91834069
  entropy T*S    EENTRO =        -0.00000000
  eigenvalues    EBANDS =      -654.78139016
  atomic energy  EATOM  =      1549.87284757
  ---------------------------------------------------
  free energy    TOTEN  =      -137.78648954 eV

  energy without entropy =     -137.78648954  energy(sigma->0) =     -137.78648954
  exchange ACFDT corr.  =        -0.00000000  see jH, gK, PRB 81, 115126


--------------------------------------------------------------------------------------------------------


  average scaling for gradient   1.0706


 average (electrostatic) potential at core
  the test charge radii are     0.6991  0.5201
  (the norm of the test charge is              1.0000)
       1 -54.9633       2 -54.9634       3 -54.9832       4 -55.2609       5 -54.9832
       6 -54.9633       7 -54.9634       8 -54.9832       9 -55.2609      10 -54.9832
      11 -37.9227      12 -37.9230      13 -37.8789      14 -37.8792      15 -37.9227
      16 -37.9230      17 -37.8789      18 -37.8792
 
 
 
 E-fermi :  -5.7555     XC(G=0):  -0.0244     alpha+bet : -0.0191

 Fermi energy:        -5.7555044552

 spin component 1

 k-point     1 :       0.0000    0.0000    0.0000
  band No.  band energies     occupation 
      1     -24.2910      1.00000
      2     -22.7741      1.00000
      3     -21.4182      1.00000
      4     -20.4894      1.00000
      5     -19.8675      1.00000
      6     -17.2199      1.00000
      7     -16.8359      1.00000
      8     -16.3924      1.00000
      9     -14.1045      1.00000
     10     -13.9110      1.00000
     11     -13.5236      1.00000
     12     -12.1402      1.00000
     13     -12.0554      1.00000
     14     -11.3510      1.00000
     15     -11.3215      1.00000
     16     -10.9321      1.00000
     17     -10.8146      1.00000
     18      -9.9577      1.00000
     19      -9.1452      1.00000
     20      -9.1215      1.00000
     21      -8.8976      1.00000
     22      -7.9684      1.00000
     23      -6.8191      1.00000
     24      -6.0388      1.00000
     25      -1.6318      0.00000
     26      -0.8812      0.00000
     27      -0.3101      0.00000
     28      -0.1181      0.00000
     29      -0.0191      0.00000
     30       0.0152      0.00000
     31       0.0271      0.00000
     32       0.0960      0.00000
     33       0.0981      0.00000
     34       0.0986      0.00000
     35       0.1173      0.00000
     36       0.1222      0.00000
     37       0.1314      0.00000
     38       0.1767      0.00000
     39       0.1880      0.00000
     40       0.1904      0.00000
     41       0.1910      0.00000
     42       0.1919      0.00000
     43       0.1937      0.00000
     44       0.1978      0.00000
 Fermi energy:        -5.7555044552

 spin component 2

 k-point     1 :       0.0000    0.0000    0.0000
  band No.  band energies     occupation 
      1     -24.2910      1.00000
      2     -22.7741      1.00000
      3     -21.4182      1.00000
      4     -20.4894      1.00000
      5     -19.8675      1.00000
      6     -17.2199      1.00000
      7     -16.8359      1.00000
      8     -16.3924      1.00000
      9     -14.1045      1.00000
     10     -13.9110      1.00000
     11     -13.5236      1.00000
     12     -12.1402      1.00000
     13     -12.0554      1.00000
     14     -11.3510      1.00000
     15     -11.3215      1.00000
     16     -10.9321      1.00000
     17     -10.8146      1.00000
     18      -9.9577      1.00000
     19      -9.1452      1.00000
     20      -9.1215      1.00000
     21      -8.8976      1.00000
     22      -7.9684      1.00000
     23      -6.8191      1.00000
     24      -6.0388      1.00000
     25      -1.6318      0.00000
     26      -0.8812      0.00000
     27      -0.3101      0.00000
     28      -0.1181      0.00000
     29      -0.0191      0.00000
     30       0.0152      0.00000
     31       0.0271      0.00000
     32       0.0960      0.00000
     33       0.0981      0.00000
     34       0.0986      0.00000
     35       0.1174      0.00000
     36       0.1227      0.00000
     37       0.1314      0.00000
     38       0.1769      0.00000
     39       0.1892      0.00000
     40       0.1909      0.00000
     41       0.1912      0.00000
     42       0.1924      0.00000
     43       0.1936      0.00000
     44       0.1954      0.00000


--------------------------------------------------------------------------------------------------------


 soft charge-density along one line, spin component           1
         0         1         2         3         4         5         6         7         8         9
 total charge-density along one line
 
 soft charge-density along one line, spin component           2
         0         1         2         3         4         5         6         7         8         9
 total charge-density along one line
 
 pseudopotential strength for first ion, spin component:           1
  9.982  13.273   0.001  -0.000  -0.001  -0.002   0.000   0.002
 13.273  17.648   0.001  -0.000  -0.001  -0.003   0.000   0.003
  0.001   0.001  -4.201   0.000  -0.001   8.190  -0.000   0.001
 -0.000  -0.000   0.000  -4.202   0.000  -0.000   8.196  -0.000
 -0.001  -0.001  -0.001   0.000  -4.201   0.001  -0.000   8.190
 -0.002  -0.003   8.190  -0.000   0.001 -18.082  -0.000  -0.001
  0.000   0.000  -0.000   8.196  -0.000  -0.000 -18.099   0.000
  0.002   0.003   0.001  -0.000   8.190  -0.001   0.000 -18.081
 pseudopotential strength for first ion, spin component:           2
  9.982  13.273   0.001   0.000  -0.001  -0.002  -0.000   0.002
 13.273  17.648   0.001   0.000  -0.001  -0.003  -0.000   0.003
  0.001   0.001  -4.201  -0.000  -0.001   8.190   0.000   0.001
  0.000   0.000  -0.000  -4.202  -0.000   0.000   8.196   0.000
 -0.001  -0.001  -0.001  -0.000  -4.201   0.001   0.000   8.190
 -0.002  -0.003   8.190   0.000   0.001 -18.082  -0.000  -0.001
 -0.000  -0.000   0.000   8.196   0.000  -0.000 -18.099  -0.000
  0.002   0.003   0.001   0.000   8.190  -0.001  -0.000 -18.081
 total augmentation occupancy for first ion, spin component:           1
  8.931  -4.046   0.051  -0.000  -0.263   0.014  -0.000  -0.051
 -4.046   1.868  -0.041   0.000   0.165  -0.009   0.000   0.030
  0.051  -0.041   1.850  -0.000   0.059   0.177   0.000   0.011
 -0.000   0.000  -0.000   1.153  -0.000  -0.000   0.076  -0.000
 -0.263   0.165   0.059  -0.000   1.851   0.011  -0.000   0.172
  0.014  -0.009   0.177  -0.000   0.011   0.018   0.000   0.002
 -0.000   0.000   0.000   0.076  -0.000   0.000   0.005  -0.000
 -0.051   0.030   0.011  -0.000   0.172   0.002  -0.000   0.017
 total augmentation occupancy for first ion, spin component:           2
  0.000  -0.000   0.000  -0.000   0.000   0.000  -0.000   0.000
 -0.000   0.000  -0.000   0.000  -0.000  -0.000   0.000  -0.000
  0.000  -0.000  -0.000  -0.000   0.000   0.000   0.000  -0.000
 -0.000   0.000  -0.000   0.000  -0.000   0.000   0.000  -0.000
  0.000  -0.000   0.000  -0.000   0.000  -0.000  -0.000   0.000
  0.000  -0.000   0.000   0.000  -0.000   0.000   0.000  -0.000
 -0.000   0.000   0.000   0.000  -0.000   0.000   0.000  -0.000
  0.000  -0.000  -0.000  -0.000   0.000  -0.000  -0.000  -0.000


------------------------ aborting loop because EDIFF is reached ----------------------------------------


    FORLOC:  cpu time      0.3484: real time      0.3501
    FORHF :  cpu time     59.1221: real time     59.6225
    FORNL :  cpu time      4.4133: real time      4.4474
    STRESS:  cpu time     13.4307: real time     13.5373
    FORCOR:  cpu time      8.3883: real time      8.4622
    OFIELD:  cpu time      0.0332: real time      0.0334

 ---------------------------------------------------------------------------------------------

         DFTD3 V3.0 Rev 1        
 Edisp (eV)   -0.38968

 E6    (eV) :    -0.1961
 E8    (eV) :    -0.1936
 % E8        : 49.68
    FORVDW:  cpu time      0.0047: real time      0.0048

  FORCE on cell =-STRESS in cart. coord.  units (eV):
  Direction    XX          YY          ZZ          XY          YZ          ZX
  --------------------------------------------------------------------------------------
  Alpha Z     0.16864     0.16864     0.16864
  Ewald    3134.16052  2250.96148  -394.96835    -0.00605    -0.00000    -0.00000
  Hartree  3125.73515  2371.65952   755.54659    -0.00625    -0.00000    -0.00000
  E(xc)    -131.40086  -131.51007  -133.71342     0.00001    -0.00000    -0.00000
  Local   -6698.86796 -5060.46842  -894.81974     0.01253     0.00000     0.00000
  n-local   -52.69511   -53.41000   -47.58785    -0.00001     0.00000     0.00000
  augment    -2.77942    -2.80830    -2.61051     0.00000    -0.00000     0.00000
  Kinetic   673.98485   673.91146   756.61139    -0.00002    -0.00000    -0.00000
  Fock      -47.34602   -47.07008   -41.74830    -0.00001    -0.00000    -0.00000
  vdW        -0.15399    -0.06780    -0.00000     0.00000     0.00000     0.00000
  -------------------------------------------------------------------------------------
  Total       0.80582     1.36644    -3.12154    -0.00000     0.00000     0.00000
  in kB       0.02017     0.03421    -0.07814    -0.00000     0.00000     0.00000
  external pressure =       -0.01 kB  Pullay stress =        0.00 kB


 VOLUME and BASIS-vectors are now :
 -----------------------------------------------------------------------------
  energy-cutoff  :      500.00
  volume of cell :    64000.00
      direct lattice vectors                 reciprocal lattice vectors
    40.000000000  0.000000000  0.000000000     0.025000000  0.000000000  0.000000000
     0.000000000 40.000000000  0.000000000     0.000000000  0.025000000  0.000000000
     0.000000000  0.000000000 40.000000000     0.000000000  0.000000000  0.025000000

  length of vectors
    40.000000000 40.000000000 40.000000000     0.025000000  0.025000000  0.025000000


 FORCES acting on ions:
    Electron-Ion                     Ewald-Force                    Non-Local-Force
 -----------------------------------------------------------------------------------------------
   -.204E+03 0.898E+02 0.309E-06   0.204E+03 -.901E+02 0.275E-17   -.967E+00 0.611E+00 0.000E+00
   -.204E+03 -.898E+02 0.173E-06   0.204E+03 0.901E+02 -.214E-17   -.967E+00 -.611E+00 -.414E-24
   -.681E+02 -.196E+03 -.256E-06   0.681E+02 0.196E+03 -.254E-17   -.246E+00 -.120E+01 0.207E-24
   -.428E-03 -.893E+02 -.489E-07   0.407E-03 0.892E+02 0.913E-18   -.529E-22 -.345E+00 0.103E-23
   0.681E+02 -.196E+03 0.258E-06   -.681E+02 0.196E+03 -.714E-17   0.246E+00 -.120E+01 0.207E-24
   0.204E+03 -.898E+02 -.113E-06   -.204E+03 0.901E+02 0.611E-17   0.967E+00 -.611E+00 0.145E-23
   0.204E+03 0.898E+02 0.360E-07   -.204E+03 -.901E+02 0.993E-17   0.967E+00 0.611E+00 -.207E-23
   0.681E+02 0.196E+03 0.108E-06   -.681E+02 -.196E+03 -.499E-17   0.246E+00 0.120E+01 0.103E-24
   0.427E-03 0.893E+02 0.811E-07   -.407E-03 -.892E+02 -.187E-17   0.265E-22 0.345E+00 0.414E-24
   -.681E+02 0.196E+03 -.847E-07   0.681E+02 -.196E+03 -.137E-17   -.246E+00 0.120E+01 0.775E-25
   -.147E+02 0.888E+02 0.551E-07   0.147E+02 -.944E+02 -.495E-18   -.277E-01 0.575E+01 0.000E+00
   0.147E+02 0.888E+02 0.668E-08   -.147E+02 -.944E+02 0.175E-17   0.277E-01 0.575E+01 0.517E-25
   0.786E+02 0.416E+02 0.267E-08   -.835E+02 -.444E+02 0.202E-17   0.501E+01 0.286E+01 0.000E+00
   0.786E+02 -.416E+02 0.295E-07   -.835E+02 0.444E+02 -.174E-18   0.501E+01 -.286E+01 0.515E-26
   0.147E+02 -.888E+02 0.106E-07   -.147E+02 0.944E+02 0.160E-18   0.277E-01 -.575E+01 -.517E-25
   -.147E+02 -.888E+02 -.435E-07   0.147E+02 0.944E+02 0.111E-17   -.277E-01 -.575E+01 0.517E-25
   -.786E+02 -.416E+02 0.232E-08   0.835E+02 0.444E+02 -.337E-18   -.501E+01 -.286E+01 -.323E-26
   -.786E+02 0.416E+02 -.146E-07   0.835E+02 -.444E+02 0.178E-18   -.501E+01 0.286E+01 0.808E-26
 -----------------------------------------------------------------------------------------------
   -.279E-06 0.369E-06 0.186E-06   -.142E-13 -.782E-13 0.386E-17   -.888E-15 -.888E-15 0.107E-23
 
 
 POSITION                                       TOTAL-FORCE (eV/Angst)
 -----------------------------------------------------------------------------------
     22.42057     19.29435     20.00000         0.005808      0.006372     -0.000000
     22.42057     20.70561     20.00000         0.005808     -0.006372      0.000000
     21.23824     21.39793     20.00000         0.014073     -0.007876     -0.000000
     20.00000     20.71280     20.00000        -0.000000      0.006943     -0.000000
     18.76176     21.39793     20.00000        -0.014073     -0.007876      0.000000
     17.57943     20.70565     20.00000        -0.005808     -0.006372     -0.000000
     17.57943     19.29439     20.00000        -0.005808      0.006372     -0.000000
     18.76176     18.60207     20.00000        -0.014073      0.007876      0.000000
     20.00000     19.28720     20.00000        -0.000000     -0.006943      0.000000
     21.23824     18.60207     20.00000         0.014073      0.007876      0.000000
     21.23697     17.51705     20.00000        -0.011836      0.005555     -0.000000
     18.76299     17.51709     20.00000         0.011836      0.005555     -0.000000
     16.63631     18.75976     20.00000         0.007423      0.002543      0.000000
     16.63635     21.24028     20.00000         0.007423     -0.002543     -0.000000
     18.76303     22.48295     20.00000         0.011836     -0.005555      0.000000
     21.23701     22.48291     20.00000        -0.011836     -0.005555     -0.000000
     23.36369     21.24024     20.00000        -0.007423     -0.002543     -0.000000
     23.36365     18.75972     20.00000        -0.007423      0.002543      0.000000
 -----------------------------------------------------------------------------------
    total drift:                               -0.000000      0.000000      0.000000


--------------------------------------------------------------------------------------------------------



  FREE ENERGIE OF THE ION-ELECTRON SYSTEM (eV)
  ---------------------------------------------------
  free  energy   TOTEN  =      -138.17616978 eV

  energy  without entropy=     -138.17616978  energy(sigma->0) =     -138.17616978
 
 d Force = 0.7052313E-04[ 0.411E-04, 0.999E-04]  d Energy = 0.5475948E-04 0.158E-04
 d Force =-0.1132660E+00[-0.113E+00,-0.113E+00]  d Ewald  =-0.1132660E+00-0.289E-07


--------------------------------------------------------------------------------------------------------


    POTLOK:  cpu time    108.1019: real time    109.0094


--------------------------------------------------------------------------------------------------------


 Conjugate gradient step on ions:
 trial-energy change:   -0.000055  1 .order   -0.000071   -0.000100   -0.000041
  (g-gl).g =-0.663E-04      g.g   = 0.369E-03  gl.gl    = 0.103E-02
 g(Force)  = 0.369E-03   g(Stress)= 0.000E+00 ortho     = 0.303E-04
 gamma     =  -0.06461
 trial     =   0.27197
 opt step  =   0.46208  (harmonic =   0.46208) maximal distance =0.00066395
 next E    =  -138.176200   (d E  =  -0.00008)


--------------------------------------------------------------------------------------------------------


  
 reached required accuracy - stopping structural energy minimisation
 writing wavefunctions
     LOOP+:  cpu time   1236.5741: real time   1248.1868
    4ORBIT:  cpu time      0.0000: real time      0.0000

 total amount of memory used by VASP MPI-rank0  1330199. kBytes
=======================================================================

   base      :      30000. kBytes
   nonlr-proj:      33212. kBytes
   fftplans  :     164499. kBytes
   grid      :     346590. kBytes
   one-center:          6. kBytes
   HF        :          4. kBytes
   wavefun   :     114423. kBytes
   fock_wrk  :     641465. kBytes
 
  
  
 General timing and accounting informations for this job:
 ========================================================
  
                  Total CPU time used (sec):    44231.895
                            User time (sec):    41731.464
                          System time (sec):     2500.429
                         Elapsed time (sec):    44633.391
  
                   Maximum memory used (kb):     1861448.
                   Average memory used (kb):          N/A
  
                          Minor page faults:     51376105
                          Major page faults:          235
                 Voluntary context switches:       832658
