 vasp.6.4.2 20Jul23 (build Sep 06 2024 14:39:43) complex                        
  
 executed on             LinuxIFC date 2025.08.29  09:21:18
 running   90 mpi-ranks, on    6 nodes
 distrk:  each k-point on   90 cores,    1 groups
 distr:  one band on NCORE=  30 cores,    3 groups


--------------------------------------------------------------------------------------------------------


 INCAR:
   SYSTEM = 188_ox
   ISTART = 1
   ICHARG = 2
   INIWAV = 1
   LHFCALC = .TRUE.
   HFSCREEN = 0.2
   NELM = 500
   ALGO = Damped
   ISPIN = 2
   EDIFF = 1E-05
   ISMEAR = 0
   SIGMA = 0.05
   PREC = accurate
   ENCUT = 500
   LREAL = auto  	
   LDIAG = .FALSE.
   LWAVE = .TRUE.
   LCHARG = .FALSE.
   LAECHG = .FALSE.
   LVHAR = .FALSE.
   LVTOT = .FALSE.
   EDIFFG = -0.02
   IBRION = 2
   NSW = 0
   ISIF = 2
   POTIM = 0.5
   IVDW = 12
   VDW_A1 = 0.383
   VDW_S8 = 2.310
   VDW_A2 = 5.685
   LPLANE = .TRUE.
   NCORE = 30
   LSCALU = .FALSE.
   NSIM = 4
   LSOL = .TRUE.
   EB_K = 35.6880
   LAMBDA_D_K = 3.04
   TAU = 0

 POTCAR:    PAW_PBE C 08Apr2002                   
 POTCAR:    PAW_PBE O 08Apr2002                   
 POTCAR:    PAW_PBE H 15Jun2001                   
 -----------------------------------------------------------------------------
|                                                                             |
|           W    W    AA    RRRRR   N    N  II  N    N   GGGG   !!!           |
|           W    W   A  A   R    R  NN   N  II  NN   N  G    G  !!!           |
|           W    W  A    A  R    R  N N  N  II  N N  N  G       !!!           |
|           W WW W  AAAAAA  RRRRR   N  N N  II  N  N N  G  GGG   !            |
|           WW  WW  A    A  R   R   N   NN  II  N   NN  G    G                |
|           W    W  A    A  R    R  N    N  II  N    N   GGGG   !!!           |
|                                                                             |
|     You use a magnetic or noncollinear calculation, but did not specify     |
|     the initial magnetic moment with the MAGMOM tag. Note that a            |
|     default of 1 will be used for all atoms. This ferromagnetic setup       |
|     may break the symmetry of the crystal, in particular it may rule        |
|     out finding an antiferromagnetic solution. Thence, we recommend         |
|     setting the initial magnetic moment manually or verifying carefully     |
|     that this magnetic setup is desired.                                    |
|                                                                             |
 -----------------------------------------------------------------------------

 -----------------------------------------------------------------------------
|                                                                             |
|           W    W    AA    RRRRR   N    N  II  N    N   GGGG   !!!           |
|           W    W   A  A   R    R  NN   N  II  NN   N  G    G  !!!           |
|           W    W  A    A  R    R  N N  N  II  N N  N  G       !!!           |
|           W WW W  AAAAAA  RRRRR   N  N N  II  N  N N  G  GGG   !            |
|           WW  WW  A    A  R   R   N   NN  II  N   NN  G    G                |
|           W    W  A    A  R    R  N    N  II  N    N   GGGG   !!!           |
|                                                                             |
|     For optimal performance we recommend to set                             |
|       NCORE = 2 up to number-of-cores-per-socket                            |
|     NCORE specifies how many cores store one orbital (NPAR=cpu/NCORE).      |
|     This setting can greatly improve the performance of VASP for DFT.       |
|     The default, NCORE=1 might be grossly inefficient on modern             |
|     multi-core architectures or massively parallel machines. Do your        |
|     own testing! More info at https://www.vasp.at/wiki/index.php/NCORE      |
|     Unfortunately you need to use the default for GW and RPA                |
|     calculations (for HF NCORE is supported but not extensively tested      |
|     yet).                                                                   |
|                                                                             |
 -----------------------------------------------------------------------------

 POTCAR:    PAW_PBE C 08Apr2002                   
   SHA256 =  253f7b50bb8d59471dbedb8285d89021f4a42ed1a2c5d38a03a736e69125dd95 C/POTCAR              
   COPYR  = (c) Copyright 08Apr2002 Georg Kresse                                                    
   COPYR  = This file is part of the software VASP. Any use, copying, and all other rights are regul
   COPYR  = If you do not have a valid VASP license, you may not use, copy or distribute this file. 
   VRHFIN =C: s2p2                                                                                  
   LEXCH  = PE                                                                                      
   EATOM  =   147.1560 eV,   10.8157 Ry                                                             
                                                                                                    
   TITEL  = PAW_PBE C 08Apr2002                                                                     
   LULTRA =        F    use ultrasoft PP ?                                                          
   IUNSCR =        1    unscreen: 0-lin 1-nonlin 2-no                                               
   RPACOR =    1.200    partial core radius                                                         
   POMASS =   12.011; ZVAL   =    4.000    mass and valenz                                          
   RCORE  =    1.500    outmost cutoff radius                                                       
   RWIGS  =    1.630; RWIGS  =    0.863    wigner-seitz radius (au A)                               
   ENMAX  =  400.000; ENMIN  =  300.000 eV                                                          
   ICORE  =        2    local potential                                                             
   LCOR   =        T    correct aug charges                                                         
   LPAW   =        T    paw PP                                                                      
   EAUG   =  644.873                                                                                
   DEXC   =    0.000                                                                                
   RMAX   =    1.529    core radius for proj-oper                                                   
   RAUG   =    1.300    factor for augmentation sphere                                              
   RDEP   =    1.501    radius for radial grids                                                     
   RDEPT  =    1.300    core radius for aug-charge                                                  
                                                                                                    
   Atomic configuration                                                                             
    4 entries                                                                                       
     n  l   j            E        occ.                                                              
     1  0  0.50      -273.3789   2.0000                                                             
     2  0  0.50       -13.7508   2.0000                                                             
     2  1  0.50        -5.2854   2.0000                                                             
     3  2  1.50        -5.4423   0.0000                                                             
   Description                                                                                      
     l       E           TYP  RCUT    TYP  RCUT                                                     
     0    -13.7508458     23  1.200                                                                 
     0     -8.2022199     23  1.200                                                                 
     1     -5.2854383     23  1.500                                                                 
     1     34.0145650     23  1.500                                                                 
     2     -5.4423304      7  1.500                                                                 
  local pseudopotential read in
  partial core-charges read in
  partial kinetic energy density read in
  atomic valenz-charges read in
  non local Contribution for L=           0  read in
    real space projection operators read in
  non local Contribution for L=           0  read in
    real space projection operators read in
  non local Contribution for L=           1  read in
    real space projection operators read in
  non local Contribution for L=           1  read in
    real space projection operators read in
    PAW grid and wavefunctions read in
 
   number of l-projection  operators is LMAX  =           4
   number of lm-projection operators is LMMAX =           8
 
 POTCAR:    PAW_PBE O 08Apr2002                   
   SHA256 =  818f92134a0a090dccd8ba1447fa70422a3b330e708bb4f08108d8ae51209ddf O/POTCAR              
   COPYR  = (c) Copyright 08Apr2002 Georg Kresse                                                    
   COPYR  = This file is part of the software VASP. Any use, copying, and all other rights are regul
   COPYR  = If you do not have a valid VASP license, you may not use, copy or distribute this file. 
   VRHFIN =O: s2p4                                                                                  
   LEXCH  = PE                                                                                      
   EATOM  =   432.3788 eV,   31.7789 Ry                                                             
                                                                                                    
   TITEL  = PAW_PBE O 08Apr2002                                                                     
   LULTRA =        F    use ultrasoft PP ?                                                          
   IUNSCR =        1    unscreen: 0-lin 1-nonlin 2-no                                               
   RPACOR =    1.200    partial core radius                                                         
   POMASS =   16.000; ZVAL   =    6.000    mass and valenz                                          
   RCORE  =    1.520    outmost cutoff radius                                                       
   RWIGS  =    1.550; RWIGS  =    0.820    wigner-seitz radius (au A)                               
   ENMAX  =  400.000; ENMIN  =  300.000 eV                                                          
   ICORE  =        2    local potential                                                             
   LCOR   =        T    correct aug charges                                                         
   LPAW   =        T    paw PP                                                                      
   EAUG   =  605.392                                                                                
   DEXC   =    0.000                                                                                
   RMAX   =    1.553    core radius for proj-oper                                                   
   RAUG   =    1.300    factor for augmentation sphere                                              
   RDEP   =    1.550    radius for radial grids                                                     
   RDEPT  =    1.329    core radius for aug-charge                                                  
                                                                                                    
   Atomic configuration                                                                             
    4 entries                                                                                       
     n  l   j            E        occ.                                                              
     1  0  0.50      -514.6923   2.0000                                                             
     2  0  0.50       -23.9615   2.0000                                                             
     2  1  0.50        -9.0305   4.0000                                                             
     3  2  1.50        -9.5241   0.0000                                                             
   Description                                                                                      
     l       E           TYP  RCUT    TYP  RCUT                                                     
     0    -23.9615318     23  1.200                                                                 
     0     -9.5240782     23  1.200                                                                 
     1     -9.0304911     23  1.520                                                                 
     1      8.1634956     23  1.520                                                                 
     2     -9.5240782      7  1.500                                                                 
  local pseudopotential read in
  partial core-charges read in
  partial kinetic energy density read in
  kinetic energy density of atom read in
  atomic valenz-charges read in
  non local Contribution for L=           0  read in
    real space projection operators read in
  non local Contribution for L=           0  read in
    real space projection operators read in
  non local Contribution for L=           1  read in
    real space projection operators read in
  non local Contribution for L=           1  read in
    real space projection operators read in
    PAW grid and wavefunctions read in
 
   number of l-projection  operators is LMAX  =           4
   number of lm-projection operators is LMMAX =           8
 
 POTCAR:    PAW_PBE H 15Jun2001                   
   SHA256 =  030f79b5d3ab3cf0e668861823c8fb652ff669f3e15e46930bd03bfd63a607b6 H/POTCAR              
   COPYR  = (c) Copyright 15Jun2001 Georg Kresse                                                    
   COPYR  = This file is part of the software VASP. Any use, copying, and all other rights are regul
   COPYR  = If you do not have a valid VASP license, you may not use, copy or distribute this file. 
   VRHFIN =H: ultrasoft test                                                                        
   LEXCH  = PE                                                                                      
   EATOM  =    12.4884 eV,    0.9179 Ry                                                             
                                                                                                    
   TITEL  = PAW_PBE H 15Jun2001                                                                     
   LULTRA =        F    use ultrasoft PP ?                                                          
   IUNSCR =        0    unscreen: 0-lin 1-nonlin 2-no                                               
   RPACOR =    0.000    partial core radius                                                         
   POMASS =    1.000; ZVAL   =    1.000    mass and valenz                                          
   RCORE  =    1.100    outmost cutoff radius                                                       
   RWIGS  =    0.700; RWIGS  =    0.370    wigner-seitz radius (au A)                               
   ENMAX  =  250.000; ENMIN  =  200.000 eV                                                          
   RCLOC  =    0.701    cutoff for local pot                                                        
   LCOR   =        T    correct aug charges                                                         
   LPAW   =        T    paw PP                                                                      
   EAUG   =  400.000                                                                                
   RMAX   =    1.123    core radius for proj-oper                                                   
   RAUG   =    1.200    factor for augmentation sphere                                              
   RDEP   =    1.112    radius for radial grids                                                     
   RDEPT  =    0.926    core radius for aug-charge                                                  
                                                                                                    
   Atomic configuration                                                                             
    2 entries                                                                                       
     n  l   j            E        occ.                                                              
     1  0  0.50        -6.4927   1.0000                                                             
     2  1  0.50        -3.4015   0.0000                                                             
   Description                                                                                      
     l       E           TYP  RCUT    TYP  RCUT                                                     
     0     -6.4927494     23  1.100                                                                 
     0      6.8029130     23  1.100                                                                 
     1     -4.0817478     23  1.100                                                                 
  local pseudopotential read in
  atomic valenz-charges read in
  non local Contribution for L=           0  read in
    real space projection operators read in
  non local Contribution for L=           0  read in
    real space projection operators read in
  non local Contribution for L=           1  read in
    real space projection operators read in
    PAW grid and wavefunctions read in
 
   number of l-projection  operators is LMAX  =           3
   number of lm-projection operators is LMMAX =           5
 
 Optimization of the real space projectors (new method)

 maximal supplied QI-value         = 25.13
 optimisation between [QCUT,QGAM] = [ 11.31, 22.87] = [ 35.82,146.48] Ry 
 Optimized for a Real-space Cutoff    1.03 Angstroem

   l    n(q)    QCUT    max X(q) W(low)/X(q) W(high)/X(q)  e(spline) 
   0      7    11.310   115.676    0.20E-03    0.90E-03    0.20E-06
   0      7    11.310    87.132    0.20E-03    0.89E-03    0.19E-06
   1      6    11.310     4.429    0.16E-03    0.28E-03    0.12E-06
   1      6    11.310     2.733    0.12E-03    0.21E-03    0.99E-07
 Optimization of the real space projectors (new method)

 maximal supplied QI-value         = 24.76
 optimisation between [QCUT,QGAM] = [ 11.39, 22.77] = [ 36.31,145.25] Ry 
 Optimized for a Real-space Cutoff    1.10 Angstroem

   l    n(q)    QCUT    max X(q) W(low)/X(q) W(high)/X(q)  e(spline) 
   0      7    11.387    20.381    0.22E-03    0.48E-03    0.18E-06
   0      7    11.387    15.268    0.22E-03    0.52E-03    0.19E-06
   1      7    11.387     5.964    0.22E-03    0.73E-03    0.24E-06
   1      7    11.387     5.382    0.19E-03    0.60E-03    0.21E-06
 Optimization of the real space projectors (new method)

 maximal supplied QI-value         = 34.20
 optimisation between [QCUT,QGAM] = [ 11.29, 22.57] = [ 35.68,142.71] Ry 
 Optimized for a Real-space Cutoff    1.20 Angstroem

   l    n(q)    QCUT    max X(q) W(low)/X(q) W(high)/X(q)  e(spline) 
   0      8    11.287    19.460    0.22E-03    0.50E-03    0.19E-06
   0      8    11.287    12.209    0.21E-03    0.48E-03    0.18E-06
   1      8    11.287     4.655    0.21E-03    0.11E-04    0.26E-06
  PAW_PBE C 08Apr2002                   :
 energy of atom  1       EATOM= -147.1560
 kinetic energy error for atom=    0.0076 (will be added to EATOM!!)
  PAW_PBE O 08Apr2002                   :
 energy of atom  2       EATOM= -432.3788
 kinetic energy error for atom=    0.0224 (will be added to EATOM!!)
  PAW_PBE H 15Jun2001                   :
 energy of atom  3       EATOM=  -12.4884
 kinetic energy error for atom=    0.0020 (will be added to EATOM!!)
 
 
 POSCAR: C O H
  positions in direct lattice
  velocities in cartesian coordinates
 exchange correlation table for  LEXCH =        8
   RHO(1)=    0.500       N(1)  =     2000
   RHO(2)=  100.500       N(2)  =     4000
 


--------------------------------------------------------------------------------------------------------


 ion  position               nearest neighbor table
   1  0.438  0.530  0.506-  17 1.09   2 1.39   3 1.41
   2  0.408  0.514  0.503-  18 1.09   1 1.39   6 1.40
   3  0.468  0.514  0.495-   4 1.41   1 1.41   7 1.49
   4  0.466  0.482  0.481-  19 1.09   5 1.40   3 1.41
   5  0.435  0.466  0.478-  15 1.09   4 1.40   6 1.40
   6  0.406  0.482  0.489-  16 1.09   5 1.40   2 1.40
   7  0.500  0.533  0.498-  14 1.24   8 1.49   3 1.49
   8  0.532  0.514  0.503-  13 1.41   9 1.41   7 1.49
   9  0.562  0.529  0.491-  23 1.09  10 1.39   8 1.41
  10  0.593  0.513  0.496-  24 1.09   9 1.39  11 1.40
  11  0.594  0.482  0.513-  21 1.09  12 1.40  10 1.40
  12  0.565  0.468  0.526-  22 1.09  13 1.40  11 1.40
  13  0.534  0.484  0.520-  20 1.09  12 1.40   8 1.41
  14  0.500  0.564  0.496-   7 1.24
  15  0.434  0.441  0.467-   5 1.09
  16  0.382  0.470  0.486-   6 1.09
  17  0.440  0.555  0.517-   1 1.09
  18  0.385  0.526  0.512-   2 1.09
  19  0.489  0.470  0.472-   4 1.09
  20  0.511  0.473  0.531-  13 1.09
  21  0.618  0.470  0.517-  11 1.09
  22  0.566  0.445  0.540-  12 1.09
  23  0.560  0.552  0.477-   9 1.09
  24  0.615  0.524  0.486-  10 1.09
 
  LATTYP: Found a simple cubic cell.
 ALAT       =    40.0000000000
  
  Lattice vectors:
  
 A1 = (  40.0000000000,   0.0000000000,   0.0000000000)
 A2 = (   0.0000000000,  40.0000000000,   0.0000000000)
 A3 = (   0.0000000000,   0.0000000000,  40.0000000000)


Analysis of symmetry for initial positions (statically):
=====================================================================
 Subroutine PRICEL returns:
 Original cell was already a primitive cell.
 

 Routine SETGRP: Setting up the symmetry group for a 
 simple cubic supercell.


 Subroutine GETGRP returns: Found  1 space group operations
 (whereof  1 operations were pure point group operations)
 out of a pool of 48 trial point group operations.


The static configuration has the point symmetry C_1 .


Analysis of symmetry for dynamics (positions and initial velocities):
=====================================================================
 Subroutine PRICEL returns:
 Original cell was already a primitive cell.
 

 Routine SETGRP: Setting up the symmetry group for a 
 simple cubic supercell.


 Subroutine GETGRP returns: Found  1 space group operations
 (whereof  1 operations were pure point group operations)
 out of a pool of 48 trial point group operations.


The dynamic configuration has the point symmetry C_1 .


Analysis of constrained symmetry for selective dynamics:
=====================================================================
 Subroutine PRICEL returns:
 Original cell was already a primitive cell.
 

 Routine SETGRP: Setting up the symmetry group for a 
 simple cubic supercell.


 Subroutine GETGRP returns: Found  1 space group operations
 (whereof  1 operations were pure point group operations)
 out of a pool of 48 trial point group operations.


The constrained configuration has the point symmetry C_1 .


Analysis of structural, dynamic, and magnetic symmetry:
=====================================================================
 Subroutine PRICEL returns:
 Original cell was already a primitive cell.
 

 Routine SETGRP: Setting up the symmetry group for a 
 simple cubic supercell.


 Subroutine GETGRP returns: Found  1 space group operations
 (whereof  1 operations were pure point group operations)
 out of a pool of 48 trial point group operations.


The overall configuration has the point symmetry C_1 .


 Subroutine INISYM returns: Found  1 space group operations
 (whereof  1 operations are pure point group operations),
 and found     1 'primitive' translations


----------------------------------------------------------------------------------------

                                     Primitive cell                                     

  volume of cell :   64000.0000

  direct lattice vectors                    reciprocal lattice vectors
    40.000000000  0.000000000  0.000000000     0.025000000  0.000000000  0.000000000
     0.000000000 40.000000000  0.000000000     0.000000000  0.025000000  0.000000000
     0.000000000  0.000000000 40.000000000     0.000000000  0.000000000  0.025000000

  length of vectors
    40.000000000 40.000000000 40.000000000     0.025000000  0.025000000  0.025000000

  position of ions in fractional coordinates (direct lattice)
     0.438426092  0.529999798  0.506108014
     0.407636583  0.513992716  0.503131177
     0.467914795  0.514025391  0.495490477
     0.465925907  0.481912926  0.481314759
     0.434961844  0.466116733  0.477902364
     0.405845946  0.482006630  0.488960730
     0.500155833  0.532717385  0.498116137
     0.532231268  0.514164638  0.502799763
     0.561900412  0.528615787  0.490623999
     0.592526939  0.512734098  0.495505236
     0.593977470  0.482482669  0.513117870
     0.564664857  0.468159324  0.525701344
     0.533886457  0.483786513  0.520429610
     0.500286707  0.563739674  0.496435199
     0.433578214  0.441350080  0.466583779
     0.381709193  0.469533397  0.486465365
     0.440165035  0.554969630  0.516922782
     0.384940491  0.526369181  0.511809962
     0.488504274  0.469532694  0.472399765
     0.511160809  0.472683531  0.530580445
     0.617977733  0.470130731  0.517056025
     0.565768684  0.444793702  0.539697814
     0.560471269  0.552296953  0.477182778
     0.615385184  0.523887820  0.485664607

  ion indices of the primitive-cell ions
   primitive index   ion index
                 1           1
                 2           2
                 3           3
                 4           4
                 5           5
                 6           6
                 7           7
                 8           8
                 9           9
                10          10
                11          11
                12          12
                13          13
                14          14
                15          15
                16          16
                17          17
                18          18
                19          19
                20          20
                21          21
                22          22
                23          23
                24          24

----------------------------------------------------------------------------------------

 
 
 KPOINTS: K-Point Grid                            

Automatic generation of k-mesh.
 Grid dimensions read from file:
 generate k-points for:    1    1    1

 Generating k-lattice:

  Cartesian coordinates                     Fractional coordinates (reciprocal lattice)
     0.025000000  0.000000000  0.000000000     1.000000000  0.000000000  0.000000000
     0.000000000  0.025000000  0.000000000     0.000000000  1.000000000  0.000000000
     0.000000000  0.000000000  0.025000000     0.000000000  0.000000000  1.000000000

  Length of vectors
     0.025000000  0.025000000  0.025000000

  Shift w.r.t. Gamma in fractional coordinates (k-lattice)
     0.000000000  0.000000000  0.000000000

 
 Subroutine IBZKPT returns following result:
 ===========================================
 
 Found      1 irreducible k-points:
 
 Following reciprocal coordinates:
            Coordinates               Weight
  0.000000  0.000000  0.000000      1.000000
 
 Following cartesian coordinates:
            Coordinates               Weight
  0.000000  0.000000  0.000000      1.000000
 
 
 Subroutine IBZKPT_HF returns following result:
 ==============================================
 
 Found      1 k-points in 1st BZ
 the following      1 k-points will be used (e.g. in the exchange kernel)
 Following reciprocal coordinates:   # in IRBZ
  0.000000  0.000000  0.000000    1.00000000   1 t-inv F


--------------------------------------------------------------------------------------------------------




 Dimension of arrays:
   k-points           NKPTS =      1   k-points in BZ     NKDIM =      1   number of bands    NBANDS=     60
   number of dos      NEDOS =    301   number of ions     NIONS =     24
   non local maximal  LDIM  =      4   non local SUM 2l+1 LMDIM =      8
   total plane-waves  NPLWV = ******
   max r-space proj   IRMAX =   2915   max aug-charges    IRDMAX=   5350
   dimension x,y,z NGX =   294 NGY =  294 NGZ =  294
   dimension x,y,z NGXF=   588 NGYF=  588 NGZF=  588
   support grid    NGXF=   588 NGYF=  588 NGZF=  588
   ions per type =              13   1  10
   NGX,Y,Z   is equivalent  to a cutoff of  12.22, 12.22, 12.22 a.u.
   NGXF,Y,Z  is equivalent  to a cutoff of  24.44, 24.44, 24.44 a.u.

 SYSTEM =  188_ox                                  
 POSCAR =  C O H                                   

 Startparameter for this run:
   NWRITE =      2    write-flag & timer
   PREC   = accura    normal or accurate (medium, high low for compatibility)
   ISTART =      1    job   : 0-new  1-cont  2-samecut
   ICHARG =      2    charge: 1-file 2-atom 10-const
   ISPIN  =      2    spin polarized calculation?
   LNONCOLLINEAR =      F non collinear calculations
   LSORBIT =      F    spin-orbit coupling
   INIWAV =      1    electr: 0-lowe 1-rand  2-diag
   LASPH  =      F    aspherical Exc in radial PAW
 Electronic Relaxation 1
   ENCUT  =  500.0 eV  36.75 Ry    6.06 a.u.  72.93 72.93 72.93*2*pi/ulx,y,z
   ENINI  =  500.0     initial cutoff
   ENAUG  =  644.9 eV  augmentation charge cutoff
   NELM   =    500;   NELMIN=  2; NELMDL=  0     # of ELM steps 
   EDIFF  = 0.1E-04   stopping-criterion for ELM
   LREAL  =      T    real-space projection
   NLSPLINE    = F    spline interpolate recip. space projectors
   LCOMPAT=      F    compatible to vasp.4.4
   GGA_COMPAT  = T    GGA compatible to vasp.4.4-vasp.4.6
   LMAXPAW     = -100 max onsite density
   LMAXMIX     =    2 max onsite mixed and CHGCAR
   VOSKOWN=      0    Vosko Wilk Nusair interpolation
   ROPT   =   -0.00025  -0.00025  -0.00025
 Ionic relaxation
   EDIFFG = -.2E-01   stopping-criterion for IOM
   NSW    =      0    number of steps for IOM
   NBLOCK =      1;   KBLOCK =      1    inner block; outer block 
   IBRION =     -1    ionic relax: 0-MD 1-quasi-New 2-CG
   NFREE  =      1    steps in history (QN), initial steepest desc. (CG)
   ISIF   =      2    stress and relaxation
   IWAVPR =     10    prediction:  0-non 1-charg 2-wave 3-comb
   ISYM   =      3    0-nonsym 1-usesym 2-fastsym
   LCORR  =      T    Harris-Foulkes like correction to forces

   POTIM  = 0.5000    time-step for ionic-motion
   TEIN   =    0.0    initial temperature
   TEBEG  =    0.0;   TEEND  =   0.0 temperature during run
   SMASS  =  -3.00    Nose mass-parameter (am)
   estimated Nose-frequenzy (Omega)   =  0.10E-29 period in steps = 0.13E+47 mass=  -0.366E-25a.u.
   SCALEE = 1.0000    scale energy and forces
   NPACO  =    256;   APACO  = 10.0  distance and # of slots for P.C.
   PSTRESS=    0.0 pullay stress

  Mass of Ions in am
   POMASS =  12.01 16.00  1.00
  Ionic Valenz
   ZVAL   =   4.00  6.00  1.00
  Atomic Wigner-Seitz radii
   RWIGS  =  -1.00 -1.00 -1.00
  virtual crystal weights 
   VCA    =   1.00  1.00  1.00
   NELECT =      68.0000    total number of electrons
   NUPDOWN=      -1.0000    fix difference up-down

 DOS related values:
   EMIN   =  10.00;   EMAX   =-10.00  energy-range for DOS
   EFERMI =   0.00;   METHOD = LEGACY      
   ISMEAR =     0;   SIGMA  =   0.05  broadening in eV -4-tet -1-fermi 0-gaus

 Electronic relaxation 2 (details)
   IALGO  =     53    algorithm
   LDIAG  =      F    sub-space diagonalisation (order eigenvalues)
   LSUBROT=      F    optimize rotation matrix (better conditioning)
   TURBO    =      0    0=normal 1=particle mesh
   IRESTART =      0    0=no restart 2=restart with 2 vectors
   NREBOOT  =      0    no. of reboots
   NMIN     =      0    reboot dimension
   EREF     =   0.00    reference energy to select bands
   IMIX   =      4    mixing-type and parameters
     AMIX     =   0.40;   BMIX     =  1.00
     AMIX_MAG =   1.60;   BMIX_MAG =  1.00
     AMIN     =   0.10
     WC   =   100.;   INIMIX=   1;  MIXPRE=   1;  MAXMIX= -45

 Intra band minimization:
   WEIMIN = 0.0000     energy-eigenvalue tresh-hold
   EBREAK =  0.42E-07  absolut break condition
   DEPER  =   0.30     relativ break condition  

   TIME   =   0.40     timestep for ELM

  volume/ion in A,a.u.               =    2666.67     17995.55
  Fermi-wavevector in a.u.,A,eV,Ry     =   0.167052  0.315682  0.379688  0.027906
  Thomas-Fermi vector in A             =   0.871524
 
 Write flags
   LWAVE        =      T    write WAVECAR
   LDOWNSAMPLE  =      F    k-point downsampling of WAVECAR
   LCHARG       =      F    write CHGCAR
   LVTOT        =      F    write LOCPOT, total local potential
   LVHAR        =      F    write LOCPOT, Hartree potential only
   LELF         =      F    write electronic localiz. function (ELF)
   LORBIT       =      0    0 simple, 1 ext, 2 COOP (PROOUT), +10 PAW based schemes


 Dipole corrections
   LMONO  =      F    monopole corrections only (constant potential shift)
   LDIPOL =      F    correct potential (dipole corrections)
   IDIPOL =      0    1-x, 2-y, 3-z, 4-all directions 
   EPSILON=  1.0000000 bulk dielectric constant

 Exchange correlation treatment:
   GGA     =    --    GGA type
   LEXCH   =     8    internal setting for exchange type
   LIBXC   =     F    Libxc                    
   VOSKOWN =     0    Vosko Wilk Nusair interpolation
   EXXOEP  =     0    0=HF, 1=EXX-LHF (local Hartree Fock) 2=EXX OEP
   LHFCALC =     T    Hartree Fock is set to
   LSYMGRAD=     F    symmetrize gradient (conserves proper symmetry)
   PRECFOCK=normal    Normal, Fast or Accurate (Low or Medium for compatibility)
   LRHFCALC=     F    long range Hartree Fock
   LRSCOR  =     F    long range correlation only (use DFT for short range part)
   LTHOMAS =     F    Thomas Fermi screening in HF
   LMODELHF=     F    short range full HF, long range fraction AEXX
   FOCKCORR=     1    mode to apply convergence corrections
   LFOCKACE=     F    use Adeptively-Compressed-Exchange operator
   ENCUT4O =  -1.0   cutoff for four orbital integrals eV
   LMAXFOCK=     4    L truncation for augmentation on plane wave grid
   LMAXFOCKAE=  -1    L truncation for all-electron charge restoration on plane wave grid
   NMAXFOCKAE=   1    number of basis functions for all-electron charge restoration
   LFOCKAEDFT=     F  apply the AE augmentation even for DFT
   NKREDX  =     1    reduce k-point grid by
   NKREDY  =     1    reduce k-point grid by
   NKREDZ  =     1    reduce k-point grid by
   SHIFTRED=     F    shift reduced grid of Gamma
   HFKIDENT=     F    idential grid for each k-point
   ODDONLY =     F    use only odd q-grid points
   EVENONLY=     F    use only even q-grid points
   HFALPHA =   -1.0000 decay constant for conv. correction
   MCALPHA =    0.0000 extent of test-charge in conv. correction in multipole expansion
   AEXX    =    0.2500 exact exchange contribution
   HFSCREEN=    0.2000 screening length (either q_TF or 0.3 A-1)
   HFSCREENC=   0.2000 screening length for correlation (either q_TF or 0.3 A-1)
   HFRCUT  =    0.0000 spherical cutoff for potential kernel
   ALDAX   =    0.7500 LDA exchange part
   AGGAX   =    0.7500 GGA exchange part
   ALDAC   =    1.0000 LDA correlation
   AGGAC   =    1.0000 GGA correlation
   ENCUTFOCK=  -1.0 apply spherical cutoff to Coloumb kernel
   NBANDSGWLOW=     1    first orbital included in HF term
   NBLOCK_FOCK=    64    blocking factor in FOCK_ACC

 Linear response parameters
   LEPSILON=     F    determine dielectric tensor
   LRPA    =     F    only Hartree local field effects (RPA)
   LNABLA  =     F    use nabla operator in PAW spheres
   LVEL    =     F    velocity operator in full k-point grid
   CSHIFT  =0.1000    complex shift for real part using Kramers Kronig
   OMEGAMAX=  -1.0    maximum frequency
   DEG_THRESHOLD= 0.2000000E-02 threshold for treating states as degnerate
   RTIME   =   -0.100 relaxation time in fs
  (WPLASMAI=    0.000 imaginary part of plasma frequency in eV, 0.658/RTIME)
   DFIELD  = 0.0000000 0.0000000 0.0000000 field for delta impulse in time
 
  Optional k-point grid parameters
   LKPOINTS_OPT  =     F    use optional k-point grid
   KPOINTS_OPT_MODE=     1    mode for optional k-point grid
 
 Orbital magnetization related:
   ORBITALMAG=     F  switch on orbital magnetization
   LCHIMAG   =     F  perturbation theory with respect to B field
   DQ        =  0.001000  dq finite difference perturbation B field
   LLRAUG    =     F  two centre corrections for induced B field
   LBONE     =     F  B-component reconstruction in AE one-centre
   LVGVCALC  =     T  calculate vGv susceptibility
   LVGVAPPL  =     F  apply vGv susceptibility instead of pGv for G=0

 Random number generation:
   RANDOM_GENERATOR = DEFAULT
   PCG_SEED         = not used
 Solvation model:
   LSOL    =     T         switch on solvation model
   EB_K    = 35.688000     relative permittivity of the bulk solvent
   SIGMA_K =  0.600000     width of the dielectric cavity
   NC_K    =  0.002500     cutoff charge density
   TAU     =  0.000000     cavity surface tension
   LAMBDA_D_K    =  3.040000     Debye length in Angstroms
   LRHOB     =     F     write boundcharge  density
   LRHOION     =     F     write ioniccharge density



--------------------------------------------------------------------------------------------------------


 Static calculation
 charge density and potential will be updated during run
 spin polarized calculation
 Conjugate gradient for all bands (Kresse, et al. variant)
 perform Loewdin sub-space diagonalisation
    ordering is kept fixed
    before iterative eigenvector-optimisation
 modified Broyden-mixing scheme, WC =      100.0
 initial mixing is a Kerker type mixing with AMIX =  0.4000 and BMIX =      1.0000
 Hartree-type preconditioning will be used
 using additional bands           26
 real space projection scheme for non local part
 use partial core corrections
 no Harris-corrections to forces 
 use gradient corrections 
 use of overlap-Matrix (Vanderbilt PP)
 Gauss-broadening in eV      SIGMA  =   0.05


--------------------------------------------------------------------------------------------------------


  energy-cutoff  :      500.00
  volume of cell :    64000.00
      direct lattice vectors                 reciprocal lattice vectors
    40.000000000  0.000000000  0.000000000     0.025000000  0.000000000  0.000000000
     0.000000000 40.000000000  0.000000000     0.000000000  0.025000000  0.000000000
     0.000000000  0.000000000 40.000000000     0.000000000  0.000000000  0.025000000

  length of vectors
    40.000000000 40.000000000 40.000000000     0.025000000  0.025000000  0.025000000


 
 old parameters found on file WAVECAR:
  energy-cutoff  :      500.00
  volume of cell :    64000.00
      direct lattice vectors                 reciprocal lattice vectors
    40.000000000  0.000000000  0.000000000     0.025000000  0.000000000  0.000000000
     0.000000000 40.000000000  0.000000000     0.000000000  0.025000000  0.000000000
     0.000000000  0.000000000 40.000000000     0.000000000  0.000000000  0.025000000

  length of vectors

 
 k-points in units of 2pi/SCALE and weight: K-Point Grid                            
   0.00000000  0.00000000  0.00000000       1.000
 
 k-points in reciprocal lattice and weights: K-Point Grid                            
   0.00000000  0.00000000  0.00000000       1.000
 
 position of ions in fractional coordinates (direct lattice) 
   0.43842609  0.52999980  0.50610801
   0.40763658  0.51399272  0.50313118
   0.46791480  0.51402539  0.49549048
   0.46592591  0.48191293  0.48131476
   0.43496184  0.46611673  0.47790236
   0.40584595  0.48200663  0.48896073
   0.50015583  0.53271739  0.49811614
   0.53223127  0.51416464  0.50279976
   0.56190041  0.52861579  0.49062400
   0.59252694  0.51273410  0.49550524
   0.59397747  0.48248267  0.51311787
   0.56466486  0.46815932  0.52570134
   0.53388646  0.48378651  0.52042961
   0.50028671  0.56373967  0.49643520
   0.43357821  0.44135008  0.46658378
   0.38170919  0.46953340  0.48646536
   0.44016504  0.55496963  0.51692278
   0.38494049  0.52636918  0.51180996
   0.48850427  0.46953269  0.47239976
   0.51116081  0.47268353  0.53058044
   0.61797773  0.47013073  0.51705602
   0.56576868  0.44479370  0.53969781
   0.56047127  0.55229695  0.47718278
   0.61538518  0.52388782  0.48566461
 
 position of ions in cartesian coordinates  (Angst):
  17.53704368 21.19999191 20.24432055
  16.30546334 20.55970864 20.12524709
  18.71659181 20.56101563 19.81961909
  18.63703629 19.27651703 19.25259038
  17.39847377 18.64466934 19.11609455
  16.23383785 19.28026521 19.55842921
  20.00623334 21.30869540 19.92464549
  21.28925072 20.56658551 20.11199051
  22.47601650 21.14463147 19.62495996
  23.70107758 20.50936392 19.82020943
  23.75909881 19.29930675 20.52471479
  22.58659428 18.72637297 21.02805375
  21.35545829 19.35146051 20.81718441
  20.01146827 22.54958695 19.85740797
  17.34312856 17.65400320 18.66335115
  15.26836773 18.78133588 19.45861459
  17.60660141 22.19878522 20.67691128
  15.39761965 21.05476724 20.47239848
  19.54017097 18.78130776 18.89599060
  20.44643235 18.90734123 21.22321778
  24.71910930 18.80522924 20.68224099
  22.63074738 17.79174808 21.58791256
  22.41885077 22.09187812 19.08731111
  24.61540735 20.95551280 19.42658428
 


--------------------------------------------------------------------------------------------------------


 k-point   1 :   0.0000 0.0000 0.0000  plane waves: 1624525

 maximum and minimum number of plane-waves per node :     54169    54136

 maximum number of plane-waves:   1624525
 maximum index in each direction: 
   IXMAX=   72   IYMAX=   72   IZMAX=   72
   IXMIN=  -72   IYMIN=  -72   IZMIN=  -72


 real space projection operators:
  total allocation   :       2668.52 KBytes
  max/ min on nodes  :        106.97         76.95


 parallel 3D FFT for wavefunctions:
    minimum data exchange during FFTs selected (reduces bandwidth)
 parallel 3D FFT for charge:
    minimum data exchange during FFTs selected (reduces bandwidth)


 FFT grid for exact exchange (Hartree Fock) 
  NGX =224; NGY =224; NGZ =224

 
 Radii for the augmentation spheres in the non-local exchange
 for species   1 augmentation radius   0.874 (default was   0.699)
       energy cutoff for augmentation   2000.0
 for species   2 augmentation radius   0.902 (default was   0.722)
       energy cutoff for augmentation   2000.0
 for species   3 augmentation radius   0.650 (default was   0.520)
       energy cutoff for augmentation   2000.0

 real space projection operators:
  total allocation   :        626.55 KBytes
  max/ min on nodes  :         31.36         14.34

 Maximum index for augmentation-charges in exchange           76
  SETUP_FOCK is finished

 total amount of memory used by VASP MPI-rank0   547557. kBytes
=======================================================================

   base      :      30000. kBytes
   nonlr-proj:       1545. kBytes
   fftplans  :     129164. kBytes
   grid      :     282813. kBytes
   one-center:          6. kBytes
   HF        :          4. kBytes
   wavefun   :     104025. kBytes
 
     INWAV:  cpu time     17.3268: real time     17.3378
 Broyden mixing: mesh for mixing (old mesh)
   NGX =145   NGY =145   NGZ =145
  (NGX  =588   NGY  =588   NGZ  =588)
  gives a total of ****** points

 initial charge density was supplied:
 charge density of overlapping atoms calculated
 number of electron      68.0000000 magnetization      24.0000000
 charge density for first step will be calculated from the start-wavefunctions


--------------------------------------------------------------------------------------------------------


 Maximum index for non-local projection operator          241
 Maximum index for augmentation-charges          281 (set IRDMAX)


--------------------------------------------------------------------------------------------------------


 initial charge from wavefunction
 First call to EWALD:  gamma=   0.044
 Maximum number of real-space cells 3x 3x 3
 Maximum number of reciprocal cells 3x 3x 3

    FEWALD:  cpu time      0.0062: real time      0.0062


--------------------------------------- Ionic step        1  -------------------------------------------




--------------------------------------- Iteration      1(   1)  ---------------------------------------


    POTLOK:  cpu time    373.9033: real time    373.9233
    SETDIJ:  cpu time      0.1555: real time      0.1555
    TRIAL :  cpu time    324.8586: real time    324.8514
    CORREC:  cpu time      0.0011: real time      0.0011
    CHARGE:  cpu time      3.0803: real time      3.0802
    --------------------------------------------
      LOOP:  cpu time    702.0567: real time    702.0697

 eigenvalue-minimisations  :     0
 total energy-change (2. order) :-0.1855695E+03  (-0.1704664E+00)
 number of electron      68.0000000 magnetization       0.0000000
 augmentation part        2.0430830 magnetization      -0.0000001

 Free energy of the ion-electron system (eV)
  ---------------------------------------------------
  alpha Z        PSCENC =         0.33415368
  Ewald energy   TEWEN  =      8108.58286789
  -Hartree energ DENC   =    -10116.44793771
  -exchange      EXHF   =       153.98150351
  -V(xc)+E(xc)   XCENC  =       179.19643393
  PAW double counting   =      6008.03739626    -6015.37244756
  entropy T*S    EENTRO =        -0.00000000
  eigenvalues    EBANDS =      -949.75521964
  atomic energy  EATOM  =      2439.48582409
  ---------------------------------------------------
  free energy    TOTEN  =      -185.56950910 eV

  energy without entropy =     -185.56950910  energy(sigma->0) =     -185.56950910
  exchange ACFDT corr.  =        -0.00000000  see jH, gK, PRB 81, 115126


--------------------------------------------------------------------------------------------------------




--------------------------------------- Iteration      1(   2)  ---------------------------------------


    POTLOK:  cpu time    325.8252: real time    325.8185
    SETDIJ:  cpu time      0.1588: real time      0.1588
    TRIAL :  cpu time    328.3115: real time    328.3052
    CORREC:  cpu time      0.0080: real time      0.0080
    CHARGE:  cpu time      3.4961: real time      3.4960
    --------------------------------------------
      LOOP:  cpu time    657.8421: real time    657.8416

 eigenvalue-minimisations  :     0
 total energy-change (2. order) :-0.1264518E+00  (-0.8608942E-01)
 number of electron      68.0000000 magnetization       0.0000000
 augmentation part        2.0316840 magnetization      -0.0000001

 Free energy of the ion-electron system (eV)
  ---------------------------------------------------
  alpha Z        PSCENC =         0.33415368
  Ewald energy   TEWEN  =      8108.58286789
  -Hartree energ DENC   =    -10115.77058426
  -exchange      EXHF   =       154.06541133
  -V(xc)+E(xc)   XCENC  =       179.16564787
  PAW double counting   =      6146.18472846    -6153.43300369
  entropy T*S    EENTRO =        -0.00000000
  eigenvalues    EBANDS =      -951.57762271
  atomic energy  EATOM  =      2439.48582409
  ---------------------------------------------------
  free energy    TOTEN  =      -185.69596089 eV

  energy without entropy =     -185.69596089  energy(sigma->0) =     -185.69596089
  exchange ACFDT corr.  =        -0.00000000  see jH, gK, PRB 81, 115126


--------------------------------------------------------------------------------------------------------




--------------------------------------- Iteration      1(   3)  ---------------------------------------


    POTLOK:  cpu time    321.0342: real time    321.0271
    SETDIJ:  cpu time      0.0736: real time      0.0736
    TRIAL :  cpu time    326.7893: real time    326.7819
    CORREC:  cpu time      0.0138: real time      0.0138
    CHARGE:  cpu time      3.5050: real time      3.5049
    --------------------------------------------
      LOOP:  cpu time    651.4485: real time    651.4418

 eigenvalue-minimisations  :     0
 total energy-change (2. order) :-0.5735009E-01  (-0.2451914E-01)
 number of electron      68.0000000 magnetization       0.0000000
 augmentation part        2.0260994 magnetization       0.0000000

 Free energy of the ion-electron system (eV)
  ---------------------------------------------------
  alpha Z        PSCENC =         0.33415368
  Ewald energy   TEWEN  =      8108.58286789
  -Hartree energ DENC   =    -10114.92320496
  -exchange      EXHF   =       154.10564800
  -V(xc)+E(xc)   XCENC  =       179.10563402
  PAW double counting   =      6287.54858429    -6294.71676881
  entropy T*S    EENTRO =        -0.00000000
  eigenvalues    EBANDS =      -953.17314840
  atomic energy  EATOM  =      2439.48582409
  ---------------------------------------------------
  free energy    TOTEN  =      -185.75331098 eV

  energy without entropy =     -185.75331098  energy(sigma->0) =     -185.75331098
  exchange ACFDT corr.  =         0.00000000  see jH, gK, PRB 81, 115126


--------------------------------------------------------------------------------------------------------




--------------------------------------- Iteration      1(   4)  ---------------------------------------


    POTLOK:  cpu time    311.4848: real time    311.4774
    SETDIJ:  cpu time      0.0790: real time      0.0790
    TRIAL :  cpu time    327.4193: real time    327.4114
    CORREC:  cpu time      0.0027: real time      0.0027
    CHARGE:  cpu time      3.1272: real time      3.1271
    --------------------------------------------
      LOOP:  cpu time    642.1495: real time    642.1429

 eigenvalue-minimisations  :     0
 total energy-change (2. order) :-0.1542614E-01  (-0.7133695E-02)
 number of electron      68.0000000 magnetization       0.0000000
 augmentation part        2.0249935 magnetization       0.0000001

 Free energy of the ion-electron system (eV)
  ---------------------------------------------------
  alpha Z        PSCENC =         0.33415368
  Ewald energy   TEWEN  =      8108.58286789
  -Hartree energ DENC   =    -10115.60182920
  -exchange      EXHF   =       154.16508810
  -V(xc)+E(xc)   XCENC  =       179.10599008
  PAW double counting   =      6385.35676930    -6392.47946489
  entropy T*S    EENTRO =        -0.00000000
  eigenvalues    EBANDS =      -952.81656552
  atomic energy  EATOM  =      2439.48582409
  ---------------------------------------------------
  free energy    TOTEN  =      -185.76873713 eV

  energy without entropy =     -185.76873713  energy(sigma->0) =     -185.76873713
  exchange ACFDT corr.  =        -0.00000000  see jH, gK, PRB 81, 115126


--------------------------------------------------------------------------------------------------------




--------------------------------------- Iteration      1(   5)  ---------------------------------------


    POTLOK:  cpu time    301.4332: real time    301.4233
    SETDIJ:  cpu time      0.0649: real time      0.0648
    TRIAL :  cpu time    328.6438: real time    328.6331
    CORREC:  cpu time      0.0122: real time      0.0122
    CHARGE:  cpu time      3.2994: real time      3.2993
    --------------------------------------------
      LOOP:  cpu time    633.4952: real time    633.4814

 eigenvalue-minimisations  :     0
 total energy-change (2. order) :-0.4406974E-02  (-0.2619017E-02)
 number of electron      68.0000000 magnetization      -0.0000000
 augmentation part        2.0253385 magnetization       0.0000001

 Free energy of the ion-electron system (eV)
  ---------------------------------------------------
  alpha Z        PSCENC =         0.33415368
  Ewald energy   TEWEN  =      8108.58286789
  -Hartree energ DENC   =    -10116.47447816
  -exchange      EXHF   =       154.22006603
  -V(xc)+E(xc)   XCENC  =       179.13337051
  PAW double counting   =      6438.02575485    -6445.13117520
  entropy T*S    EENTRO =        -0.00000000
  eigenvalues    EBANDS =      -951.99852292
  atomic energy  EATOM  =      2439.48582409
  ---------------------------------------------------
  free energy    TOTEN  =      -185.77314410 eV

  energy without entropy =     -185.77314410  energy(sigma->0) =     -185.77314410
  exchange ACFDT corr.  =         0.00000000  see jH, gK, PRB 81, 115126


--------------------------------------------------------------------------------------------------------




--------------------------------------- Iteration      1(   6)  ---------------------------------------


    POTLOK:  cpu time    296.9569: real time    296.9510
    SETDIJ:  cpu time      0.1949: real time      0.1949
    TRIAL :  cpu time    327.1228: real time    327.1153
    CORREC:  cpu time      0.0082: real time      0.0082
    CHARGE:  cpu time      3.2969: real time      3.2969
    --------------------------------------------
      LOOP:  cpu time    627.6169: real time    627.6094

 eigenvalue-minimisations  :     0
 total energy-change (2. order) :-0.1724328E-02  (-0.1291339E-02)
 number of electron      68.0000000 magnetization      -0.0000000
 augmentation part        2.0258477 magnetization       0.0000000

 Free energy of the ion-electron system (eV)
  ---------------------------------------------------
  alpha Z        PSCENC =         0.33415368
  Ewald energy   TEWEN  =      8108.58286789
  -Hartree energ DENC   =    -10116.67630966
  -exchange      EXHF   =       154.24335788
  -V(xc)+E(xc)   XCENC  =       179.14740783
  PAW double counting   =      6459.74511056    -6466.84789938
  entropy T*S    EENTRO =        -0.00000000
  eigenvalues    EBANDS =      -951.72684574
  atomic energy  EATOM  =      2439.48582409
  ---------------------------------------------------
  free energy    TOTEN  =      -185.77486843 eV

  energy without entropy =     -185.77486843  energy(sigma->0) =     -185.77486843
  exchange ACFDT corr.  =        -0.00000000  see jH, gK, PRB 81, 115126


--------------------------------------------------------------------------------------------------------




--------------------------------------- Iteration      1(   7)  ---------------------------------------


    POTLOK:  cpu time    300.3907: real time    300.3812
    SETDIJ:  cpu time      0.0646: real time      0.0646
    TRIAL :  cpu time    326.6313: real time    326.6206
    CORREC:  cpu time      0.1198: real time      0.1198
    CHARGE:  cpu time      3.3231: real time      3.3229
    --------------------------------------------
      LOOP:  cpu time    630.5674: real time    630.5581

 eigenvalue-minimisations  :     0
 total energy-change (2. order) :-0.9177242E-03  (-0.6429693E-03)
 number of electron      68.0000000 magnetization      -0.0000000
 augmentation part        2.0263224 magnetization       0.0000000

 Free energy of the ion-electron system (eV)
  ---------------------------------------------------
  alpha Z        PSCENC =         0.33415368
  Ewald energy   TEWEN  =      8108.58286789
  -Hartree energ DENC   =    -10116.54884979
  -exchange      EXHF   =       154.24657873
  -V(xc)+E(xc)   XCENC  =       179.14955931
  PAW double counting   =      6464.52601596    -6471.63127802
  entropy T*S    EENTRO =        -0.00000000
  eigenvalues    EBANDS =      -951.79451718
  atomic energy  EATOM  =      2439.48582409
  ---------------------------------------------------
  free energy    TOTEN  =      -185.77578615 eV

  energy without entropy =     -185.77578615  energy(sigma->0) =     -185.77578615
  exchange ACFDT corr.  =        -0.00000000  see jH, gK, PRB 81, 115126


--------------------------------------------------------------------------------------------------------




--------------------------------------- Iteration      1(   8)  ---------------------------------------


    POTLOK:  cpu time    284.3772: real time    284.3724
    SETDIJ:  cpu time      0.0730: real time      0.0730
    TRIAL :  cpu time    328.0960: real time    328.0889
    CORREC:  cpu time      0.0105: real time      0.0105
    CHARGE:  cpu time      3.1230: real time      3.1229
    --------------------------------------------
      LOOP:  cpu time    615.7148: real time    615.7102

 eigenvalue-minimisations  :     0
 total energy-change (2. order) :-0.4733715E-03  (-0.2994874E-03)
 number of electron      68.0000000 magnetization      -0.0000000
 augmentation part        2.0266753 magnetization      -0.0000000

 Free energy of the ion-electron system (eV)
  ---------------------------------------------------
  alpha Z        PSCENC =         0.33415368
  Ewald energy   TEWEN  =      8108.58286789
  -Hartree energ DENC   =    -10116.48038065
  -exchange      EXHF   =       154.24591197
  -V(xc)+E(xc)   XCENC  =       179.15029933
  PAW double counting   =      6461.78052292    -6468.88903504
  entropy T*S    EENTRO =        -0.00000000
  eigenvalues    EBANDS =      -951.85206322
  atomic energy  EATOM  =      2439.48582409
  ---------------------------------------------------
  free energy    TOTEN  =      -185.77625952 eV

  energy without entropy =     -185.77625952  energy(sigma->0) =     -185.77625952
  exchange ACFDT corr.  =        -0.00000000  see jH, gK, PRB 81, 115126


--------------------------------------------------------------------------------------------------------




--------------------------------------- Iteration      1(   9)  ---------------------------------------


    POTLOK:  cpu time    286.8319: real time    286.8237
    SETDIJ:  cpu time      0.0736: real time      0.0736
    TRIAL :  cpu time    326.7761: real time    326.7698
    CORREC:  cpu time      0.0441: real time      0.0441
    CHARGE:  cpu time      3.0971: real time      3.0970
    --------------------------------------------
      LOOP:  cpu time    616.8582: real time    616.8494

 eigenvalue-minimisations  :     0
 total energy-change (2. order) :-0.2227810E-03  (-0.1337245E-03)
 number of electron      68.0000000 magnetization      -0.0000000
 augmentation part        2.0268501 magnetization      -0.0000000

 Free energy of the ion-electron system (eV)
  ---------------------------------------------------
  alpha Z        PSCENC =         0.33415368
  Ewald energy   TEWEN  =      8108.58286789
  -Hartree energ DENC   =    -10116.47543049
  -exchange      EXHF   =       154.24487951
  -V(xc)+E(xc)   XCENC  =       179.15098677
  PAW double counting   =      6456.82056953    -6463.93185041
  entropy T*S    EENTRO =        -0.00000000
  eigenvalues    EBANDS =      -951.86260591
  atomic energy  EATOM  =      2439.48582409
  ---------------------------------------------------
  free energy    TOTEN  =      -185.77648231 eV

  energy without entropy =     -185.77648231  energy(sigma->0) =     -185.77648231
  exchange ACFDT corr.  =        -0.00000000  see jH, gK, PRB 81, 115126


--------------------------------------------------------------------------------------------------------




--------------------------------------- Iteration      1(  10)  ---------------------------------------


    POTLOK:  cpu time    236.2457: real time    236.2386
    SETDIJ:  cpu time      0.0736: real time      0.0736
    TRIAL :  cpu time    327.7116: real time    327.7017
    CORREC:  cpu time      0.0050: real time      0.0050
    CHARGE:  cpu time      3.1400: real time      3.1400
    --------------------------------------------
      LOOP:  cpu time    567.2169: real time    567.2109

 eigenvalue-minimisations  :     0
 total energy-change (2. order) :-0.1002573E-03  (-0.5957409E-04)
 number of electron      68.0000000 magnetization      -0.0000000
 augmentation part        2.0269086 magnetization       0.0000000

 Free energy of the ion-electron system (eV)
  ---------------------------------------------------
  alpha Z        PSCENC =         0.33415368
  Ewald energy   TEWEN  =      8108.58286789
  -Hartree energ DENC   =    -10116.46563036
  -exchange      EXHF   =       154.24342497
  -V(xc)+E(xc)   XCENC  =       179.15080327
  PAW double counting   =      6452.32726024    -6459.44033202
  entropy T*S    EENTRO =        -0.00000000
  eigenvalues    EBANDS =      -951.87218320
  atomic energy  EATOM  =      2439.48582409
  ---------------------------------------------------
  free energy    TOTEN  =      -185.77658256 eV

  energy without entropy =     -185.77658256  energy(sigma->0) =     -185.77658256
  exchange ACFDT corr.  =        -0.00000000  see jH, gK, PRB 81, 115126


--------------------------------------------------------------------------------------------------------




--------------------------------------- Iteration      1(  11)  ---------------------------------------


    POTLOK:  cpu time    231.1491: real time    231.1421
    SETDIJ:  cpu time      0.0731: real time      0.0730
    TRIAL :  cpu time    324.6379: real time    324.6276
    CORREC:  cpu time      0.1726: real time      0.1726
    CHARGE:  cpu time      3.7138: real time      3.7136
    --------------------------------------------
      LOOP:  cpu time    559.7816: real time    559.7736

 eigenvalue-minimisations  :     0
 total energy-change (2. order) :-0.4616731E-04  (-0.2936681E-04)
 number of electron      68.0000000 magnetization      -0.0000000
 augmentation part        2.0269299 magnetization       0.0000000

 Free energy of the ion-electron system (eV)
  ---------------------------------------------------
  alpha Z        PSCENC =         0.33415368
  Ewald energy   TEWEN  =      8108.58286789
  -Hartree energ DENC   =    -10116.45284695
  -exchange      EXHF   =       154.24246603
  -V(xc)+E(xc)   XCENC  =       179.15044606
  PAW double counting   =      6449.33896001    -6456.45289944
  entropy T*S    EENTRO =        -0.00000000
  eigenvalues    EBANDS =      -951.88156640
  atomic energy  EATOM  =      2439.48582409
  ---------------------------------------------------
  free energy    TOTEN  =      -185.77662873 eV

  energy without entropy =     -185.77662873  energy(sigma->0) =     -185.77662873
  exchange ACFDT corr.  =        -0.00000000  see jH, gK, PRB 81, 115126


--------------------------------------------------------------------------------------------------------




--------------------------------------- Iteration      1(  12)  ---------------------------------------


    POTLOK:  cpu time    234.4333: real time    234.4304
    SETDIJ:  cpu time      0.0672: real time      0.0672
    TRIAL :  cpu time    323.4811: real time    323.4777
    CORREC:  cpu time      0.0042: real time      0.0042
    CHARGE:  cpu time      3.1247: real time      3.1246
    --------------------------------------------
      LOOP:  cpu time    561.1426: real time    561.1440

 eigenvalue-minimisations  :     0
 total energy-change (2. order) :-0.2401078E-04  (-0.1616227E-04)
 number of electron      68.0000000 magnetization       0.0000000
 augmentation part        2.0269384 magnetization       0.0000000

 Free energy of the ion-electron system (eV)
  ---------------------------------------------------
  alpha Z        PSCENC =         0.33415368
  Ewald energy   TEWEN  =      8108.58286789
  -Hartree energ DENC   =    -10116.45048608
  -exchange      EXHF   =       154.24232714
  -V(xc)+E(xc)   XCENC  =       179.15042065
  PAW double counting   =      6447.82163729    -6454.93592357
  entropy T*S    EENTRO =        -0.00000000
  eigenvalues    EBANDS =      -951.88238221
  atomic energy  EATOM  =      2439.48582409
  ---------------------------------------------------
  free energy    TOTEN  =      -185.77665274 eV

  energy without entropy =     -185.77665274  energy(sigma->0) =     -185.77665274
  exchange ACFDT corr.  =        -0.00000000  see jH, gK, PRB 81, 115126


--------------------------------------------------------------------------------------------------------




--------------------------------------- Iteration      1(  13)  ---------------------------------------


    POTLOK:  cpu time    208.9469: real time    208.9408
    SETDIJ:  cpu time      0.1910: real time      0.1909
    TRIAL :  cpu time    325.2946: real time    325.2880
    CORREC:  cpu time      0.0010: real time      0.0010
    CHARGE:  cpu time      3.1238: real time      3.1237
    --------------------------------------------
      LOOP:  cpu time    537.5892: real time    537.5840

 eigenvalue-minimisations  :     0
 total energy-change (2. order) :-0.1385461E-04  (-0.9704303E-05)
 number of electron      68.0000000 magnetization       0.0000000
 augmentation part        2.0269429 magnetization       0.0000000

 Free energy of the ion-electron system (eV)
  ---------------------------------------------------
  alpha Z        PSCENC =         0.33415368
  Ewald energy   TEWEN  =      8108.58286789
  -Hartree energ DENC   =    -10116.45296312
  -exchange      EXHF   =       154.24250284
  -V(xc)+E(xc)   XCENC  =       179.15050543
  PAW double counting   =      6447.28516032    -6454.39956772
  entropy T*S    EENTRO =        -0.00000000
  eigenvalues    EBANDS =      -951.87985999
  atomic energy  EATOM  =      2439.48582409
  ---------------------------------------------------
  free energy    TOTEN  =      -185.77666660 eV

  energy without entropy =     -185.77666660  energy(sigma->0) =     -185.77666660
  exchange ACFDT corr.  =        -0.00000000  see jH, gK, PRB 81, 115126


--------------------------------------------------------------------------------------------------------




--------------------------------------- Iteration      1(  14)  ---------------------------------------


    POTLOK:  cpu time    206.2899: real time    206.2839
    SETDIJ:  cpu time      0.0745: real time      0.0745
    TRIAL :  cpu time    324.6603: real time    324.6505
    CORREC:  cpu time      0.0064: real time      0.0064
    CHARGE:  cpu time      3.7084: real time      3.7083
    --------------------------------------------
      LOOP:  cpu time    534.7769: real time    534.7677

 eigenvalue-minimisations  :     0
 total energy-change (2. order) :-0.8578366E-05  (-0.6247693E-05)
 number of electron      68.0000000 magnetization       0.0000000
 augmentation part        2.0269497 magnetization      -0.0000000

 Free energy of the ion-electron system (eV)
  ---------------------------------------------------
  alpha Z        PSCENC =         0.33415368
  Ewald energy   TEWEN  =      8108.58286789
  -Hartree energ DENC   =    -10116.45543739
  -exchange      EXHF   =       154.24270486
  -V(xc)+E(xc)   XCENC  =       179.15056974
  PAW double counting   =      6447.24620243    -6454.36063992
  entropy T*S    EENTRO =        -0.00000000
  eigenvalues    EBANDS =      -951.87778588
  atomic energy  EATOM  =      2439.48582409
  ---------------------------------------------------
  free energy    TOTEN  =      -185.77667517 eV

  energy without entropy =     -185.77667517  energy(sigma->0) =     -185.77667517
  exchange ACFDT corr.  =        -0.00000000  see jH, gK, PRB 81, 115126


--------------------------------------------------------------------------------------------------------


  average scaling for gradient   1.7086


 average (electrostatic) potential at core
  the test charge radii are     0.6991  0.7215  0.5201
  (the norm of the test charge is              1.0000)
       1 -55.2775       2 -55.1795       3 -55.4977       4 -55.3442       5 -55.1861
       6 -55.2670       7 -57.4356       8 -55.4979       9 -55.2801      10 -55.1806
      11 -55.2674      12 -55.1855      13 -55.3430      14 -74.0169      15 -37.9757
      16 -38.0015      17 -37.9838      18 -37.9677      19 -38.1068      20 -38.1037
      21 -38.0041      22 -37.9781      23 -37.9865      24 -37.9657
 
 
 
 E-fermi :  -6.7413     XC(G=0):  -0.0355     alpha+bet : -0.0258

 Fermi energy:        -6.7413069465

 spin component 1

 k-point     1 :       0.0000    0.0000    0.0000
  band No.  band energies     occupation 
      1     -28.8084      1.00000
      2     -23.9821      1.00000
      3     -23.8106      1.00000
      4     -21.5287      1.00000
      5     -20.8704      1.00000
      6     -20.7995      1.00000
      7     -20.6950      1.00000
      8     -18.1199      1.00000
      9     -16.9916      1.00000
     10     -16.8560      1.00000
     11     -16.5754      1.00000
     12     -15.3786      1.00000
     13     -14.5343      1.00000
     14     -13.8191      1.00000
     15     -12.9568      1.00000
     16     -12.7803      1.00000
     17     -12.5139      1.00000
     18     -12.2303      1.00000
     19     -11.9200      1.00000
     20     -11.6082      1.00000
     21     -11.6087      1.00000
     22     -11.6891      1.00000
     23     -10.9889      1.00000
     24     -10.3775      1.00000
     25      -9.9413      1.00000
     26      -9.9258      1.00000
     27      -9.7605      1.00000
     28      -9.3870      1.00000
     29      -9.3534      1.00000
     30      -7.2739      1.00000
     31      -7.4634      1.00000
     32      -7.2117      1.00000
     33      -7.1634      1.00000
     34      -7.0154      1.00000
     35      -2.4933      0.00000
     36      -1.1448      0.00000
     37      -1.0037      0.00000
     38      -0.7457      0.00000
     39      -0.3517      0.00000
     40      -0.0960      0.00000
     41       0.6174      0.00000
     42       0.0282      0.00000
     43       0.0129      0.00000
     44       0.0513      0.00000
     45       0.0934      0.00000
     46       0.0964      0.00000
     47       0.1133      0.00000
     48       0.1225      0.00000
     49       0.1292      0.00000
     50       0.1302      0.00000
     51       0.1852      0.00000
     52       0.1806      0.00000
     53       0.1838      0.00000
     54       0.1878      0.00000
     55       0.1898      0.00000
     56       0.1912      0.00000
     57       0.1912      0.00000
     58       0.1913      0.00000
     59       0.2574      0.00000
     60       0.2329      0.00000
 Fermi energy:        -6.7413069465

 spin component 2

 k-point     1 :       0.0000    0.0000    0.0000
  band No.  band energies     occupation 
      1     -28.8084      1.00000
      2     -23.9821      1.00000
      3     -23.8106      1.00000
      4     -21.5287      1.00000
      5     -20.8704      1.00000
      6     -20.7995      1.00000
      7     -20.6950      1.00000
      8     -18.1199      1.00000
      9     -16.9916      1.00000
     10     -16.8560      1.00000
     11     -16.5754      1.00000
     12     -15.3786      1.00000
     13     -14.5343      1.00000
     14     -13.8191      1.00000
     15     -12.9568      1.00000
     16     -12.7803      1.00000
     17     -12.5139      1.00000
     18     -12.2303      1.00000
     19     -11.9200      1.00000
     20     -11.6082      1.00000
     21     -11.6087      1.00000
     22     -11.6891      1.00000
     23     -10.9889      1.00000
     24     -10.3775      1.00000
     25      -9.9413      1.00000
     26      -9.9258      1.00000
     27      -9.7605      1.00000
     28      -9.3870      1.00000
     29      -9.3534      1.00000
     30      -7.2739      1.00000
     31      -7.4634      1.00000
     32      -7.2117      1.00000
     33      -7.1634      1.00000
     34      -7.0154      1.00000
     35      -2.4933      0.00000
     36      -1.1448      0.00000
     37      -1.0037      0.00000
     38      -0.7457      0.00000
     39      -0.3517      0.00000
     40      -0.0960      0.00000
     41       0.6174      0.00000
     42       0.0282      0.00000
     43       0.0129      0.00000
     44       0.0513      0.00000
     45       0.0934      0.00000
     46       0.0964      0.00000
     47       0.1133      0.00000
     48       0.1225      0.00000
     49       0.1291      0.00000
     50       0.1302      0.00000
     51       0.1852      0.00000
     52       0.1806      0.00000
     53       0.1838      0.00000
     54       0.1878      0.00000
     55       0.1898      0.00000
     56       0.1912      0.00000
     57       0.1912      0.00000
     58       0.1913      0.00000
     59       0.2574      0.00000
     60       0.2329      0.00000


--------------------------------------------------------------------------------------------------------


 soft charge-density along one line, spin component           1
         0         1         2         3         4         5         6         7         8         9
 total charge-density along one line
 
 soft charge-density along one line, spin component           2
         0         1         2         3         4         5         6         7         8         9
 total charge-density along one line
 
 pseudopotential strength for first ion, spin component:           1
 10.000  13.298  -0.001  -0.000   0.001   0.005   0.001  -0.002
 13.298  17.681  -0.002  -0.000   0.001   0.007   0.002  -0.002
 -0.001  -0.002  -4.218   0.002   0.001   8.224  -0.004  -0.001
 -0.000  -0.000   0.002  -4.220  -0.001  -0.004   8.230   0.002
  0.001   0.001   0.001  -0.001  -4.219  -0.001   0.002   8.226
  0.005   0.007   8.224  -0.004  -0.001 -18.152   0.011   0.003
  0.001   0.002  -0.004   8.230   0.002   0.011 -18.168  -0.004
 -0.002  -0.002  -0.001   0.002   8.226   0.003  -0.004 -18.154
 pseudopotential strength for first ion, spin component:           2
 10.000  13.298  -0.001  -0.000   0.001   0.005   0.001  -0.002
 13.298  17.681  -0.002  -0.000   0.001   0.007   0.002  -0.002
 -0.001  -0.002  -4.218   0.002   0.001   8.224  -0.004  -0.001
 -0.000  -0.000   0.002  -4.220  -0.001  -0.004   8.230   0.002
  0.001   0.001   0.001  -0.001  -4.219  -0.001   0.002   8.226
  0.005   0.007   8.224  -0.004  -0.001 -18.152   0.011   0.003
  0.001   0.002  -0.004   8.230   0.002   0.011 -18.168  -0.004
 -0.002  -0.002  -0.001   0.002   8.226   0.003  -0.004 -18.154
 total augmentation occupancy for first ion, spin component:           1
  8.727  -3.925  -0.224  -0.087  -0.027  -0.046  -0.018  -0.004
 -3.925   1.802   0.153   0.057   0.010   0.028   0.011   0.002
 -0.224   0.153   1.680   0.247   0.055   0.147   0.032   0.006
 -0.087   0.057   0.247   1.240  -0.083   0.032   0.089  -0.011
 -0.027   0.010   0.055  -0.083   1.861   0.006  -0.011   0.180
 -0.046   0.028   0.147   0.032   0.006   0.014   0.004   0.001
 -0.018   0.011   0.032   0.089  -0.011   0.004   0.007  -0.001
 -0.004   0.002   0.006  -0.011   0.180   0.001  -0.001   0.019
 total augmentation occupancy for first ion, spin component:           2
 -0.000   0.000   0.000   0.000  -0.000   0.000   0.000  -0.000
  0.000  -0.000  -0.000  -0.000   0.000  -0.000  -0.000   0.000
  0.000  -0.000  -0.000   0.000   0.000   0.000   0.000  -0.000
  0.000  -0.000   0.000  -0.000  -0.000  -0.000   0.000  -0.000
 -0.000   0.000   0.000  -0.000   0.000  -0.000   0.000  -0.000
  0.000  -0.000   0.000  -0.000  -0.000   0.000   0.000  -0.000
  0.000  -0.000   0.000   0.000   0.000   0.000   0.000   0.000
 -0.000   0.000  -0.000  -0.000  -0.000  -0.000   0.000  -0.000


------------------------ aborting loop because EDIFF is reached ----------------------------------------


    FORLOC:  cpu time      0.3609: real time      0.3609
    FORHF :  cpu time    187.2213: real time    187.2182
    FORNL :  cpu time      9.1426: real time      9.1424
    STRESS:  cpu time     27.1167: real time     27.1162
    FORCOR:  cpu time     12.6995: real time     12.6992
    OFIELD:  cpu time      0.0196: real time      0.0196
 WARNING: Using user supplied parameters
     VDW_A1 = 0.383
     VDW_A2 = 5.685
     VDW_S8 = 2.31
     because the xc functional is not supported. Required parameters not
     defined in the INCAR file will be replaced with PBE defaults ones.


 ---------------------------------------------------------------------------------------------

         DFTD3 V3.0 Rev 1        
 IVDW         = 12
 DF unknown   
 parameters
 VDW_S6       =    1.0000
 VDW_S8       =    2.3100
 VDW_A1       =    0.3830
 VDW_A2       =    5.6850
 k1-k3        =   16.0000    1.3333   -4.0000
 VDW_RADIUS   =   50.2022 A
 VDW_CNRADIUS =   21.1671 A
 Edisp (eV)   -0.55747

 E6    (eV) :    -0.2832
 E8    (eV) :    -0.2743
 % E8        : 49.20
    FORVDW:  cpu time      0.0102: real time      0.0104

  FORCE on cell =-STRESS in cart. coord.  units (eV):
  Direction    XX          YY          ZZ          XY          YZ          ZX
  --------------------------------------------------------------------------------------
  Alpha Z     0.33415     0.33415     0.33415
  Ewald    5243.56608  2815.52556    49.49116    -3.78681  -152.71751    86.42694
  Hartree  5401.95795  3267.85147  1446.64801     1.19375  -100.98181   167.47474
  E(xc)    -191.87023  -192.20615  -194.36065    -0.01124    -0.11773    -0.21057
  Local  -11320.26514 -6747.50041 -2241.80322     1.97864   249.28314  -267.11580
  n-local   -85.38610   -85.21917   -76.80760     0.02718     0.45338     0.54583
  augment     3.83904     1.88829     2.17872     0.00636     0.01445     0.27179
  Kinetic  1015.35743  1004.35763  1077.50077     0.56052     3.97170    12.01517
  Fock      -72.24426   -71.58919   -65.90356     0.02745     0.31018     0.52032
  vdW        -0.33881    -0.11367    -0.03535    -0.00127     0.00456    -0.04192
  -------------------------------------------------------------------------------------
  Total      -5.04988    -6.67148    -2.75756    -0.00543     0.22035    -0.11349
  in kB      -0.12642    -0.16701    -0.06903    -0.00014     0.00552    -0.00284
  external pressure =       -0.12 kB  Pullay stress =        0.00 kB


 VOLUME and BASIS-vectors are now :
 -----------------------------------------------------------------------------
  energy-cutoff  :      500.00
  volume of cell :    64000.00
      direct lattice vectors                 reciprocal lattice vectors
    40.000000000  0.000000000  0.000000000     0.025000000  0.000000000  0.000000000
     0.000000000 40.000000000  0.000000000     0.000000000  0.025000000  0.000000000
     0.000000000  0.000000000 40.000000000     0.000000000  0.000000000  0.025000000

  length of vectors
    40.000000000 40.000000000 40.000000000     0.025000000  0.025000000  0.025000000


 FORCES acting on ions:
    Electron-Ion                     Ewald-Force                    Non-Local-Force
 -----------------------------------------------------------------------------------------------
   0.113E+03 -.156E+03 -.775E+02   -.113E+03 0.158E+03 0.774E+02   0.390E+00 -.168E+01 -.430E+00
   0.220E+03 -.733E+02 -.562E+02   -.220E+03 0.740E+02 0.563E+02   0.130E+01 -.622E+00 -.420E+00
   0.307E+02 -.182E+02 0.489E+01   -.312E+02 0.191E+02 -.516E+01   0.251E+00 -.488E-02 -.181E-01
   -.344E+02 0.141E+03 0.979E+02   0.350E+02 -.141E+03 -.982E+02   -.103E+01 0.121E+01 0.370E+00
   0.778E+02 0.197E+03 0.931E+02   -.780E+02 -.197E+03 -.935E+02   0.258E+00 0.138E+01 0.608E+00
   0.217E+03 0.992E+02 0.233E+02   -.217E+03 -.991E+02 -.234E+02   0.119E+01 0.602E+00 0.129E+00
   -.236E-01 0.294E+01 0.334E+00   0.740E-02 -.607E+01 -.168E+00   0.179E-01 0.512E+01 -.279E+00
   -.311E+02 -.183E+02 -.188E+01   0.316E+02 0.193E+02 0.204E+01   -.259E+00 -.113E-02 0.238E-01
   -.115E+03 -.145E+03 0.942E+02   0.115E+03 0.148E+03 -.943E+02   -.412E+00 -.162E+01 0.610E+00
   -.221E+03 -.646E+02 0.631E+02   0.221E+03 0.653E+02 -.633E+02   -.131E+01 -.560E+00 0.479E+00
   -.216E+03 0.979E+02 -.350E+02   0.216E+03 -.977E+02 0.351E+02   -.120E+01 0.590E+00 -.209E+00
   -.757E+02 0.186E+03 -.114E+03   0.759E+02 -.186E+03 0.115E+03   -.233E+00 0.132E+01 -.759E+00
   0.357E+02 0.129E+03 -.112E+03   -.364E+02 -.129E+03 0.112E+03   0.104E+01 0.115E+01 -.496E+00
   -.198E+01 -.446E+03 0.246E+02   0.221E+01 0.500E+03 -.275E+02   -.195E+00 -.454E+02 0.245E+01
   0.165E+02 0.816E+02 0.383E+02   -.168E+02 -.864E+02 -.405E+02   0.292E+00 0.518E+01 0.237E+01
   0.816E+02 0.402E+02 0.864E+01   -.864E+02 -.425E+02 -.914E+01   0.505E+01 0.261E+01 0.523E+00
   0.260E+02 -.795E+02 -.390E+02   -.253E+02 0.848E+02 0.410E+02   -.386E+00 -.526E+01 -.225E+01
   0.803E+02 -.366E+02 -.264E+02   -.846E+02 0.391E+02 0.281E+02   0.475E+01 -.259E+01 -.182E+01
   -.409E+02 0.578E+02 0.456E+02   0.455E+02 -.601E+02 -.474E+02   -.474E+01 0.263E+01 0.189E+01
   0.414E+02 0.520E+02 -.514E+02   -.461E+02 -.541E+02 0.535E+02   0.476E+01 0.236E+01 -.216E+01
   -.812E+02 0.397E+02 -.133E+02   0.859E+02 -.421E+02 0.141E+02   -.503E+01 0.259E+01 -.825E+00
   -.156E+02 0.770E+02 -.471E+02   0.159E+02 -.816E+02 0.499E+02   -.234E+00 0.489E+01 -.293E+01
   -.269E+02 -.746E+02 0.473E+02   0.262E+02 0.796E+02 -.498E+02   0.320E+00 -.499E+01 0.280E+01
   -.807E+02 -.328E+02 0.298E+02   0.851E+02 0.351E+02 -.318E+02   -.478E+01 -.233E+01 0.206E+01
 -----------------------------------------------------------------------------------------------
   0.176E+00 0.394E+02 -.207E+01   0.284E-13 0.995E-13 -.284E-13   -.183E+00 -.334E+02 0.173E+01
 
 
 POSITION                                       TOTAL-FORCE (eV/Angst)
 -----------------------------------------------------------------------------------
     17.53704     21.19999     20.24432         0.053351     -0.168141     -0.064841
     16.30546     20.55971     20.12525         0.153837     -0.099933     -0.061848
     18.71659     20.56102     19.81962        -0.207355     -0.070117     -0.045303
     18.63704     19.27652     19.25259        -0.119224      0.140457      0.083976
     17.39847     18.64467     19.11609         0.012906      0.189246      0.085507
     16.23384     19.28027     19.55843         0.193687      0.100082      0.015646
     20.00623     21.30870     19.92465        -0.001432      0.787877     -0.045875
     21.28925     20.56659     20.11199         0.206035     -0.069371      0.057153
     22.47602     21.14463     19.62496        -0.044806     -0.160126      0.091595
     23.70108     20.50936     19.82021        -0.166402     -0.088134      0.074560
     23.75910     19.29931     20.52471        -0.211137      0.100883     -0.034942
     22.58659     18.72637     21.02805         0.011362      0.193274     -0.110284
     21.35546     19.35146     20.81718         0.106303      0.131804     -0.094598
     20.01147     22.54959     19.85741        -0.004921     -1.193286      0.062211
     17.34313     17.65400     18.66335         0.016664      0.233344      0.103384
     15.26837     18.78134     19.45861         0.240151      0.119647      0.027511
     17.60660     22.19879     20.67691        -0.028186     -0.241088     -0.105617
     15.39762     21.05477     20.47240         0.216890     -0.111368     -0.080682
     19.54017     18.78131     18.89599        -0.209983      0.108104      0.076253
     20.44643     18.90734     21.22322         0.217954      0.099064     -0.090113
     24.71911     18.80523     20.68224        -0.228376      0.119089     -0.036191
     22.63075     17.79175     21.58791        -0.012794      0.212403     -0.125033
     22.41885     22.09188     19.08731         0.024795     -0.233046      0.127653
     24.61541     20.95551     19.42658        -0.219320     -0.100663      0.089877
 -----------------------------------------------------------------------------------
    total drift:                               -0.033238     -0.000323     -0.016188


--------------------------------------------------------------------------------------------------------



  FREE ENERGIE OF THE ION-ELECTRON SYSTEM (eV)
  ---------------------------------------------------
  free  energy   TOTEN  =      -186.33414632 eV

  energy  without entropy=     -186.33414632  energy(sigma->0) =     -186.33414632
 


--------------------------------------------------------------------------------------------------------


    POTLOK:  cpu time    196.3701: real time    196.3648


--------------------------------------------------------------------------------------------------------


 writing wavefunctions
     LOOP+:  cpu time   9045.8777: real time   9048.4863
    4ORBIT:  cpu time      0.0000: real time      0.0000

 total amount of memory used by VASP MPI-rank0   549582. kBytes
=======================================================================

   base      :      30000. kBytes
   nonlr-proj:       3570. kBytes
   fftplans  :     129164. kBytes
   grid      :     282813. kBytes
   one-center:          6. kBytes
   HF        :          4. kBytes
   wavefun   :     104025. kBytes
   fock_wrk  :          0. kBytes
 
  
  
 General timing and accounting informations for this job:
 ========================================================
  
                  Total CPU time used (sec):     9103.308
                            User time (sec):     4555.062
                          System time (sec):     4548.246
                         Elapsed time (sec):     9106.940
  
                   Maximum memory used (kb):     1669720.
                   Average memory used (kb):          N/A
  
                          Minor page faults:     19989477
                          Major page faults:            0
                 Voluntary context switches:         6097
