
                                 *****************
                                 * O   R   C   A *
                                 *****************

                                            #,                                       
                                            ###                                      
                                            ####                                     
                                            #####                                    
                                            ######                                   
                                           ########,                                 
                                     ,,################,,,,,                         
                               ,,#################################,,                 
                          ,,##########################################,,             
                       ,#########################################, ''#####,          
                    ,#############################################,,   '####,        
                  ,##################################################,,,,####,       
                ,###########''''           ''''###############################       
              ,#####''   ,,,,##########,,,,          '''####'''          '####       
            ,##' ,,,,###########################,,,                        '##       
           ' ,,###''''                  '''############,,,                           
         ,,##''                                '''############,,,,        ,,,,,,###''
      ,#''                                            '''#######################'''  
     '                                                          ''''####''''         
             ,#######,   #######,   ,#######,      ##                                
            ,#'     '#,  ##    ##  ,#'     '#,    #''#        ,####,   ,####,        
            ##       ##  ##   ,#'  ##            #'  '#       #'       #'  '#        
            ##       ##  #######   ##           ,######,      #####,   #    #        
            '#,     ,#'  ##    ##  '#,     ,#' ,#      #,     #,   #   #,  ,#        
             '#######'   ##     ##  '#######'  #'      '#     '####' # '####'        



                #########################################################
                #                        -***-                          #
                #          Department of theory and spectroscopy        #
                #                                                       #
                #                      Frank Neese                      #
                #                                                       #
                #     Directorship, Architecture, Infrastructure        #
                #                    SHARK, DRIVERS                     #
                #        Core code/Algorithms in most modules           #
                #                                                       #
                #        Max Planck Institute fuer Kohlenforschung      #
                #                Kaiser Wilhelm Platz 1                 #
                #                 D-45470 Muelheim/Ruhr                 #
                #                      Germany                          #
                #                                                       #
                #                  All rights reserved                  #
                #                        -***-                          #
                #########################################################


                         Program Version 6.0.0  -   RELEASE  -


 With contributions from (in alphabetic order):
   Daniel Aravena         : Magnetic Suceptibility
   Michael Atanasov       : Ab Initio Ligand Field Theory (pilot matlab implementation)
   Alexander A. Auer      : GIAO ZORA, VPT2 properties, NMR spectrum
   Ute Becker             : All parallelization in ORCA, NUMFREQ, NUMCALC
   Giovanni Bistoni       : ED, misc. LED, open-shell LED, HFLD
   Martin Brehm           : Molecular dynamics
   Dmytro Bykov           : pre 5.0 version of the SCF Hessian
   Marcos Casanova-Páez   : Triplet and SCS-CIS(D). UHF-(DLPNO)-IP/EA/STEOM-CCSD. UHF-CVS-IP/STEOM-CCSD
   Vijay G. Chilkuri      : MRCI spin determinant printing, contributions to CSF-ICE
   Pauline Colinet        : FMM embedding
   Dipayan Datta          : RHF DLPNO-CCSD density
   Achintya Kumar Dutta   : EOM-CC, STEOM-CC
   Nicolas Foglia         : Exact transition moments, OPA infrastructure, MCD improvements
   Dmitry Ganyushin       : Spin-Orbit,Spin-Spin,Magnetic field MRCI
   Miquel Garcia          : C-PCM and meta-GGA Hessian, CCSD/C-PCM, Gaussian charge scheme
   Tiago L. C. Gouveia    : GS-ROHF, GS-ROCIS
   Yang Guo               : DLPNO-NEVPT2, F12-NEVPT2, CIM, IAO-localization
   Andreas Hansen         : Spin unrestricted coupled pair/coupled cluster methods
   Ingolf Harden          : AUTO-CI MPn and infrastructure 
   Benjamin Helmich-Paris : MC-RPA, TRAH-(SCF,CASSCF), AVAS, COSX integrals, SCF dyn. polar.
   Lee Huntington         : MR-EOM, pCC
   Robert Izsak           : Overlap fitted RIJCOSX, COSX-SCS-MP3, EOM
   Riya Kayal             : Wick's Theorem for AUTO-CI, AUTO-CI UHF-CCSDT
   Emily Kempfer          : AUTO-CI, RHF CISDT and CCSDT
   Christian Kollmar      : KDIIS, OOCD, Brueckner-CCSD(T), CCSD density, CASPT2, CASPT2-K, improved NEVPT2
   Axel Koslowski         : Symmetry handling
   Simone Kossmann        : Meta GGA functionals, TD-DFT gradient, OOMP2, (MP2 Hessian; deprecated post 5.0)
   Lucas Lang             : DCDCAS
   Marvin Lechner         : AUTO-CI (C++ implementation), FIC-MRCC
   Spencer Leger          : CASSCF response
   Dagmar Lenk            : GEPOL surface, SMD, ORCA-2-JSON
   Dimitrios Liakos       : Extrapolation schemes; Compound Job, initial MDCI parallelization
   Dimitrios Manganas     : Further ROCIS development; embedding schemes. LFT, Crystal Embedding
   Dimitrios Pantazis     : SARC Basis sets
   Anastasios Papadopoulos: AUTO-CI, single reference methods and gradients
   Taras Petrenko         : pre 6.0 DFT Hessian and TD-DFT gradient, (ASA, deprecated), ECA, 1-Electron XAS/XES, NRVS
   Peter Pinski           : DLPNO-MP2, DLPNO-MP2 Gradient
   Christoph Reimann      : Effective Core Potentials
   Marius Retegan         : Local ZFS, SOC
   Christoph Riplinger    : Optimizer, TS searches, QM/MM, DLPNO-CCSD(T), (RO)-DLPNO pert. Triples
   Michael Roemelt        : Original ROCIS implementation
   Masaaki Saitow         : Open-shell DLPNO-CCSD energy and density
   Barbara Sandhoefer     : DKH picture change effects
   Kantharuban Sivalingam : CASSCF convergence/infrastructure, NEVPT2 and variants, FIC-MRCI
   Bernardo de Souza      : ESD, SOC TD-DFT
   Georgi Stoychev        : AutoAux, RI-MP2 NMR, DLPNO-MP2 response, X2C
   Van Anh Tran           : RI-MP2 g-tensors
   Willem Van den Heuvel  : Paramagnetic NMR
   Zikuan Wang            : NOTCH, Electric field optimization 
   Frank Wennmohs         : Technical directorship and infrastructure
   Hang Xu                : AUTO-CI-Response properties 


 We gratefully acknowledge several colleagues who have allowed us to
 interface, adapt or use parts of their codes:
   Stefan Grimme, W. Hujo, H. Kruse, P. Pracht,  : VdW corrections, initial TS optimization,
                  C. Bannwarth, S. Ehlert,         DFT functionals, gCP, sTDA/sTD-DF
                  L. Wittmann, M. Mueller
   Ed Valeev, F. Pavosevic, A. Kumar             : LibInt (2-el integral package), F12 methods
   Garnet Chan, S. Sharma, J. Yang, R. Olivares  : DMRG
   Ulf Ekstrom                                   : XCFun DFT Library
   Mihaly Kallay                                 : mrcc  (arbitrary order and MRCC methods)
   Frank Weinhold                                : gennbo (NPA and NBO analysis)
   Simon Mueller                                 : openCOSMO-RS
   Christopher J. Cramer and Donald G. Truhlar   : smd solvation model
   Lars Goerigk                                  : TD-DFT with DH, B97 family of functionals
   V. Asgeirsson, H. Jonsson                     : NEB implementation
   FAccTs GmbH                                   : IRC, NEB, NEB-TS, DLPNO-Multilevel, CI-OPT
                                                   MM, QMMM, 2- and 3-layer-ONIOM, Crystal-QMMM,
                                                   LR-CPCM, SF, NACMEs, symmetry and pop. for TD-DFT,
                                                   nearIR, NL-DFT gradient (VV10), updates on ESD,
                                                   ML-optimized integration grids, MBIS, APM,
                                                   GOAT, DOCKER, SOLVATOR, interface openCOSMO-RS
   S Lehtola, MJT Oliveira, MAL Marques          : LibXC Library
   Liviu Ungur et al                             : ANISO software


 Your calculation uses the libint2 library for the computation of 2-el integrals
 For citations please refer to: http://libint.valeyev.net

 Your ORCA version has been built with support for libXC version: 6.2.2
 For citations please refer to: https://libxc.gitlab.io

 This ORCA versions uses:
   CBLAS   interface :  Fast vector & matrix operations
   LAPACKE interface :  Fast linear algebra routines
   SCALAPACK package :  Parallel linear algebra routines
   Shared memory     :  Shared parallel matrices
   BLAS/LAPACK       :  OpenBLAS 0.3.27  USE64BITINT DYNAMIC_ARCH NO_AFFINITY Sandybridge SINGLE_THREADED
        Core in use  :  Sandybridge
   Copyright (c) 2011-2014, The OpenBLAS Project


NOTE: MaxCore=3500 MB was set to SCF,MP2,MDCI,CIPSI,MRCI and CIS
      => If you want to overwrite this, your respective input block should be placed after the MaxCore statement
Your calculation utilizes the atom-pairwise dispersion correction
with the Becke-Johnson damping scheme (D3BJ)


Your calculation utilizes the SMD solvation module
Please cite in your paper:
A.V. Marenich, C.J. Cramer, D.G. Truhlar J. Phys. Chem. B, 113, (2009), 6378 

Warning: RI is on but no J-basis has been assigned. Assigning Def2/J (nothing to worry about!)
================================================================================

----- Orbital basis set information -----
Your calculation utilizes the basis: aug-cc-pVTZ 
    H, B-Ne : Obtained from the ccRepo (grant-hill.group.shef.ac.uk/ccrepo) Feb. 2017
              R. A. Kendall, T. H. Dunning, Jr., R. J. Harrison, J. Chem. Phys. 96, 6796 (1992)
         He : Obtained from the ccRepo (grant-hill.group.shef.ac.uk/ccrepo) Feb. 2017
              D. E. Woon, T. H. Dunning, Jr., J. Chem. Phys. 100, 2975 (1994)
  Li-Be, Na : Obtained from the ccRepo (grant-hill.group.shef.ac.uk/ccrepo) Feb. 2017
              B. P. Prascher, D. E. Woon, K. A. Peterson, T. H. Dunning, Jr., A. K. Wilson, Theor. Chem. Acc. 128, 69 (2011)
         Mg : Obtained from the Peterson Research Group Website (tyr0.chem.wsu.edu/~kipeters) Feb. 2017
              B. P. Prascher, D. E. Woon, K. A. Peterson, T. H. Dunning, Jr., A. K. Wilson, Theor. Chem. Acc. 128, 69 (2011)
      Al-Ar : Obtained from the ccRepo (grant-hill.group.shef.ac.uk/ccrepo) Feb. 2017
              D. E. Woon, T. H. Dunning, Jr., J. Chem. Phys. 98, 1358 (1993)
      Sc-Zn : Obtained from the ccRepo (grant-hill.group.shef.ac.uk/ccrepo) Feb. 2017
              N. B. Balabanov, K. A. Peterson, J. Chem. Phys. 123, 064107 (2005)
              N. B. Balabanov, K. A. Peterson, J. Chem. Phys. 125, 074110 (2006)
      Ga-Kr : Obtained from the ccRepo (grant-hill.group.shef.ac.uk/ccrepo) Feb. 2017
              A. K. Wilson, D. E. Woon, K. A. Peterson, T. H. Dunning, Jr., J. Chem. Phys. 110, 7667 (1999)
     Ag, Au : Obtained from the Peterson Research Group Website (tyr0.chem.wsu.edu/~kipeters) Feb. 2017
              K. A. Peterson, C. Puzzarini, Theor. Chem. Acc. 114, 283 (2005)

----- AuxJ basis set information -----
Your calculation utilizes the auxiliary basis: def2/J
   F. Weigend, Phys. Chem. Chem. Phys. 8, 1057 (2006).

================================================================================
                                        WARNINGS
                       Please study these warnings very carefully!
================================================================================


WARNING: your system is open-shell and RHF/RKS was chosen
  ===> : WILL SWITCH to UHF/UKS


================================================================================
                                       INPUT FILE
================================================================================
NAME = cs_rporg_w03_red_solv_05.inp
|  1> !PBE0 aug-cc-pVTZ d3 TightSCF SlowConv RIJCOSX defgrid2
|  2> 
|  3> %pal
|  4> nprocs 15
|  5> end
|  6> 
|  7> %scf
|  8> MaxIter 1500
|  9> end
| 10> 
| 11> %maxcore 3500
| 12> 
| 13> !CPCM
| 14> %cpcm smd true
| 15> SMDsolvent "WATER"
| 16> surfacetype gepol_ses
| 17> rsolv 1.40
| 18> end
| 19> 
| 20> * xyz 0 2
| 21> O           1.91470638718140      3.68438074947034      1.42427791228666
| 22> N           2.68096308945993      2.69375168448893      1.26769968685529
| 23> C           3.77391580515862      2.86611617790763      0.27680202232567
| 24> C           4.43155802114185      1.51994211991304     -0.03530115296342
| 25> C           4.73340248947632      0.69829774992947      1.21810391563609
| 26> C           3.42519309826840      0.42580302914814      1.94119980726915
| 27> C           2.70579217610673      1.70523956651208      2.37690104523736
| 28> C           4.79322172800676      3.87508980195447      0.82020172066500
| 29> C           3.14425995359759      3.42149633811360     -0.99940045320580
| 30> C           3.37488386456858      2.34129799708755      3.60196963848657
| 31> C           1.25335355183061      1.37175446215543      2.71392471745753
| 32> H           5.35765292922926      1.70556085241930     -0.60472877121535
| 33> H           3.75876551381861      0.92933792835036     -0.68368429967338
| 34> H           5.42888308378114      1.26691647113913      1.85777249757383
| 35> H           3.58597216229996     -0.20127854132091      2.83446428065128
| 36> H           2.76741452667512     -0.15000338556619      1.26812064668017
| 37> H           4.26369527400293      4.78489567317599      1.14666574670165
| 38> H           5.36148593564960      3.47818359531948      1.67676804635832
| 39> H           5.51454614342091      4.14822445029490      0.03143381287120
| 40> H           2.68677781882656      4.40345192403324     -0.80882149057439
| 41> H           2.35856298596588      2.74147992136098     -1.37017141185833
| 42> H           3.91629839859089      3.52710620200660     -1.78046613000472
| 43> H           2.90751365674073      3.31881435496866      3.80391606383020
| 44> H           4.45686105296294      2.49742578329982      3.46040550353472
| 45> H           3.23836167981079      1.69582567705536      4.48654381685627
| 46> H           0.71883159023383      2.26983495660360      3.05695397631866
| 47> H           0.73234928593055      0.97814208936524      1.82472152714422
| 48> H           1.22257422130559      0.60584599485455      3.50731645957130
| 49> C           5.50980399137963     -0.53351097116185      0.81636396333535
| 50> O           6.67868338961729     -0.53392563796249      0.53412674849617
| 51> O           4.75697757690545     -1.64256703152170      0.76161649704885
| 52> H           5.34368613905548     -2.36501696039479      0.46736191230387
| 53> *
| 54> 
| 55>                          ****END OF INPUT****
================================================================================

                       ****************************
                       * Single Point Calculation *
                       ****************************

---------------------------------
CARTESIAN COORDINATES (ANGSTROEM)
---------------------------------
  O      1.914706    3.684381    1.424278
  N      2.680963    2.693752    1.267700
  C      3.773916    2.866116    0.276802
  C      4.431558    1.519942   -0.035301
  C      4.733402    0.698298    1.218104
  C      3.425193    0.425803    1.941200
  C      2.705792    1.705240    2.376901
  C      4.793222    3.875090    0.820202
  C      3.144260    3.421496   -0.999400
  C      3.374884    2.341298    3.601970
  C      1.253354    1.371754    2.713925
  H      5.357653    1.705561   -0.604729
  H      3.758766    0.929338   -0.683684
  H      5.428883    1.266916    1.857772
  H      3.585972   -0.201279    2.834464
  H      2.767415   -0.150003    1.268121
  H      4.263695    4.784896    1.146666
  H      5.361486    3.478184    1.676768
  H      5.514546    4.148224    0.031434
  H      2.686778    4.403452   -0.808821
  H      2.358563    2.741480   -1.370171
  H      3.916298    3.527106   -1.780466
  H      2.907514    3.318814    3.803916
  H      4.456861    2.497426    3.460406
  H      3.238362    1.695826    4.486544
  H      0.718832    2.269835    3.056954
  H      0.732349    0.978142    1.824722
  H      1.222574    0.605846    3.507316
  C      5.509804   -0.533511    0.816364
  O      6.678683   -0.533926    0.534127
  O      4.756978   -1.642567    0.761616
  H      5.343686   -2.365017    0.467362

----------------------------
CARTESIAN COORDINATES (A.U.)
----------------------------
  NO LB      ZA    FRAG     MASS         X           Y           Z
   0 O     8.0000    0    15.999    3.618271    6.962471    2.691495
   1 N     7.0000    0    14.007    5.066286    5.090453    2.395605
   2 C     6.0000    0    12.011    7.131667    5.416175    0.523080
   3 C     6.0000    0    12.011    8.374431    2.872274   -0.066710
   4 C     6.0000    0    12.011    8.944834    1.319592    2.301883
   5 C     6.0000    0    12.011    6.472677    0.804651    3.668336
   6 C     6.0000    0    12.011    5.113206    3.222436    4.491692
   7 C     6.0000    0    12.011    9.057876    7.322858    1.549957
   8 C     6.0000    0    12.011    5.941790    6.465691   -1.888593
   9 C     6.0000    0    12.011    6.377606    4.424412    6.806736
  10 C     6.0000    0    12.011    2.368495    2.592240    5.128574
  11 H     1.0000    0     1.008   10.124497    3.223043   -1.142772
  12 H     1.0000    0     1.008    7.103037    1.756194   -1.291976
  13 H     1.0000    0     1.008   10.259102    2.394125    3.510681
  14 H     1.0000    0     1.008    6.776505   -0.380361    5.356361
  15 H     1.0000    0     1.008    5.229656   -0.283465    2.396401
  16 H     1.0000    0     1.008    8.057216    9.042142    2.166884
  17 H     1.0000    0     1.008   10.131740    6.572814    3.168632
  18 H     1.0000    0     1.008   10.420982    7.839008    0.059401
  19 H     1.0000    0     1.008    5.077274    8.321318   -1.528451
  20 H     1.0000    0     1.008    4.457038    5.180646   -2.589249
  21 H     1.0000    0     1.008    7.400731    6.665265   -3.364593
  22 H     1.0000    0     1.008    5.494405    6.271650    7.188360
  23 H     1.0000    0     1.008    8.422247    4.719451    6.539219
  24 H     1.0000    0     1.008    6.119617    3.204646    8.478339
  25 H     1.0000    0     1.008    1.358395    4.289366    5.776806
  26 H     1.0000    0     1.008    1.383940    1.848421    3.448224
  27 H     1.0000    0     1.008    2.310330    1.144883    6.627868
  28 C     6.0000    0    12.011   10.412021   -1.008190    1.542704
  29 O     8.0000    0    15.999   12.620883   -1.008973    1.009353
  30 O     8.0000    0    15.999    8.989385   -3.104002    1.439247
  31 H     1.0000    0     1.008   10.098103   -4.469234    0.883186

--------------------------------
INTERNAL COORDINATES (ANGSTROEM)
--------------------------------
 O      0   0   0     0.000000000000     0.00000000     0.00000000
 N      1   0   0     1.262145799364     0.00000000     0.00000000
 C      2   1   0     1.485305806531   116.00284750     0.00000000
 C      3   2   1     1.530387621058   110.49858399   192.13162542
 C      4   3   2     1.528801432424   112.97905858   314.15824143
 C      5   4   3     1.519385682635   108.45585063    60.28476178
 C      2   1   3     1.485967814042   116.08258595   159.40291853
 C      3   2   1     1.533719521468   109.20902103    69.22407276
 C      3   2   1     1.527614602021   107.23108040   310.87947351
 C      7   2   1     1.533964495300   109.12238802   290.97337503
 C      7   2   1     1.527866233593   107.09580321    49.06858245
 H      4   3   2     1.102884357070   108.54741773   191.41089782
 H      4   3   2     1.105379470562   109.15092614    74.70333143
 H      5   4   3     1.102812949635   108.84144226   299.33803866
 H      6   5   4     1.103178418416   111.21178141   177.70182080
 H      6   5   4     1.103295623526   108.45703361    60.89845813
 H      8   3   2     1.102145067174   109.18962999   309.18509132
 H      8   3   2     1.101891381609   112.40803282    69.45804470
 H      8   3   2     1.103207261018   110.12682443   189.83444259
 H      9   3   2     1.099930460234   110.56389288    61.83564222
 H      9   3   2     1.103273835355   110.49993972   302.07671343
 H      9   3   2     1.103295243973   109.74295167   182.30814536
 H     10   7   2     1.102159471129   109.21565031    50.44715296
 H     10   7   2     1.102311628415   112.60054871   290.08698279
 H     10   7   2     1.103514521833   110.10105988   169.64217400
 H     11   7   2     1.099968806091   110.64247125   298.15879527
 H     11   7   2     1.103203724959   110.42804556    57.98869089
 H     11   7   2     1.103192460056   109.67586892   177.62258122
 C      5   4   3     1.510479065326   108.76685000   186.03476128
 O     29   5   4     1.202471232510   124.21907815    76.61483330
 O     29   5   4     1.341547703369   113.36522697   258.55570939
 H     31  29   5     0.976087392231   106.67113653   178.18144618

---------------------------
INTERNAL COORDINATES (A.U.)
---------------------------
 O      0   0   0     0.000000000000     0.00000000     0.00000000
 N      1   0   0     2.385109901877     0.00000000     0.00000000
 C      2   1   0     2.806821199467   116.00284750     0.00000000
 C      3   2   1     2.892013482542   110.49858399   192.13162542
 C      4   3   2     2.889016020427   112.97905858   314.15824143
 C      5   4   3     2.871222831980   108.45585063    60.28476178
 C      2   1   3     2.808072212360   116.08258595   159.40291853
 C      3   2   1     2.898309861823   109.20902103    69.22407276
 C      3   2   1     2.886773235999   107.23108040   310.87947351
 C      7   2   1     2.898772795275   109.12238802   290.97337503
 C      7   2   1     2.887248750757   107.09580321    49.06858245
 H      4   3   2     2.084149392249   108.54741773   191.41089782
 H      4   3   2     2.088864473420   109.15092614    74.70333143
 H      5   4   3     2.084014451752   108.84144226   299.33803866
 H      6   5   4     2.084705087659   111.21178141   177.70182080
 H      6   5   4     2.084926573219   108.45703361    60.89845813
 H      8   3   2     2.082752336810   109.18962999   309.18509132
 H      8   3   2     2.082272940570   112.40803282    69.45804470
 H      8   3   2     2.084759592277   110.12682443   189.83444259
 H      9   3   2     2.078567336201   110.56389288    61.83564222
 H      9   3   2     2.084885399542   110.49993972   302.07671343
 H      9   3   2     2.084925855966   109.74295167   182.30814536
 H     10   7   2     2.082779556341   109.21565031    50.44715296
 H     10   7   2     2.083067091940   112.60054871   290.08698279
 H     10   7   2     2.085340231070   110.10105988   169.64217400
 H     11   7   2     2.078639799368   110.64247125   298.15879527
 H     11   7   2     2.084752910094   110.42804556    57.98869089
 H     11   7   2     2.084731622513   109.67586892   177.62258122
 C      5   4   3     2.854391764488   108.76685000   186.03476128
 O     29   5   4     2.272341313362   124.21907815    76.61483330
 O     29   5   4     2.535157754959   113.36522697   258.55570939
 H     31  29   5     1.844537854090   106.67113653   178.18144618

---------------------
BASIS SET INFORMATION
---------------------
There are 4 groups of distinct atoms

 Group   1 Type O   : 19s6p3d2f contracted to 5s4p3d2f pattern {88111/3111/111/11}
 Group   2 Type N   : 19s6p3d2f contracted to 5s4p3d2f pattern {88111/3111/111/11}
 Group   3 Type C   : 19s6p3d2f contracted to 5s4p3d2f pattern {88111/3111/111/11}
 Group   4 Type H   : 6s3p2d contracted to 4s3p2d pattern {3111/111/11}

Atom   0O    basis set group =>   1
Atom   1N    basis set group =>   2
Atom   2C    basis set group =>   3
Atom   3C    basis set group =>   3
Atom   4C    basis set group =>   3
Atom   5C    basis set group =>   3
Atom   6C    basis set group =>   3
Atom   7C    basis set group =>   3
Atom   8C    basis set group =>   3
Atom   9C    basis set group =>   3
Atom  10C    basis set group =>   3
Atom  11H    basis set group =>   4
Atom  12H    basis set group =>   4
Atom  13H    basis set group =>   4
Atom  14H    basis set group =>   4
Atom  15H    basis set group =>   4
Atom  16H    basis set group =>   4
Atom  17H    basis set group =>   4
Atom  18H    basis set group =>   4
Atom  19H    basis set group =>   4
Atom  20H    basis set group =>   4
Atom  21H    basis set group =>   4
Atom  22H    basis set group =>   4
Atom  23H    basis set group =>   4
Atom  24H    basis set group =>   4
Atom  25H    basis set group =>   4
Atom  26H    basis set group =>   4
Atom  27H    basis set group =>   4
Atom  28C    basis set group =>   3
Atom  29O    basis set group =>   1
Atom  30O    basis set group =>   1
Atom  31H    basis set group =>   4
---------------------------------
AUXILIARY/J BASIS SET INFORMATION
---------------------------------
There are 4 groups of distinct atoms

 Group   1 Type O   : 12s5p4d2f1g contracted to 6s4p3d1f1g pattern {711111/2111/211/2/1}
 Group   2 Type N   : 12s5p4d2f1g contracted to 6s4p3d1f1g pattern {711111/2111/211/2/1}
 Group   3 Type C   : 12s5p4d2f1g contracted to 6s4p3d1f1g pattern {711111/2111/211/2/1}
 Group   4 Type H   : 5s2p1d contracted to 3s1p1d pattern {311/2/1}

Atom   0O    basis set group =>   1
Atom   1N    basis set group =>   2
Atom   2C    basis set group =>   3
Atom   3C    basis set group =>   3
Atom   4C    basis set group =>   3
Atom   5C    basis set group =>   3
Atom   6C    basis set group =>   3
Atom   7C    basis set group =>   3
Atom   8C    basis set group =>   3
Atom   9C    basis set group =>   3
Atom  10C    basis set group =>   3
Atom  11H    basis set group =>   4
Atom  12H    basis set group =>   4
Atom  13H    basis set group =>   4
Atom  14H    basis set group =>   4
Atom  15H    basis set group =>   4
Atom  16H    basis set group =>   4
Atom  17H    basis set group =>   4
Atom  18H    basis set group =>   4
Atom  19H    basis set group =>   4
Atom  20H    basis set group =>   4
Atom  21H    basis set group =>   4
Atom  22H    basis set group =>   4
Atom  23H    basis set group =>   4
Atom  24H    basis set group =>   4
Atom  25H    basis set group =>   4
Atom  26H    basis set group =>   4
Atom  27H    basis set group =>   4
Atom  28C    basis set group =>   3
Atom  29O    basis set group =>   1
Atom  30O    basis set group =>   1
Atom  31H    basis set group =>   4


           ************************************************************
           *        Program running with 15 parallel MPI-processes    *
           *              working on a common directory               *
           ************************************************************
------------------------------------------------------------------------------
                             ORCA STARTUP CALCULATIONS
                           -- RI-GTO INTEGRALS CHOSEN --
------------------------------------------------------------------------------
------------------------------------------------------------------------------
                   ___                                                        
                  /   \      - P O W E R E D   B Y -                         
                 /     \                                                     
                 |  |  |   _    _      __       _____    __    __             
                 |  |  |  | |  | |    /  \     |  _  \  |  |  /  |          
                  \  \/   | |  | |   /    \    | | | |  |  | /  /          
                 / \  \   | |__| |  /  /\  \   | |_| |  |  |/  /          
                |  |  |   |  __  | /  /__\  \  |    /   |      \           
                |  |  |   | |  | | |   __   |  |    \   |  |\   \          
                \     /   | |  | | |  |  |  |  | |\  \  |  | \   \       
                 \___/    |_|  |_| |__|  |__|  |_| \__\ |__|  \__/        
                                                                              
                      - O R C A' S   B I G   F R I E N D -                    
                                      &                                       
                       - I N T E G R A L  F E E D E R -                       
                                                                              
 v1 FN, 2020, v2 2021, v3 2022-2024                                           
------------------------------------------------------------------------------


----------------------
SHARK INTEGRAL PACKAGE
----------------------

Number of atoms                             ...     32
Number of basis functions                   ...   1142
Number of shells                            ...    442
Maximum angular momentum                    ...      3
Integral batch strategy                     ... SHARK/LIBINT Hybrid
RI-J (if used) integral strategy            ... SPLIT-RIJ (Revised 2003 algorithm where possible)
Printlevel                                  ...      1
Contraction scheme used                     ... PARTIAL GENERAL contraction
Prescreening option                         ... SCHWARTZ
   Thresh                                   ... 2.500e-11
   Tcut                                     ... 2.500e-12
   Tpresel                                  ... 2.500e-12 
Coulomb Range Separation                    ... NOT USED
Exchange Range Separation                   ... NOT USED
Multipole approximations                    ... NOT USED
Finite Nucleus Model                        ... NOT USED
CABS basis                                  ... NOT available
Auxiliary Coulomb fitting basis             ... AVAILABLE
   # of basis functions in Aux-J            ...    884
   # of shells in Aux-J                     ...    300
   Maximum angular momentum in Aux-J        ...      4
Auxiliary J/K fitting basis                 ... NOT available
Auxiliary Correlation fitting basis         ... NOT available
Auxiliary 'external' fitting basis          ... NOT available

Checking pre-screening integrals            ... done (  1.0 sec) Dimension = 442
Save PGC pre-screening integrals            ... done (  1.0 sec) Dimension = 442
Calculate PGC overlap integrals             ... done (  1.1 sec) Dimension = 358
Calculating pre-screening integrals (ORCA)  ... done (  1.3 sec) Dimension = 358
Check shell pair data                       ... done (  0.7 sec)
Shell pair information
Shell pair cut-off parameter TPreSel        ...   2.5e-12
Total number of shell pairs                 ...     97903
Shell pairs after pre-screening             ...     79760
Total number of primitive shell pairs       ...    128367
Primitive shell pairs kept                  ...     95913
          la=0 lb=0:  17713 shell pairs
          la=1 lb=0:  20670 shell pairs
          la=1 lb=1:   5613 shell pairs
          la=2 lb=0:  14504 shell pairs
          la=2 lb=1:   7878 shell pairs
          la=2 lb=2:   2812 shell pairs
          la=3 lb=0:   5316 shell pairs
          la=3 lb=1:   2852 shell pairs
          la=3 lb=2:   2017 shell pairs
          la=3 lb=3:    385 shell pairs

Calculating one electron integrals          ... done (  0.2 sec)
Calculating RI/J V-Matrix + Cholesky decomp.... done (  0.2 sec)
Calculating Nuclear repulsion               ... done (  0.0 sec) ENN=   1020.966395717413 Eh

Diagonalization of the overlap matrix:
Smallest eigenvalue                        ... 2.924e-07
Time for diagonalization                   ...    0.336 sec
Threshold for overlap eigenvalues          ... 1.000e-07
Number of eigenvalues below threshold      ... 0

IMPORTANT:
Smallest eigenvalue of S below the DiffSThresh (1.000e-06) while
Thresh>1e-12 and/or TCut>1e-13! In order to avoid SCF convergence issues,
Thresh will be set to at least 1e-12 and TCut to at least 1e-13.
This can be turned off by adding %SCF DiffSThresh -1 END to the input.

Time for construction of square roots      ...    0.255 sec
Total time needed                          ...    1.338 sec

-------------------
DFT GRID GENERATION
-------------------

General Integration Accuracy     IntAcc      ... 4.388
Radial Grid Type                 RadialGrid  ... OptM3 with GC (2021)
Angular Grid (max. ang.)         AngularGrid ... 4 (Lebedev-302)
Angular grid pruning method      GridPruning ... 4 (adaptive)
Weight generation scheme         WeightScheme... mBecke (2022)
Basis function cutoff            BFCut       ... 1.0000e-11
Integration weight cutoff        WCut        ... 1.0000e-14
Partially contracted basis set               ... off
Rotationally invariant grid construction     ... off
Angular grids for H and He will be reduced by one unit
Diffuse basis detected: some atoms will have their outermost
                        angular grid increased by 1.

Total number of grid points                  ...   146564
Total number of batches                      ...     2310
Average number of points per batch           ...       63
Average number of grid points per atom       ...     4580

---------------------
SHARK GRID GENERATION
---------------------

General Integration Accuracy     IntAcc      ... 4.388
Radial Grid Type                 RadialGrid  ... OptM3 with GC (2021)
Angular Grid (max. ang.)         AngularGrid ... 4 (Lebedev-302)
Angular grid pruning method      GridPruning ... 4 (adaptive)
Weight generation scheme         WeightScheme... mBecke (2022)
Basis function cutoff            BFCut       ... 1.0000e-11
Integration weight cutoff        WCut        ... 1.0000e-14
Partially contracted basis set               ... off
Rotationally invariant grid construction     ... off
Angular grids for H and He will be reduced by one unit
Diffuse basis detected: some atoms will have their outermost
                        angular grid increased by 1.
Steep s-basis detected: some atoms will have their radial
                        grid points doubled.

Total number of grid points                  ...   233345
Total number of batches                      ...     3660
Average number of points per batch           ...       63
Average number of grid points per atom       ...     7292

--------------------
COSX GRID GENERATION
--------------------

GRIDX 1
-------
General Integration Accuracy     IntAcc      ... 3.816
Radial Grid Type                 RadialGrid  ... OptM3 with GC (2021)
Angular Grid (max. ang.)         AngularGrid ... 1 (Lebedev-50)
Angular grid pruning method      GridPruning ... 4 (adaptive)
Weight generation scheme         WeightScheme... mBecke (2022)
Basis function cutoff            BFCut       ... 1.0000e-11
Integration weight cutoff        WCut        ... 1.0000e-14
Partially contracted basis set               ... on
Rotationally invariant grid construction     ... off
Angular grids for H and He will be reduced by one unit
Diffuse basis detected: some atoms will have their outermost
                        angular grid increased by 1.

Total number of grid points                  ...    18292
Total number of batches                      ...      161
Average number of points per batch           ...      113
Average number of grid points per atom       ...      572
UseSFitting                                  ... on

GRIDX 2
-------
General Integration Accuracy     IntAcc      ... 4.020
Radial Grid Type                 RadialGrid  ... OptM3 with GC (2021)
Angular Grid (max. ang.)         AngularGrid ... 2 (Lebedev-110)
Angular grid pruning method      GridPruning ... 4 (adaptive)
Weight generation scheme         WeightScheme... mBecke (2022)
Basis function cutoff            BFCut       ... 1.0000e-11
Integration weight cutoff        WCut        ... 1.0000e-14
Partially contracted basis set               ... on
Rotationally invariant grid construction     ... off
Angular grids for H and He will be reduced by one unit
Diffuse basis detected: some atoms will have their outermost
                        angular grid increased by 1.

Total number of grid points                  ...    42226
Total number of batches                      ...      347
Average number of points per batch           ...      121
Average number of grid points per atom       ...     1320
UseSFitting                                  ... on

GRIDX 3
-------
General Integration Accuracy     IntAcc      ... 4.338
Radial Grid Type                 RadialGrid  ... OptM3 with GC (2021)
Angular Grid (max. ang.)         AngularGrid ... 3 (Lebedev-194)
Angular grid pruning method      GridPruning ... 4 (adaptive)
Weight generation scheme         WeightScheme... mBecke (2022)
Basis function cutoff            BFCut       ... 1.0000e-11
Integration weight cutoff        WCut        ... 1.0000e-14
Partially contracted basis set               ... on
Rotationally invariant grid construction     ... off
Angular grids for H and He will be reduced by one unit
Diffuse basis detected: some atoms will have their outermost
                        angular grid increased by 1.

Total number of grid points                  ...    93798
Total number of batches                      ...      747
Average number of points per batch           ...      125
Average number of grid points per atom       ...     2931
UseSFitting                                  ... on
Initializing property integral containers    ... done (  2.1 sec)

SHARK setup successfully completed in  27.4 seconds

Maximum memory used throughout the entire STARTUP-calculation: 139.4 MB


           ************************************************************
           *        Program running with 15 parallel MPI-processes    *
           *              working on a common directory               *
           ************************************************************
-------------------------------------------------------------------------------
                                 ORCA GUESS
                   Start orbitals & Density for SCF / CASSCF
-------------------------------------------------------------------------------

------------
SCF SETTINGS
------------
Hamiltonian:
 Density Functional     Method          .... DFT(GTOs)
 Exchange Functional    Exchange        .... PBE
   PBE kappa parameter   XKappa         ....  0.804000
   PBE mue parameter    XMuePBE         ....  0.219520
 Correlation Functional Correlation     .... PBE
   PBE beta parameter  CBetaPBE         ....  0.066725
 LDA part of GGA corr.  LDAOpt          .... PW91-LDA
 Gradients option       PostSCFGGA      .... off
 Hybrid DFT is turned on
   Fraction HF Exchange ScalHFX         ....  0.250000
   Scaling of DF-GGA-X  ScalDFX         ....  0.750000
   Scaling of DF-GGA-C  ScalDFC         ....  1.000000
   Scaling of DF-LDA-C  ScalLDAC        ....  1.000000
   Perturbative correction              ....  0.000000
   NL short-range parameter             ....  6.900000
 RI-approximation to the Coulomb term is turned on
   Number of AuxJ basis functions       .... 884
   RIJ-COSX (HFX calculated with COS-X)).... on


General Settings:
 Integral files         IntName         .... cs_rporg_w03_red_solv_05
 Hartree-Fock type      HFTyp           .... UHF
 Total Charge           Charge          ....    0
 Multiplicity           Mult            ....    2
 Number of Electrons    NEL             ....  109
 Basis Dimension        Dim             .... 1058
 Nuclear Repulsion      ENuc            ....   1020.9663957174 Eh

Convergence Acceleration:
 AO-DIIS                CNVDIIS         .... on
   Start iteration      DIISMaxIt       ....     0
   Startup error        DIISStart       ....  0.200000
   # of expansion vecs  DIISMaxEq       ....     5
   Bias factor          DIISBfac        ....   1.050
   Max. coefficient     DIISMaxC        ....  10.000
 MO-DIIS                CNVKDIIS        .... off
 Trust-Rad. Augm. Hess. CNVTRAH         .... auto
   Auto Start mean grad. ratio tolernc. ....  1.125000
   Auto Start start iteration           ....    50
   Auto Start num. interpolation iter.  ....    10
   Max. Number of Micro iterations      ....    24
   Max. Number of Macro iterations      .... Maxiter - #DIIS iter
   Number of Davidson start vectors     ....     2
   Converg. threshold    (grad. norm)   ....   1.000e-05
   Grad. Scal. Fac. for Micro threshold ....   0.100
   Minimum threshold for Micro iter.    ....   1.000e-02
   NR start threshold (gradient norm)   ....   1.000e-04
   Initial trust radius                 ....   0.400
   Minimum AH scaling param. (alpha)    ....   1.000
   Maximum AH scaling param. (alpha)    .... 1000.000
   Quad. conv. algorithm                .... NR
   White noise on init. David. guess    .... on
   Maximum white noise                  ....   0.010
   Pseudo random numbers                .... off
   Inactive MOs                         .... canonical
   Orbital update algorithm             .... Taylor
   Preconditioner                       .... Diag
   Full preconditioner red. dimension   ....   250
 SOSCF                  CNVSOSCF        .... on
   Start iteration      SOSCFMaxIt      ....   150
   Startup grad/error   SOSCFStart      ....  0.001000
   Hessian update       SOSCFHessUp     .... L-BFGS
 Level Shifting         CNVShift        .... on
   Level shift para.    LevelShift      ....    0.2500
   Turn off err/grad.   ShiftErr        ....    0.0000
 Zerner damping         CNVZerner       .... off
 Static damping         CNVDamp         .... on
   Fraction old density DampFac         ....    0.8500
   Max. Damping (<1)    DampMax         ....    0.9800
   Min. Damping (>=0)   DampMin         ....    0.0000
   Turn off err/grad.   DampErr         ....    0.0300

SCF Procedure:
 Maximum # iterations   MaxIter         ....  1500
 SCF integral mode      SCFMode         .... Direct
   Integral package                     .... SHARK and LIBINT hybrid scheme
 Reset frequency        DirectResetFreq ....    20
 Integral Threshold     Thresh          ....  1.000e-12 Eh
 Primitive CutOff       TCut            ....  1.000e-13 Eh

Convergence Tolerance:
 Convergence Check Mode ConvCheckMode   .... Total+1el-Energy
 Convergence forced     ConvForced      .... 0
 Energy Change          TolE            ....  1.000e-08 Eh
 1-El. energy change                    ....  1.000e-05 Eh
 Orbital Gradient       TolG            ....  1.000e-05
 Orbital Rotation angle TolX            ....  1.000e-05
 DIIS Error             TolErr          ....  5.000e-07

------------------------------
INITIAL GUESS: MODEL POTENTIAL
------------------------------
Loading Hartree-Fock densities                     ... done
Calculating cut-offs                               ... done
Initializing the effective Hamiltonian             ... done
Setting up the integral package (SHARK)            ... done
Starting the Coulomb interaction                   ... done (   2.5 sec)
Making the grid                                    ... done (   1.7 sec)
Mapping shells                                     ... done
Starting the XC term evaluation                    ... done (   0.9 sec)
  promolecular density results
     # of electrons  =    108.987812113
     EX              =    -87.487837817
     EC              =     -3.665531718
     EX+EC           =    -91.153369536
Transforming the Hamiltonian                       ... done (   0.9 sec)
Diagonalizing the Hamiltonian                      ... done (   0.4 sec)
Back transforming the eigenvectors                 ... done (   1.6 sec)
Now organizing SCF variables                       ... done
                      ------------------
                      INITIAL GUESS DONE (  16.5 sec)
                      ------------------
             **** ENERGY FILE WAS UPDATED (cs_rporg_w03_red_solv_05.en.tmp) ****
Finished Guess after  30.1 sec
Maximum memory used throughout the entire GUESS-calculation: 116.9 MB


           ************************************************************
           *        Program running with 15 parallel MPI-processes    *
           *              working on a common directory               *
           ************************************************************

-------------------------------------------------------------------------------------------
                                      ORCA LEAN-SCF
                              memory conserving SCF solver
-------------------------------------------------------------------------------------------

--------------------
CPCM SOLVATION MODEL
--------------------
CPCM parameters:
  Epsilon                                         ...      78.3550
  Refrac                                          ...       1.3328
  Rsolv                                           ...       1.4000
  Surface type                                    ...    GEPOL SES
  Discretization scheme                           ... Constant num. charges
  Epsilon function type                           ...         CPCM
Solvent:                                          ... WATER
SMD-CDS solvent descriptors:
  Soln                                            ...       1.3328
  Soln25                                          ...       1.3323
  Sola                                            ...       0.0000
  Solb                                            ...       0.0000
  Solg                                            ...       0.0000
  Solc                                            ...       0.0000
  Solh                                            ...       0.0000
Radii:
  Scheme                                          ... Element-dependent radii
  Radius for O  used is    2.8724 Bohr (=   1.5200 Ang.)
  Radius for N  used is    3.5716 Bohr (=   1.8900 Ang.)
  Radius for C  used is    3.4960 Bohr (=   1.8500 Ang.)
  Radius for H  used is    2.2677 Bohr (=   1.2000 Ang.)
Calculating surface                               ...        done! (  0.2s)
Cavity surface points                             ...         1288
Cavity Volume                                     ...    1460.0423
Cavity Surface-area                               ...     774.5150
Calculating surface distance matrix               ...        done! (  0.0s)
Performing Cholesky decomposition & store         ...        done! (  0.1s)
Overall time for CPCM initialization              ...                 0.3s

----------------------------------------D-I-I-S--------------------------------------------
Iteration    Energy (Eh)           Delta-E    RMSDP     MaxDP     DIISErr   Damp  Time(sec)
-------------------------------------------------------------------------------------------
               ***  Starting incremental Fock matrix formation  ***
    1    -671.3830034255265673     0.00e+00  9.05e-04  1.59e-01  1.46e-01  0.850  80.6
    2    -671.4912218227536869    -1.08e-01  8.59e-04  1.46e-01  1.04e-01  0.850  76.8
                               ***Turning on AO-DIIS***
    3    -671.5619341855792754    -7.07e-02  6.83e-04  1.18e-01  6.74e-02  0.850  68.8
    4    -671.6071390751801573    -4.52e-02  5.59e-04  1.03e-01  5.55e-02  0.850  70.0
    5    -671.6400580015008472    -3.29e-02  4.71e-04  8.86e-02  4.78e-02  0.850  69.6
    6    -671.6661205284742664    -2.61e-02  4.01e-04  7.56e-02  4.09e-02  0.850  72.2
    7    -671.6875008907566098    -2.14e-02  3.44e-04  6.48e-02  3.40e-02  0.850  70.3
    8    -671.7050899879977806    -1.76e-02  2.94e-04  5.55e-02  2.79e-02  0.850  73.7
    9    -671.7194910644652737    -1.44e-02  1.66e-03  3.15e-01  2.33e-02  0.000  68.7
   10    -671.7932752434294343    -7.38e-02  2.70e-05  4.00e-03  1.42e-03  0.000  66.9
   11    -671.7933311878391578    -5.59e-05  1.45e-05  1.65e-03  2.02e-03  0.000  66.6
                              *** Initializing SOSCF ***
---------------------------------------S-O-S-C-F--------------------------------------
Iteration    Energy (Eh)           Delta-E    RMSDP     MaxDP     MaxGrad    Time(sec)
--------------------------------------------------------------------------------------
   12    -671.7933622146820198    -3.10e-05  6.20e-06  8.05e-04  2.46e-04    73.2
               *** Restarting incremental Fock matrix formation ***
   13    -671.7933580702790550     4.14e-06  2.30e-04  2.70e-02  1.61e-04    73.1
   14    -671.7933589202625626    -8.50e-07  1.06e-04  1.17e-02  1.29e-04    71.6
   15    -671.7933590265322437    -1.06e-07  9.33e-05  9.80e-03  6.58e-05    70.4
   16    -671.7933592456295173    -2.19e-07  2.17e-05  3.07e-03  1.71e-05    69.2
   17    -671.7933592309184405     1.47e-08  1.19e-05  8.62e-04  2.11e-05    72.0
   18    -671.7933592523995685    -2.15e-08  2.52e-06  6.23e-04  3.38e-06    67.2
   19    -671.7933592931667590    -4.08e-08  1.80e-06  4.77e-04  1.41e-06    64.3
                  *** Gradient check signals convergence ***

               *****************************************************
               *                     SUCCESS                       *
               *           SCF CONVERGED AFTER  19 CYCLES          *
               *****************************************************

Recomputing exchange energy using gridx3       ... done (   46.076 sec)
Old exchange energy                            :    -22.382967479 Eh
New exchange energy                            :    -22.382958675 Eh
Exchange energy change after final integration :      0.000008804 Eh
Total energy after final integration           :   -671.793350489 Eh

SMD CDS free energy correction energy :                 6.82649     Kcal/mol
Total Energy after SMD CDS correction =              -671.782471787 Eh
             **** ENERGY FILE WAS UPDATED (cs_rporg_w03_red_solv_05.en.tmp) ****

----------------
TOTAL SCF ENERGY
----------------

Total Energy       :       -671.78247178690242 Eh          -18280.13040 eV

Components:
Nuclear Repulsion  :       1020.96639571741298 Eh           27781.90803 eV
Electronic Energy  :      -1692.72799285068368 Eh          -46061.47041 eV
One Electron Energy:      -2941.45913585816061 Eh          -80041.17230 eV
Two Electron Energy:       1248.73114300747693 Eh           33979.70190 eV
CPCM Dielectric    :         -0.03176215989612 Eh              -0.86429 eV
SMD CDS (Gcds)     :          0.01087870222532 Eh               0.29602 eV

Virial components:
Potential Energy   :      -1339.36822627617494 Eh          -36446.06232 eV
Kinetic Energy     :        667.58575448927240 Eh           18165.93192 eV
Virial Ratio       :          2.00628640930309

DFT components:
N(Alpha)           :       54.999909494514 electrons
N(Beta)            :       53.999900850349 electrons
N(Total)           :      108.999810344863 electrons
E(X)               :      -66.943735144232 Eh       
E(C)               :       -3.651651638340 Eh       
E(XC)              :      -70.595386782572 Eh       

CPCM Solvation Model Properties:
Surface-charge          :         -0.06018321126943
Corrected charge        :          0.00000000000000
Outlying charge corr.   :          0.00023850898127 Eh               0.00649 eV
Free-energy (cav+disp)  :          0.01087870222532 Eh               0.29602 eV

---------------
SCF CONVERGENCE
---------------

  Last Energy change         ...    4.0767e-08  Tolerance :   1.0000e-08
  Last MAX-Density change    ...    4.7658e-04  Tolerance :   1.0000e-07
  Last RMS-Density change    ...    1.7972e-06  Tolerance :   5.0000e-09
  Last DIIS Error            ...    2.4589e-04  Tolerance :   5.0000e-07
  Last Orbital Gradient      ...    1.4072e-06  Tolerance :   1.0000e-05
  Last Orbital Rotation      ...    3.4764e-06  Tolerance :   1.0000e-05


----------------------
UHF SPIN CONTAMINATION
----------------------

Warning: in a DFT calculation there is little theoretical justification to 
         calculate <S**2> as in Hartree-Fock theory. We will do it anyways
         but you should keep in mind that the values have only limited relevance

Expectation value of <S**2>     :     0.755090
Ideal value S*(S+1) for S=0.5   :     0.750000
Deviation                       :     0.005090

----------------
ORBITAL ENERGIES
----------------
                 SPIN UP ORBITALS
  NO   OCC          E(Eh)            E(eV) 
   0   1.0000     -19.262039      -524.1467 
   1   1.0000     -19.215935      -522.8922 
   2   1.0000     -19.209992      -522.7305 
   3   1.0000     -14.485643      -394.1744 
   4   1.0000     -10.366121      -282.0765 
   5   1.0000     -10.278730      -279.6985 
   6   1.0000     -10.277745      -279.6717 
   7   1.0000     -10.247460      -278.8476 
   8   1.0000     -10.233035      -278.4550 
   9   1.0000     -10.227929      -278.3161 
  10   1.0000     -10.214373      -277.9472 
  11   1.0000     -10.214003      -277.9371 
  12   1.0000     -10.211622      -277.8723 
  13   1.0000     -10.211073      -277.8574 
  14   1.0000      -1.149914       -31.2908 
  15   1.0000      -1.147902       -31.2360 
  16   1.0000      -1.059277       -28.8244 
  17   1.0000      -0.906793       -24.6751 
  18   1.0000      -0.849929       -23.1277 
  19   1.0000      -0.821349       -22.3500 
  20   1.0000      -0.744896       -20.2697 
  21   1.0000      -0.714730       -19.4488 
  22   1.0000      -0.706964       -19.2375 
  23   1.0000      -0.703638       -19.1470 
  24   1.0000      -0.681882       -18.5549 
  25   1.0000      -0.621010       -16.8985 
  26   1.0000      -0.612083       -16.6556 
  27   1.0000      -0.545896       -14.8546 
  28   1.0000      -0.526389       -14.3238 
  29   1.0000      -0.519310       -14.1311 
  30   1.0000      -0.512642       -13.9497 
  31   1.0000      -0.503475       -13.7002 
  32   1.0000      -0.496140       -13.5007 
  33   1.0000      -0.475001       -12.9254 
  34   1.0000      -0.466238       -12.6870 
  35   1.0000      -0.450370       -12.2552 
  36   1.0000      -0.440535       -11.9876 
  37   1.0000      -0.432724       -11.7750 
  38   1.0000      -0.422758       -11.5038 
  39   1.0000      -0.415988       -11.3196 
  40   1.0000      -0.401205       -10.9173 
  41   1.0000      -0.398317       -10.8387 
  42   1.0000      -0.383771       -10.4429 
  43   1.0000      -0.381614       -10.3842 
  44   1.0000      -0.375667       -10.2224 
  45   1.0000      -0.368541       -10.0285 
  46   1.0000      -0.365246        -9.9389 
  47   1.0000      -0.354880        -9.6568 
  48   1.0000      -0.351801        -9.5730 
  49   1.0000      -0.344957        -9.3868 
  50   1.0000      -0.340782        -9.2732 
  51   1.0000      -0.333364        -9.0713 
  52   1.0000      -0.301540        -8.2053 
  53   1.0000      -0.281703        -7.6655 
  54   1.0000      -0.217081        -5.9071 
  55   0.0000      -0.000780        -0.0212 
  56   0.0000       0.001223         0.0333 
  57   0.0000       0.011737         0.3194 
  58   0.0000       0.014468         0.3937 
  59   0.0000       0.016188         0.4405 
  60   0.0000       0.029212         0.7949 
  61   0.0000       0.033293         0.9059 
  62   0.0000       0.033864         0.9215 
  63   0.0000       0.034659         0.9431 
  64   0.0000       0.035352         0.9620 
  65   0.0000       0.050051         1.3620 

                 SPIN DOWN ORBITALS
  NO   OCC          E(Eh)            E(eV) 
   0   1.0000     -19.262039      -524.1467 
   1   1.0000     -19.209992      -522.7305 
   2   1.0000     -19.202883      -522.5370 
   3   1.0000     -14.472613      -393.8198 
   4   1.0000     -10.366112      -282.0763 
   5   1.0000     -10.279186      -279.7109 
   6   1.0000     -10.278200      -279.6840 
   7   1.0000     -10.247480      -278.8481 
   8   1.0000     -10.232988      -278.4538 
   9   1.0000     -10.227883      -278.3148 
  10   1.0000     -10.213686      -277.9285 
  11   1.0000     -10.213317      -277.9185 
  12   1.0000     -10.211368      -277.8655 
  13   1.0000     -10.210819      -277.8505 
  14   1.0000      -1.149885       -31.2900 
  15   1.0000      -1.123282       -30.5661 
  16   1.0000      -1.059277       -28.8244 
  17   1.0000      -0.897878       -24.4325 
  18   1.0000      -0.848597       -23.0915 
  19   1.0000      -0.815104       -22.1801 
  20   1.0000      -0.730505       -19.8780 
  21   1.0000      -0.712124       -19.3779 
  22   1.0000      -0.706574       -19.2269 
  23   1.0000      -0.702359       -19.1122 
  24   1.0000      -0.679730       -18.4964 
  25   1.0000      -0.617755       -16.8100 
  26   1.0000      -0.611250       -16.6330 
  27   1.0000      -0.539413       -14.6782 
  28   1.0000      -0.524393       -14.2695 
  29   1.0000      -0.518183       -14.1005 
  30   1.0000      -0.506922       -13.7941 
  31   1.0000      -0.493640       -13.4326 
  32   1.0000      -0.478366       -13.0170 
  33   1.0000      -0.466564       -12.6958 
  34   1.0000      -0.459423       -12.5015 
  35   1.0000      -0.449790       -12.2394 
  36   1.0000      -0.439887       -11.9699 
  37   1.0000      -0.430162       -11.7053 
  38   1.0000      -0.415747       -11.3131 
  39   1.0000      -0.413407       -11.2494 
  40   1.0000      -0.397296       -10.8110 
  41   1.0000      -0.396481       -10.7888 
  42   1.0000      -0.379640       -10.3305 
  43   1.0000      -0.375389       -10.2149 
  44   1.0000      -0.374033       -10.1780 
  45   1.0000      -0.364993        -9.9320 
  46   1.0000      -0.358418        -9.7530 
  47   1.0000      -0.353927        -9.6308 
  48   1.0000      -0.344983        -9.3875 
  49   1.0000      -0.343353        -9.3431 
  50   1.0000      -0.337436        -9.1821 
  51   1.0000      -0.321460        -8.7474 
  52   1.0000      -0.301355        -8.2003 
  53   1.0000      -0.271706        -7.3935 
  54   0.0000      -0.055888        -1.5208 
  55   0.0000      -0.000691        -0.0188 
  56   0.0000       0.001580         0.0430 
  57   0.0000       0.012307         0.3349 
  58   0.0000       0.014646         0.3985 
  59   0.0000       0.016648         0.4530 
  60   0.0000       0.029880         0.8131 
  61   0.0000       0.033486         0.9112 
  62   0.0000       0.034202         0.9307 
  63   0.0000       0.034883         0.9492 
  64   0.0000       0.035733         0.9723 
*Only the first 10 virtual orbitals were printed.

                    ********************************
                    * MULLIKEN POPULATION ANALYSIS *
                    ********************************

--------------------------------------------
MULLIKEN ATOMIC CHARGES AND SPIN POPULATIONS
--------------------------------------------
   0 O :   -1.098790    0.487564
   1 N :    0.301302    0.494045
   2 C :    2.339206   -0.025757
   3 C :   -1.100100   -0.007531
   4 C :    0.925128   -0.003763
   5 C :   -0.622508   -0.008332
   6 C :    2.201519   -0.034028
   7 C :   -1.343538    0.030571
   8 C :   -1.487238    0.012313
   9 C :   -1.338606    0.031946
  10 C :   -1.483589    0.013684
  11 H :    0.308506   -0.002402
  12 H :    0.188127    0.000582
  13 H :    0.194063    0.008752
  14 H :    0.429396   -0.002428
  15 H :    0.092066    0.003853
  16 H :    0.213626    0.002824
  17 H :    0.251643   -0.002504
  18 H :    0.076058    0.004794
  19 H :    0.218062   -0.004653
  20 H :    0.221139    0.001473
  21 H :    0.190843   -0.000790
  22 H :    0.195063    0.003317
  23 H :    0.271409   -0.002677
  24 H :    0.074642    0.004763
  25 H :    0.226112   -0.004721
  26 H :    0.221180    0.001325
  27 H :    0.182821   -0.000726
  28 C :    0.356502   -0.001426
  29 O :   -0.987062    0.000058
  30 O :   -0.441475   -0.000109
  31 H :    0.224492   -0.000016
Sum of atomic charges         :    0.0000000
Sum of atomic spin populations:    1.0000000

-----------------------------------------------------
MULLIKEN REDUCED ORBITAL CHARGES AND SPIN POPULATIONS
-----------------------------------------------------
CHARGE
  0 O s       :     4.107851  s :     4.107851
      pz      :     1.921615  p :     4.909760
      px      :     1.534164
      py      :     1.453981
      dz2     :     0.005383  d :     0.070974
      dxz     :     0.011795
      dyz     :     0.018717
      dx2y2   :     0.025844
      dxy     :     0.009235
      f0      :     0.001371  f :     0.010204
      f+1     :     0.000791
      f-1     :     0.000672
      f+2     :     0.000653
      f-2     :     0.002110
      f+3     :     0.001740
      f-3     :     0.002867

  1 N s       :     3.679188  s :     3.679188
      pz      :     1.026916  p :     2.997834
      px      :     1.088738
      py      :     0.882179
      dz2     :     0.072559  d :     0.011548
      dxz     :    -0.008112
      dyz     :    -0.014454
      dx2y2   :    -0.034508
      dxy     :    -0.003938
      f0      :     0.002788  f :     0.010129
      f+1     :     0.003309
      f-1     :     0.000404
      f+2     :     0.000732
      f-2     :     0.001246
      f+3     :     0.000397
      f-3     :     0.001252

  2 C s       :     2.602775  s :     2.602775
      pz      :     0.337063  p :     1.049164
      px      :     0.408118
      py      :     0.303984
      dz2     :    -0.085115  d :     0.028462
      dxz     :     0.012359
      dyz     :     0.072541
      dx2y2   :     0.007049
      dxy     :     0.021627
      f0      :    -0.001612  f :    -0.019607
      f+1     :    -0.001474
      f-1     :     0.003517
      f+2     :    -0.004026
      f-2     :    -0.006477
      f+3     :     0.000810
      f-3     :    -0.010344

  3 C s       :     3.856376  s :     3.856376
      pz      :     0.985396  p :     3.013164
      px      :     1.091202
      py      :     0.936566
      dz2     :     0.016441  d :     0.203622
      dxz     :     0.074501
      dyz     :     0.016582
      dx2y2   :     0.050773
      dxy     :     0.045325
      f0      :     0.006207  f :     0.026938
      f+1     :     0.001907
      f-1     :     0.000910
      f+2     :     0.004318
      f-2     :     0.006784
      f+3     :     0.003768
      f-3     :     0.003044

  4 C s       :     3.057814  s :     3.057814
      pz      :     0.935397  p :     2.048127
      px      :     0.607867
      py      :     0.504863
      dz2     :     0.057720  d :     0.003936
      dxz     :    -0.024172
      dyz     :     0.024055
      dx2y2   :    -0.023964
      dxy     :    -0.029703
      f0      :    -0.002610  f :    -0.035006
      f+1     :    -0.004910
      f-1     :    -0.002998
      f+2     :    -0.001431
      f-2     :    -0.000751
      f+3     :     0.000617
      f-3     :    -0.022923

  5 C s       :     3.761891  s :     3.761891
      pz      :     1.004171  p :     2.835105
      px      :     0.888531
      py      :     0.942402
      dz2     :     0.048715  d :    -0.006686
      dxz     :     0.004359
      dyz     :    -0.031717
      dx2y2   :     0.021895
      dxy     :    -0.049938
      f0      :     0.003672  f :     0.032199
      f+1     :     0.004372
      f-1     :     0.001475
      f+2     :     0.006633
      f-2     :    -0.000286
      f+3     :     0.002186
      f-3     :     0.014147

  6 C s       :     2.637480  s :     2.637480
      pz      :     0.366820  p :     1.152272
      px      :     0.116860
      py      :     0.668592
      dz2     :    -0.018457  d :     0.026822
      dxz     :     0.033585
      dyz     :     0.091349
      dx2y2   :    -0.006806
      dxy     :    -0.072849
      f0      :    -0.006853  f :    -0.018093
      f+1     :     0.002147
      f-1     :    -0.004803
      f+2     :    -0.003638
      f-2     :     0.000675
      f+3     :    -0.002374
      f-3     :    -0.003248

  7 C s       :     3.845317  s :     3.845317
      pz      :     1.146062  p :     3.382056
      px      :     1.123168
      py      :     1.112826
      dz2     :     0.016957  d :     0.091804
      dxz     :     0.037878
      dyz     :     0.016512
      dx2y2   :     0.007448
      dxy     :     0.013010
      f0      :     0.001366  f :     0.024360
      f+1     :     0.003550
      f-1     :     0.003711
      f+2     :     0.002607
      f-2     :     0.005176
      f+3     :     0.003449
      f-3     :     0.004502

  8 C s       :     4.012668  s :     4.012668
      pz      :     1.052962  p :     3.362294
      px      :     1.152472
      py      :     1.156859
      dz2     :     0.016735  d :     0.084388
      dxz     :     0.043681
      dyz     :     0.002293
      dx2y2   :     0.006440
      dxy     :     0.015239
      f0      :     0.003870  f :     0.027888
      f+1     :     0.005982
      f-1     :     0.001998
      f+2     :     0.005603
      f-2     :     0.004894
      f+3     :     0.003311
      f-3     :     0.002230

  9 C s       :     3.850959  s :     3.850959
      pz      :     1.049656  p :     3.375510
      px      :     1.190078
      py      :     1.135776
      dz2     :     0.023000  d :     0.087638
      dxz     :    -0.005433
      dyz     :     0.033118
      dx2y2   :     0.016568
      dxy     :     0.020385
      f0      :     0.001973  f :     0.024499
      f+1     :     0.002082
      f-1     :     0.006166
      f+2     :     0.004244
      f-2     :     0.003731
      f+3     :     0.003489
      f-3     :     0.002813

 10 C s       :     4.009354  s :     4.009354
      pz      :     1.141793  p :     3.365128
      px      :     1.060632
      py      :     1.162703
      dz2     :     0.004096  d :     0.081425
      dxz     :     0.014889
      dyz     :     0.026876
      dx2y2   :     0.012141
      dxy     :     0.023423
      f0      :     0.003859  f :     0.027683
      f+1     :     0.003327
      f-1     :     0.003044
      f+2     :     0.006491
      f-2     :     0.000411
      f+3     :     0.004419
      f-3     :     0.006132

 11 H s       :     0.676034  s :     0.676034
      pz      :     0.005567  p :     0.003991
      px      :    -0.020425
      py      :     0.018849
      dz2     :     0.003223  d :     0.011468
      dxz     :     0.002173
      dyz     :     0.004475
      dx2y2   :    -0.001407
      dxy     :     0.003004

 12 H s       :     0.785835  s :     0.785835
      pz      :     0.017178  p :     0.014420
      px      :    -0.002795
      py      :     0.000037
      dz2     :     0.003937  d :     0.011617
      dxz     :     0.002074
      dyz     :     0.002888
      dx2y2   :     0.003045
      dxy     :    -0.000327

 13 H s       :     0.784928  s :     0.784928
      pz      :     0.015508  p :     0.005796
      px      :     0.010445
      py      :    -0.020157
      dz2     :     0.003858  d :     0.015213
      dxz     :     0.003420
      dyz     :     0.001123
      dx2y2   :     0.004510
      dxy     :     0.002303

 14 H s       :     0.566132  s :     0.566132
      pz      :    -0.027575  p :    -0.004938
      px      :     0.016480
      py      :     0.006157
      dz2     :     0.000842  d :     0.009411
      dxz     :     0.002301
      dyz     :     0.000380
      dx2y2   :     0.003108
      dxy     :     0.002781

 15 H s       :     0.832596  s :     0.832596
      pz      :     0.003734  p :     0.065182
      px      :     0.028750
      py      :     0.032698
      dz2     :     0.001478  d :     0.010156
      dxz     :    -0.000134
      dyz     :     0.003569
      dx2y2   :     0.003910
      dxy     :     0.001332

 16 H s       :     0.734312  s :     0.734312
      pz      :     0.007092  p :     0.046371
      px      :     0.013076
      py      :     0.026203
      dz2     :    -0.000177  d :     0.005691
      dxz     :     0.001669
      dyz     :     0.002085
      dx2y2   :     0.002337
      dxy     :    -0.000223

 17 H s       :     0.720308  s :     0.720308
      pz      :    -0.001059  p :     0.024689
      px      :     0.027375
      py      :    -0.001627
      dz2     :     0.000450  d :     0.003360
      dxz     :     0.000996
      dyz     :    -0.000244
      dx2y2   :     0.000667
      dxy     :     0.001492

 18 H s       :     0.858560  s :     0.858560
      pz      :     0.014872  p :     0.058085
      px      :     0.022881
      py      :     0.020332
      dz2     :     0.002398  d :     0.007297
      dxz     :    -0.001334
      dyz     :     0.001412
      dx2y2   :     0.000987
      dxy     :     0.003834

 19 H s       :     0.726594  s :     0.726594
      pz      :     0.018295  p :     0.048817
      px      :     0.015792
      py      :     0.014731
      dz2     :     0.000043  d :     0.006526
      dxz     :     0.002517
      dyz     :     0.001476
      dx2y2   :     0.000937
      dxy     :     0.001553

 20 H s       :     0.731849  s :     0.731849
      pz      :     0.022321  p :     0.040115
      px      :     0.015053
      py      :     0.002742
      dz2     :     0.001050  d :     0.006896
      dxz     :     0.003992
      dyz     :     0.000188
      dx2y2   :     0.002409
      dxy     :    -0.000743

 21 H s       :     0.762599  s :     0.762599
      pz      :     0.018142  p :     0.039150
      px      :     0.006993
      py      :     0.014015
      dz2     :     0.004760  d :     0.007409
      dxz     :    -0.001344
      dyz     :     0.002610
      dx2y2   :     0.000098
      dxy     :     0.001284

 22 H s       :     0.751746  s :     0.751746
      pz      :     0.026304  p :     0.047134
      px      :     0.006771
      py      :     0.014059
      dz2     :    -0.000598  d :     0.006057
      dxz     :     0.000104
      dyz     :     0.005021
      dx2y2   :     0.001389
      dxy     :     0.000141

 23 H s       :     0.709650  s :     0.709650
      pz      :    -0.006060  p :     0.015430
      px      :     0.015961
      py      :     0.005528
      dz2     :    -0.000899  d :     0.003511
      dxz     :     0.002713
      dyz     :    -0.000935
      dx2y2   :    -0.000870
      dxy     :     0.003502

 24 H s       :     0.860970  s :     0.860970
      pz      :     0.032183  p :     0.057178
      px      :     0.013979
      py      :     0.011017
      dz2     :     0.004611  d :     0.007209
      dxz     :     0.002482
      dyz     :    -0.001020
      dx2y2   :     0.000469
      dxy     :     0.000667

 25 H s       :     0.719893  s :     0.719893
      pz      :     0.014152  p :     0.047605
      px      :     0.029555
      py      :     0.003897
      dz2     :     0.000732  d :     0.006389
      dxz     :    -0.000028
      dyz     :     0.001501
      dx2y2   :     0.003816
      dxy     :     0.000368

 26 H s       :     0.731524  s :     0.731524
      pz      :     0.000076  p :     0.040504
      px      :     0.026965
      py      :     0.013464
      dz2     :     0.002189  d :     0.006792
      dxz     :    -0.000361
      dyz     :     0.001044
      dx2y2   :     0.002648
      dxy     :     0.001272

 27 H s       :     0.769087  s :     0.769087
      pz      :     0.015717  p :     0.040758
      px      :     0.018360
      py      :     0.006682
      dz2     :     0.001564  d :     0.007334
      dxz     :     0.003102
      dyz     :    -0.000956
      dx2y2   :     0.000651
      dxy     :     0.002973

 28 C s       :     3.761994  s :     3.761994
      pz      :     0.555730  p :     1.624858
      px      :     0.563920
      py      :     0.505208
      dz2     :     0.002285  d :     0.237102
      dxz     :     0.039939
      dyz     :     0.044239
      dx2y2   :     0.068365
      dxy     :     0.082274
      f0      :     0.003449  f :     0.019545
      f+1     :     0.002827
      f-1     :     0.000857
      f+2     :     0.003150
      f-2     :     0.007002
      f+3     :    -0.000798
      f-3     :     0.003056

 29 O s       :     4.120264  s :     4.120264
      pz      :     1.526973  p :     4.807770
      px      :     1.352723
      py      :     1.928074
      dz2     :     0.003327  d :     0.053848
      dxz     :     0.017501
      dyz     :     0.002305
      dx2y2   :     0.008199
      dxy     :     0.022515
      f0      :     0.000319  f :     0.005181
      f+1     :     0.000655
      f-1     :     0.000164
      f+2     :     0.000892
      f-2     :     0.000479
      f+3     :     0.000392
      f-3     :     0.002281

 30 O s       :     3.957073  s :     3.957073
      pz      :     1.696756  p :     4.433998
      px      :     1.505687
      py      :     1.231555
      dz2     :    -0.001156  d :     0.046025
      dxz     :     0.004828
      dyz     :     0.009915
      dx2y2   :     0.027316
      dxy     :     0.005122
      f0      :     0.000556  f :     0.004379
      f+1     :     0.000183
      f-1     :     0.000247
      f+2     :     0.000060
      f-2     :     0.001010
      f+3     :     0.000498
      f-3     :     0.001826

 31 H s       :     0.660217  s :     0.660217
      pz      :     0.036083  p :     0.087010
      px      :     0.021598
      py      :     0.029330
      dz2     :     0.003494  d :     0.028280
      dxz     :     0.003635
      dyz     :     0.006390
      dx2y2   :     0.011259
      dxy     :     0.003504


SPIN
  0 O s       :     0.020135  s :     0.020135
      pz      :     0.166345  p :     0.466499
      px      :     0.195360
      py      :     0.104794
      dz2     :     0.000200  d :     0.000921
      dxz     :     0.000185
      dyz     :    -0.000057
      dx2y2   :    -0.000573
      dxy     :     0.001167
      f0      :     0.000039  f :     0.000009
      f+1     :     0.000011
      f-1     :    -0.000008
      f+2     :     0.000052
      f-2     :    -0.000002
      f+3     :    -0.000119
      f-3     :     0.000036

  1 N s       :     0.002746  s :     0.002746
      pz      :     0.198604  p :     0.498105
      px      :     0.179076
      py      :     0.120425
      dz2     :     0.004037  d :    -0.002324
      dxz     :     0.003700
      dyz     :    -0.007960
      dx2y2   :    -0.003049
      dxy     :     0.000947
      f0      :    -0.000932  f :    -0.004482
      f+1     :    -0.000095
      f-1     :    -0.000396
      f+2     :    -0.000166
      f-2     :    -0.000772
      f+3     :    -0.000225
      f-3     :    -0.001897

  2 C s       :    -0.000361  s :    -0.000361
      pz      :    -0.015461  p :    -0.036575
      px      :    -0.015137
      py      :    -0.005978
      dz2     :     0.008387  d :     0.013761
      dxz     :     0.002695
      dyz     :     0.002353
      dx2y2   :    -0.005977
      dxy     :     0.006304
      f0      :     0.001138  f :    -0.002581
      f+1     :    -0.000356
      f-1     :    -0.000251
      f+2     :    -0.000010
      f-2     :    -0.001293
      f+3     :    -0.000914
      f-3     :    -0.000895

  3 C s       :    -0.008852  s :    -0.008852
      pz      :     0.002450  p :    -0.000063
      px      :    -0.002067
      py      :    -0.000446
      dz2     :    -0.001039  d :     0.000814
      dxz     :     0.000412
      dyz     :     0.000377
      dx2y2   :    -0.000317
      dxy     :     0.001380
      f0      :    -0.000054  f :     0.000570
      f+1     :    -0.000137
      f-1     :     0.000037
      f+2     :     0.000217
      f-2     :     0.000140
      f+3     :     0.000404
      f-3     :    -0.000037

  4 C s       :     0.000939  s :     0.000939
      pz      :     0.000356  p :    -0.003271
      px      :    -0.000095
      py      :    -0.003531
      dz2     :    -0.000616  d :    -0.001413
      dxz     :    -0.002336
      dyz     :    -0.000270
      dx2y2   :    -0.002103
      dxy     :     0.003912
      f0      :     0.000027  f :    -0.000019
      f+1     :    -0.000030
      f-1     :    -0.000024
      f+2     :     0.000083
      f-2     :     0.000003
      f+3     :     0.000031
      f-3     :    -0.000108

  5 C s       :    -0.006737  s :    -0.006737
      pz      :    -0.000017  p :    -0.001397
      px      :     0.000627
      py      :    -0.002007
      dz2     :     0.001264  d :    -0.000786
      dxz     :     0.000621
      dyz     :    -0.002715
      dx2y2   :     0.000540
      dxy     :    -0.000496
      f0      :     0.000123  f :     0.000589
      f+1     :     0.000121
      f-1     :     0.000381
      f+2     :    -0.000092
      f-2     :     0.000053
      f+3     :    -0.000019
      f-3     :     0.000022

  6 C s       :    -0.003596  s :    -0.003596
      pz      :    -0.013110  p :    -0.037659
      px      :    -0.004292
      py      :    -0.020257
      dz2     :     0.015155  d :     0.009834
      dxz     :    -0.003564
      dyz     :    -0.005899
      dx2y2   :     0.002162
      dxy     :     0.001980
      f0      :    -0.001055  f :    -0.002608
      f+1     :    -0.000164
      f-1     :    -0.000282
      f+2     :    -0.000675
      f-2     :    -0.000118
      f+3     :     0.000209
      f-3     :    -0.000523

  7 C s       :    -0.001199  s :    -0.001199
      pz      :     0.001519  p :     0.029313
      px      :     0.008853
      py      :     0.018941
      dz2     :     0.001137  d :     0.002667
      dxz     :     0.000233
      dyz     :     0.000161
      dx2y2   :     0.000426
      dxy     :     0.000710
      f0      :     0.000088  f :    -0.000210
      f+1     :    -0.000079
      f-1     :    -0.000163
      f+2     :     0.000083
      f-2     :     0.000006
      f+3     :    -0.000099
      f-3     :    -0.000044

  8 C s       :    -0.002225  s :    -0.002225
      pz      :     0.005110  p :     0.011979
      px      :     0.003246
      py      :     0.003623
      dz2     :     0.001620  d :     0.002416
      dxz     :     0.000216
      dyz     :     0.000484
      dx2y2   :     0.000220
      dxy     :    -0.000124
      f0      :    -0.000109  f :     0.000144
      f+1     :     0.000053
      f-1     :    -0.000042
      f+2     :    -0.000157
      f-2     :     0.000119
      f+3     :     0.000231
      f-3     :     0.000047

  9 C s       :    -0.000780  s :    -0.000780
      pz      :     0.022434  p :     0.030550
      px      :     0.004568
      py      :     0.003548
      dz2     :    -0.000669  d :     0.002371
      dxz     :     0.001229
      dyz     :    -0.000122
      dx2y2   :     0.000536
      dxy     :     0.001396
      f0      :    -0.000071  f :    -0.000194
      f+1     :    -0.000087
      f-1     :    -0.000016
      f+2     :     0.000014
      f-2     :     0.000113
      f+3     :    -0.000122
      f-3     :    -0.000025

 10 C s       :    -0.001625  s :    -0.001625
      pz      :     0.002645  p :     0.012485
      px      :     0.006608
      py      :     0.003231
      dz2     :     0.000309  d :     0.002687
      dxz     :     0.001223
      dyz     :    -0.000460
      dx2y2   :     0.000727
      dxy     :     0.000888
      f0      :     0.000429  f :     0.000137
      f+1     :    -0.000184
      f-1     :     0.000075
      f+2     :    -0.000121
      f-2     :     0.000072
      f+3     :    -0.000033
      f-3     :    -0.000102

 11 H s       :    -0.001968  s :    -0.001968
      pz      :     0.000085  p :    -0.000578
      px      :    -0.000516
      py      :    -0.000147
      dz2     :     0.000018  d :     0.000144
      dxz     :     0.000049
      dyz     :     0.000040
[...]

 22 H s       :    -0.000781  s :    -0.000781
      pz      :     0.001585  p :     0.002784
      px      :     0.000820
      py      :     0.000378
      dz2     :    -0.000337  d :    -0.000120
      dxz     :     0.000003
      dyz     :    -0.000082
      dx2y2   :     0.000206
      dxy     :     0.000089

 23 H s       :    -0.000445  s :    -0.000445
      pz      :     0.000574  p :     0.000982
      px      :     0.000084
      py      :     0.000324
      dz2     :     0.000644  d :     0.001265
      dxz     :     0.000218
      dyz     :     0.000031
      dx2y2   :     0.000023
      dxy     :     0.000349

 24 H s       :     0.001418  s :     0.001418
      pz      :     0.001889  p :     0.002576
      px      :     0.000135
      py      :     0.000552
      dz2     :     0.001179  d :     0.001406
      dxz     :     0.000011
      dyz     :     0.000025
      dx2y2   :     0.000122
      dxy     :     0.000070

 25 H s       :    -0.000346  s :    -0.000346
      pz      :     0.000149  p :    -0.000021
      px      :     0.000056
      py      :    -0.000226
      dz2     :     0.000064  d :     0.000164
      dxz     :     0.000030
      dyz     :    -0.000209
      dx2y2   :     0.000054
      dxy     :     0.000227

 26 H s       :    -0.000164  s :    -0.000164
      pz      :     0.000129  p :     0.000138
      px      :     0.000202
      py      :    -0.000193
      dz2     :     0.000244  d :     0.001092
      dxz     :     0.000894
      dyz     :    -0.000027
      dx2y2   :    -0.000039
      dxy     :     0.000019

 27 H s       :    -0.000341  s :    -0.000341
      pz      :     0.000094  p :     0.000515
      px      :     0.000453
      py      :    -0.000032
      dz2     :     0.000073  d :     0.000413
      dxz     :     0.000224
      dyz     :     0.000044
      dx2y2   :    -0.000001
      dxy     :     0.000072

 28 C s       :     0.000037  s :     0.000037
      pz      :     0.000014  p :     0.000138
      px      :     0.000046
      py      :     0.000077
      dz2     :    -0.000010  d :    -0.000031
      dxz     :    -0.000005
      dyz     :    -0.000006
      dx2y2   :    -0.000009
      dxy     :    -0.000001
      f0      :    -0.000001  f :    -0.000045
      f+1     :    -0.000005
      f-1     :    -0.000011
      f+2     :    -0.000004
      f-2     :    -0.000005
      f+3     :    -0.000003
      f-3     :    -0.000015

 29 O s       :    -0.000002  s :    -0.000002
      pz      :     0.000004  p :    -0.000004
      px      :    -0.000002
      py      :    -0.000006
      dz2     :    -0.000000  d :     0.000015
      dxz     :     0.000005
      dyz     :     0.000001
      dx2y2   :     0.000004
      dxy     :     0.000005
      f0      :     0.000000  f :     0.000006
      f+1     :    -0.000000
      f-1     :     0.000000
      f+2     :     0.000001
      f-2     :     0.000001
      f+3     :     0.000000
      f-3     :     0.000004

 30 O s       :    -0.000007  s :    -0.000007
      pz      :    -0.000014  p :    -0.000004
      px      :     0.000004
      py      :     0.000007
      dz2     :    -0.000002  d :     0.000006
      dxz     :    -0.000002
      dyz     :     0.000001
      dx2y2   :     0.000004
      dxy     :     0.000005
      f0      :     0.000000  f :     0.000005
      f+1     :    -0.000000
      f-1     :    -0.000000
      f+2     :     0.000000
      f-2     :     0.000000
      f+3     :     0.000002
      f-3     :     0.000003

 31 H s       :    -0.000001  s :    -0.000001
      pz      :    -0.000001  p :    -0.000001
      px      :    -0.000001
      py      :     0.000001
      dz2     :    -0.000000  d :    -0.000001
      dxz     :    -0.000000
      dyz     :    -0.000000
      dx2y2   :     0.000001
      dxy     :    -0.000000



                      *****************************
                      * MAYER POPULATION ANALYSIS *
                      *****************************

  NA   - Mulliken gross atomic population
  ZA   - Total nuclear charge
  QA   - Mulliken gross atomic charge
  VA   - Mayer's total valence
  BVA  - Mayer's bonded valence
  FA   - Mayer's free valence

  ATOM       NA         ZA         QA         VA         BVA        FA
  0 O      9.0988     8.0000    -1.0988     0.8790     0.6649     0.2140
  1 N      6.6987     7.0000     0.3013     2.7009     2.4455     0.2554
  2 C      3.6608     6.0000     2.3392     0.0094     0.0057     0.0037
  3 C      7.1001     6.0000    -1.1001     3.9582     3.9580     0.0002
  4 C      5.0749     6.0000     0.9251     2.3555     2.3555     0.0001
  5 C      6.6225     6.0000    -0.6225     3.2546     3.2545     0.0001
  6 C      3.7985     6.0000     2.2015     0.0392     0.0363     0.0029
  7 C      7.3435     6.0000    -1.3435     3.6041     3.6030     0.0011
  8 C      7.4872     6.0000    -1.4872     3.4222     3.4222     0.0001
  9 C      7.3386     6.0000    -1.3386     3.5467     3.5456     0.0011
 10 C      7.4836     6.0000    -1.4836     3.4193     3.4192     0.0001
 11 H      0.6915     1.0000     0.3085     0.7588     0.7588     0.0000
 12 H      0.8119     1.0000     0.1881     0.9297     0.9297     0.0000
 13 H      0.8059     1.0000     0.1941     0.9414     0.9413     0.0001
 14 H      0.5706     1.0000     0.4294     0.4173     0.4173     0.0000
 15 H      0.9079     1.0000     0.0921     1.1008     1.1008     0.0000
 16 H      0.7864     1.0000     0.2136     0.9950     0.9950     0.0000
 17 H      0.7484     1.0000     0.2516     0.9504     0.9504     0.0000
 18 H      0.9239     1.0000     0.0761     1.1142     1.1142     0.0000
 19 H      0.7819     1.0000     0.2181     0.9904     0.9903     0.0000
 20 H      0.7789     1.0000     0.2211     1.0035     1.0035    -0.0000
 21 H      0.8092     1.0000     0.1908     0.9932     0.9932     0.0000
 22 H      0.8049     1.0000     0.1951     1.0162     1.0162     0.0000
 23 H      0.7286     1.0000     0.2714     0.9118     0.9118     0.0000
 24 H      0.9254     1.0000     0.0746     1.1116     1.1116     0.0000
 25 H      0.7739     1.0000     0.2261     0.9811     0.9811     0.0000
 26 H      0.7788     1.0000     0.2212     1.0083     1.0083    -0.0000
 27 H      0.8172     1.0000     0.1828     1.0003     1.0003     0.0000
 28 C      5.6435     6.0000     0.3565     1.4877     1.4877     0.0000
 29 O      8.9871     8.0000    -0.9871     1.1917     1.1917     0.0000
 30 O      8.4415     8.0000    -0.4415     1.9554     1.9554     0.0000
 31 H      0.7755     1.0000     0.2245     0.9815     0.9815     0.0000

  Mayer bond orders larger than 0.100000
B(  0-O ,  1-N ) :   0.4638 B(  0-O ,  2-C ) :  -0.1297 B(  0-O ,  6-C ) :  -0.1152 
B(  1-N ,  2-C ) :   0.6100 B(  1-N ,  3-C ) :   0.1522 B(  1-N ,  5-C ) :   0.1741 
B(  1-N ,  6-C ) :   0.4926 B(  1-N ,  8-C ) :   0.2062 B(  1-N , 10-C ) :   0.2231 
B(  2-C ,  3-C ) :   0.1199 B(  2-C ,  7-C ) :   0.1956 B(  2-C ,  8-C ) :  -0.2049 
B(  2-C , 20-H ) :  -0.1713 B(  3-C ,  4-C ) :   0.9273 B(  3-C ,  5-C ) :   0.2215 
B(  3-C , 11-H ) :   0.6465 B(  3-C , 12-H ) :   1.0733 B(  3-C , 28-C ) :   0.2203 
B(  3-C , 29-O ) :   0.1675 B(  3-C , 30-O ) :   0.1126 B(  4-C ,  5-C ) :   1.1995 
B(  4-C , 13-H ) :   0.8210 B(  4-C , 28-C ) :  -0.1049 B(  4-C , 29-O ) :  -0.1635 
B(  5-C ,  6-C ) :   0.1509 B(  5-C , 14-H ) :   0.6401 B(  5-C , 15-H ) :   1.1083 
B(  5-C , 28-C ) :  -0.2304 B(  5-C , 30-O ) :  -0.1713 B(  6-C ,  9-C ) :   0.2071 
B(  6-C , 10-C ) :  -0.1995 B(  6-C , 26-H ) :  -0.1736 B(  7-C ,  8-C ) :   0.1749 
B(  7-C , 16-H ) :   1.0088 B(  7-C , 17-H ) :   0.9871 B(  7-C , 18-H ) :   1.1862 
B(  8-C , 19-H ) :   1.0102 B(  8-C , 20-H ) :   1.0693 B(  8-C , 21-H ) :   1.0555 
B(  9-C , 10-C ) :   0.1682 B(  9-C , 22-H ) :   1.0348 B(  9-C , 23-H ) :   0.9707 
B(  9-C , 24-H ) :   1.1839 B( 10-C , 25-H ) :   0.9953 B( 10-C , 26-H ) :   1.0702 
B( 10-C , 27-H ) :   1.0634 B( 11-H , 29-O ) :   0.1210 B( 13-H , 28-C ) :  -0.1409 
B( 28-C , 29-O ) :   0.9039 B( 28-C , 30-O ) :   0.9264 B( 29-O , 30-O ) :   0.1144 
B( 30-O , 31-H ) :   0.9309 

-------
TIMINGS
-------

Total SCF time: 0 days 0 hours 23 min 59 sec 

Total time                  ....    1439.614 sec
Sum of individual times     ....    1402.551 sec  ( 97.4%)

SCF preparation             ....      11.403 sec  (  0.8%)
Fock matrix formation       ....     916.395 sec  ( 63.7%)
  Startup                   ....     108.620 sec  ( 11.9% of F)
  Split-RI-J                ....     117.969 sec  ( 12.9% of F)
  Chain of spheres X        ....     394.654 sec  ( 43.1% of F)
  XC integration            ....     136.137 sec  ( 14.9% of F)
    XC Preparation          ....       0.000 sec  (  0.0% of XC)
    Basis function eval.    ....       7.449 sec  (  5.5% of XC)
    Density eval.           ....      38.780 sec  ( 28.5% of XC)
    XC-Functional eval.     ....       0.294 sec  (  0.2% of XC)
    XC-Potential eval.      ....      49.846 sec  ( 36.6% of XC)
  CPCM terms                ....      40.711 sec  (  4.4% of F)
Diagonalization             ....       0.000 sec  (  0.0%)
Density matrix formation    ....     162.764 sec  ( 11.3%)
Total Energy calculation    ....      92.946 sec  (  6.5%)
Population analysis         ....      15.098 sec  (  1.0%)
Orbital Transformation      ....      14.287 sec  (  1.0%)
Orbital Orthonormalization  ....       0.000 sec  (  0.0%)
DIIS solution               ....     138.026 sec  (  9.6%)
SOSCF solution              ....      51.632 sec  (  3.6%)
Finished LeanSCF after 1447.8 sec

Maximum memory used throughout the entire LEANSCF-calculation: 235.5 MB


-------------------------------------------------------------------------------
                          DFT DISPERSION CORRECTION                            
                                                                               
                              DFTD3 V3.1  Rev 1                                
                          USING Becke-Johnson damping                          
-------------------------------------------------------------------------------
The PBE0 functional is recognized
Active option DFTDOPT                   ...         4   

molecular C6(AA) [au] = 7945.328907 


            DFT-D V3
 parameters
 s6 scaling factor         :     1.0000 
 a1 scaling factor         :     0.4145 
 s8 scaling factor         :     1.2177 
 a2 scaling factor         :     4.8593 
 ad hoc parameters k1-k3   :    16.0000     1.3333    -4.0000 

 Edisp/kcal,au: -20.835345665526  -0.033203233265 
 E6   /kcal   : -13.483380643 
 E8   /kcal   :  -7.351965022 
 % E8         :  35.286023762 

-------------------------   ----------------
Dispersion correction           -0.033203233
-------------------------   ----------------


-------------------------   --------------------
FINAL SINGLE POINT ENERGY      -671.815675020167
-------------------------   --------------------



           ************************************************************
           *        Program running with 15 parallel MPI-processes    *
           *              working on a common directory               *
           ************************************************************

------------------------------------------------------------------------------
                              ORCA PROPERTY CALCULATIONS
------------------------------------------------------------------------------

GBWName                                 ... cs_rporg_w03_red_solv_05.gbw
Number of atoms                         ...     32
Number of basis functions               ...   1142
Max core memory                         ...   3500 MB

Electric properties:
Dipole moment                           ... YES
Quadrupole moment                       ...  NO
Static polarizability (Dipole/Dipole)   ...  NO
Static polarizability (Dipole/Quad.)    ...  NO
Static polarizability (Quad./Quad.)     ...  NO
Static polarizability (Velocity)        ...  NO

Atomic electric properties:
Dipole moment                           ...  NO
Quadrupole moment                       ...  NO
Static polarizability                   ...  NO

Choice of electric origin               ... Center of mass
Position of electric origin             ...     7.185175     2.927839     2.251081

General magnetic properties:
Magnetizability                         ...  NO

EPR properties:
g-Tensor (aka g-matrix)                 ...  NO
Zero-Field splitting spin-orbit         ...  NO
Zero-field splitting spin-spin          ...  NO
Hyperfine couplings                     ...  NO (   0 nuclei)
Quadrupole couplings                    ...  NO (   0 nuclei)
Contact density                         ...  NO (   0 nuclei)

NMR properties:
Chemical shifts                         ...  NO (   0 nuclei)
Spin-rotation constants                 ...  NO (   0 nuclei)
Spin-spin couplings                     ...  NO (   0 nuclei,    0 pairs)

Choice of magnetic origin               ... GIAO
Position of magnetic origin             ...     0.000000     0.000000     0.000000

Properties with geometric perturbations:
SCF Hessian                             ...  NO
IR spectrum                             ...  NO
VCD spectrum                            ...  NO
X-ray spectroscopy properties:
SCF XES/XAS/RIXS spectra                ...  NO


-------------
DIPOLE MOMENT
-------------

Method             : SCF
Type of density    : Electron Density
Multiplicity       :   2
Irrep              :   0
Energy             :  -671.7824717869024198 Eh
Relativity type    : 
Basis              : AO
                                X                 Y                 Z
Electronic contribution:      4.806600076      -8.547324530      -2.450975908
Nuclear contribution   :     -4.499370341       7.227471368       2.551456631
                        -----------------------------------------
Total Dipole Moment    :      0.307229734      -1.319853162       0.100480723
                        -----------------------------------------
Magnitude (a.u.)       :      1.358859394
Magnitude (Debye)      :      3.453946091



--------------------
Rotational spectrum 
--------------------
 
Rotational constants in cm-1:             0.032861             0.018000             0.014315 
Rotational constants in MHz :           985.137825           539.637510           429.167318 

Dipole components along the rotational axes: 
x,y,z [a.u.] :     1.199745    -0.590491    -0.241726 
x,y,z [Debye]:     3.049510    -1.500908    -0.614418 

 

Dipole moment calculation done in   3.0 sec 

Maximum memory used throughout the entire PROP-calculation: 128.4 MB

--------------------------------
SUGGESTED CITATIONS FOR THIS RUN
--------------------------------

Below you find a list of papers that are relevant to this ORCA run
We neither can nor want to force you to cite these papers, but we appreciate if you do
You receive ORCA, which is the product of decades of hard work by many enthusiastic individuals, for free
The only thing we kindly ask in return is that you cite our papers,
We deeply appreciate it, if you show your appreciation for ORCA by not just citing the generic ORCA reference.

Please note that relegating all ORCA citations to the supporting information does *not* help us.
SI sections are not indexed - citations you put there will not count into any citation statistics
But we need these citations in order to attract the funding resources that allow us to do what we are doing

Therefore, if you are a happy ORCA user, please consider citing a few of the papers listed below in the main body of your paper

In addition to the list printed below, the program has created the file cs_rporg_w03_red_solv_05.bibtex that contains the list in bibtex format
You can import this file easily into all common literature databanks and citation aid programs


List of essential papers. We consider these as the minimum necessary citations

  1. Neese,F.
     Software update: the ORCA program system, version 5.0
     WIRES Comput. Molec. Sci., 2022 12(1)e1606
     doi.org/10.1002/wcms.1606

List of papers to cite with high priority. The work reported in these papers was absolutely
necessary for this run to complete.
Our perspective: the developers of density functionals and basis sets usually get cited in chemistry papers
Good! But without the algorithms to do something with them, the functionals or basis sets would not do anything.
Hence, in our opinion, the algorithm design and method developments papers are equally worthy of getting cited

  1. Neese,F.
     An improvement of the resolution of the identity approximation for the formation of the Coulomb matrix
     J. Comp. Chem., 2003 24(14)1740-1747
     doi.org/10.1002/jcc.10318
  2. Neese,F.; Wennmohs,F.; Hansen,A.; Becker,U.
     Efficient, approximate and parallel Hartree-Fock and hybrid DFT calculations. A 'chain-of-spheres' algorithm for the Hartree-Fock exchange
     Chem. Phys., 2009 356(1-3)98-109
     doi.org/10.1016/j.chemphys.2008.10.036
  3. Garcia-Rates,M.; Neese,F.
     Effect of the Solute Cavity on the Solvation Energy and its Derivatives within the Framework of the Gaussian Charge Scheme
     J. Comput. Chem., 2020 41 922-939
     doi.org/10.1002/jcc.26139
  4. Helmich-Paris,B.; de Souza,B.; Neese,F.; Izsák,R.
     An improved chain of spheres for exchange algorithm
     J. Chem. Phys., 2021 155 104109
     doi.org/doi: 10.1063/5.0058766.
  5. Neese,F.
     The SHARK Integral Generation and Digestion System
     J. Comp. Chem., 2022  1-16
     doi.org/10.1002/jcc.26942
  6. Grimme,S.; Antony,J.; Ehrlich,S.; Krieg,H.
     A consistent and accurate ab initio parametrization of density functional dispersion correction (DFT-D) for the 94 elements H-Pu
     J. Chem. Phys., 2010 132 154104-XXXX
     doi.org/10.1063/1.3382344
  7. Grimme,S.; Ehrlich,S.; Goerigk,L.
     Effect of the damping function in dispersion corrected density functional theory
     J. Comput. Chem., 2011 32(7)1456-1465
     doi.org/10.1002/jcc.21759

List of suggested additional citations. These are papers that are important in the 'surrounding' of 
of this run, or papers that preceded the highly important papers. If you like your results we are grateful for a citation.

  1. Izsak,R.; Neese,F.
     An overlap fitted chain of spheres exchange method
     J. Chem. Phys., 2011 135 144105
     doi.org/10.1063/1.3646921
  2. Izsak,R.; Hansen,A.; Neese,F.
     The resolution of identity and chain of spheres approximations for the LPNO-CCSD singles Fock term
     Molec. Phys., 2012 110 2413-2417
     doi.org/10.1080/00268976.2012.687466
  3. Neese,F.
     The ORCA program system
     WIRES Comput. Molec. Sci., 2012 2(1)73-78
     doi.org/10.1002/wcms.81
  4. Izsak,R.; Neese,F.; Klopper,W.
     Robust fitting techniques in the chain of spheres approximation to the Fock exchange: The role of the complementary space
     J. Chem. Phys., 2013 139 
     doi.org/10.1063/1.4819264
  5. Neese,F.
     Software update: the ORCA program system, version 4.0
     WIRES Comput. Molec. Sci., 2018 8(1)1-6
     doi.org/10.1002/wcms.1327
  6. Neese,F.; Wennmohs,F.; Becker,U.; Riplinger,C.
     The ORCA quantum chemistry program package
     J. Chem. Phys., 2020 152 Art. No. L224108
     doi.org/10.1063/5.0004608

List of optional additional citations

  1. Neese,F.
     Approximate second-order SCF convergence for spin unrestricted wavefunctions
     Chem. Phys. Lett., 2000 325(1-3)93-98
     doi.org/10.1016/s0009-2614(00)00662-x

Timings for individual modules:

Sum of individual times          ...     1518.598 sec (=  25.310 min)
Startup calculation              ...       29.706 sec (=   0.495 min)   2.0 %
SCF iterations                   ...     1480.877 sec (=  24.681 min)  97.5 %
Property calculations            ...        8.016 sec (=   0.134 min)   0.5 %
                             ****ORCA TERMINATED NORMALLY****
TOTAL RUN TIME: 0 days 0 hours 25 minutes 37 seconds 511 msec
