 vasp.6.3.2 27Jun22 (build Oct 25 2024 11:36:28) complex                        
  
 executed on             LinuxIFC date 2025.09.10  08:56:08
 running on   90 total cores
 distrk:  each k-point on   90 cores,    1 groups
 distr:  one band on NCORE=  15 cores,    6 groups


--------------------------------------------------------------------------------------------------------


 INCAR:
   SYSTEM = 103_red
   ISTART = 1
   ICHARG = 2
   INIWAV = 1
   LHFCALC = .TRUE.
   HFSCREEN = 0.2
   NELM = 500
   ALGO = Damped
   ISPIN = 2
   EDIFF = 1E-05
   ISMEAR = 0
   SIGMA = 0.05
   PREC = accurate
   ENCUT = 500
   LREAL = auto  	
   LDIAG = .FALSE.
   LWAVE = .TRUE.
   LCHARG = .FALSE.
   LAECHG = .FALSE.
   LVHAR = .FALSE.
   LVTOT = .FALSE.
   EDIFFG = -0.02
   IBRION = 2
   NSW = 0
   ISIF = 2
   POTIM = 0.5
   IVDW = 12
   VDW_A1 = 0.383
   VDW_S8 = 2.310
   VDW_A2 = 5.685
   LPLANE = .TRUE.
   NCORE = 15
   LSCALU = .FALSE.
   NSIM = 4
   LSOL = .TRUE.
   ISOL = 2
   R_SOLV = 2.1900
   EPSILON_INF = 1.8069
   N_MOL = 0.0115
   P_MOL = 0.82
   EB_K = 35.6880
   NELECT = 61

 POTCAR:    PAW_PBE C 08Apr2002                   
 POTCAR:    PAW_PBE N 08Apr2002                   
 POTCAR:    PAW_PBE O 08Apr2002                   
 POTCAR:    PAW_PBE H 15Jun2001                   
 -----------------------------------------------------------------------------
|                                                                             |
|           W    W    AA    RRRRR   N    N  II  N    N   GGGG   !!!           |
|           W    W   A  A   R    R  NN   N  II  NN   N  G    G  !!!           |
|           W    W  A    A  R    R  N N  N  II  N N  N  G       !!!           |
|           W WW W  AAAAAA  RRRRR   N  N N  II  N  N N  G  GGG   !            |
|           WW  WW  A    A  R   R   N   NN  II  N   NN  G    G                |
|           W    W  A    A  R    R  N    N  II  N    N   GGGG   !!!           |
|                                                                             |
|     You use a magnetic or noncollinear calculation, but did not specify     |
|     the initial magnetic moment with the MAGMOM tag. Note that a            |
|     default of 1 will be used for all atoms. This ferromagnetic setup       |
|     may break the symmetry of the crystal, in particular it may rule        |
|     out finding an antiferromagnetic solution. Thence, we recommend         |
|     setting the initial magnetic moment manually or verifying carefully     |
|     that this magnetic setup is desired.                                    |
|                                                                             |
 -----------------------------------------------------------------------------

 POTCAR:    PAW_PBE C 08Apr2002                   
   SHA256 =  253f7b50bb8d59471dbedb8285d89021f4a42ed1a2c5d38a03a736e69125dd95 C/POTCAR              
   COPYR  = (c) Copyright 08Apr2002 Georg Kresse                                                    
   COPYR  = This file is part of the software VASP. Any use, copying, and all other rights are regul
   COPYR  = If you do not have a valid VASP license, you may not use, copy or distribute this file. 
   VRHFIN =C: s2p2                                                                                  
   LEXCH  = PE                                                                                      
   EATOM  =   147.1560 eV,   10.8157 Ry                                                             
                                                                                                    
   TITEL  = PAW_PBE C 08Apr2002                                                                     
   LULTRA =        F    use ultrasoft PP ?                                                          
   IUNSCR =        1    unscreen: 0-lin 1-nonlin 2-no                                               
   RPACOR =    1.200    partial core radius                                                         
   POMASS =   12.011; ZVAL   =    4.000    mass and valenz                                          
   RCORE  =    1.500    outmost cutoff radius                                                       
   RWIGS  =    1.630; RWIGS  =    0.863    wigner-seitz radius (au A)                               
   ENMAX  =  400.000; ENMIN  =  300.000 eV                                                          
   ICORE  =        2    local potential                                                             
   LCOR   =        T    correct aug charges                                                         
   LPAW   =        T    paw PP                                                                      
   EAUG   =  644.873                                                                                
   DEXC   =    0.000                                                                                
   RMAX   =    1.529    core radius for proj-oper                                                   
   RAUG   =    1.300    factor for augmentation sphere                                              
   RDEP   =    1.501    radius for radial grids                                                     
   RDEPT  =    1.300    core radius for aug-charge                                                  
                                                                                                    
   Atomic configuration                                                                             
    4 entries                                                                                       
     n  l   j            E        occ.                                                              
     1  0  0.50      -273.3789   2.0000                                                             
     2  0  0.50       -13.7508   2.0000                                                             
     2  1  0.50        -5.2854   2.0000                                                             
     3  2  1.50        -5.4423   0.0000                                                             
   Description                                                                                      
     l       E           TYP  RCUT    TYP  RCUT                                                     
     0    -13.7508458     23  1.200                                                                 
     0     -8.2022199     23  1.200                                                                 
     1     -5.2854383     23  1.500                                                                 
     1     34.0145650     23  1.500                                                                 
     2     -5.4423304      7  1.500                                                                 
  local pseudopotential read in
  partial core-charges read in
  partial kinetic energy density read in
  atomic valenz-charges read in
  non local Contribution for L=           0  read in
    real space projection operators read in
  non local Contribution for L=           0  read in
    real space projection operators read in
  non local Contribution for L=           1  read in
    real space projection operators read in
  non local Contribution for L=           1  read in
    real space projection operators read in
    PAW grid and wavefunctions read in
 
   number of l-projection  operators is LMAX  =           4
   number of lm-projection operators is LMMAX =           8
 
 POTCAR:    PAW_PBE N 08Apr2002                   
   SHA256 =  e053789ff3a61a86a1b75d8a110fcc91f86041011e7b0817c7c99e4e8a6349d7 N/POTCAR              
   COPYR  = (c) Copyright 08Apr2002 Georg Kresse                                                    
   COPYR  = This file is part of the software VASP. Any use, copying, and all other rights are regul
   COPYR  = If you do not have a valid VASP license, you may not use, copy or distribute this file. 
   VRHFIN =N: s2p3                                                                                  
   LEXCH  = PE                                                                                      
   EATOM  =   264.5486 eV,   19.4438 Ry                                                             
                                                                                                    
   TITEL  = PAW_PBE N 08Apr2002                                                                     
   LULTRA =        F    use ultrasoft PP ?                                                          
   IUNSCR =        1    unscreen: 0-lin 1-nonlin 2-no                                               
   RPACOR =    1.200    partial core radius                                                         
   POMASS =   14.001; ZVAL   =    5.000    mass and valenz                                          
   RCORE  =    1.500    outmost cutoff radius                                                       
   RWIGS  =    1.400; RWIGS  =    0.741    wigner-seitz radius (au A)                               
   ENMAX  =  400.000; ENMIN  =  300.000 eV                                                          
   ICORE  =        2    local potential                                                             
   LCOR   =        T    correct aug charges                                                         
   LPAW   =        T    paw PP                                                                      
   EAUG   =  627.112                                                                                
   DEXC   =    0.000                                                                                
   RMAX   =    1.529    core radius for proj-oper                                                   
   RAUG   =    1.300    factor for augmentation sphere                                              
   RDEP   =    1.514    radius for radial grids                                                     
   RDEPT  =    1.338    core radius for aug-charge                                                  
                                                                                                    
   Atomic configuration                                                                             
    4 entries                                                                                       
     n  l   j            E        occ.                                                              
     1  0  0.50      -384.7179   2.0000                                                             
     2  0  0.50       -18.5828   2.0000                                                             
     2  1  0.50        -7.0898   3.0000                                                             
     3  2  1.50        -6.8029   0.0000                                                             
   Description                                                                                      
     l       E           TYP  RCUT    TYP  RCUT                                                     
     0    -18.5828119     23  1.200                                                                 
     0    -13.5018863     23  1.200                                                                 
     1     -7.0897853     23  1.500                                                                 
     1      9.5240782     23  1.500                                                                 
     2     -6.8029130      7  1.500                                                                 
  local pseudopotential read in
  partial core-charges read in
  partial kinetic energy density read in
  atomic valenz-charges read in
  non local Contribution for L=           0  read in
    real space projection operators read in
  non local Contribution for L=           0  read in
    real space projection operators read in
  non local Contribution for L=           1  read in
    real space projection operators read in
  non local Contribution for L=           1  read in
    real space projection operators read in
    PAW grid and wavefunctions read in
 
   number of l-projection  operators is LMAX  =           4
   number of lm-projection operators is LMMAX =           8
 
 POTCAR:    PAW_PBE O 08Apr2002                   
   SHA256 =  818f92134a0a090dccd8ba1447fa70422a3b330e708bb4f08108d8ae51209ddf O/POTCAR              
   COPYR  = (c) Copyright 08Apr2002 Georg Kresse                                                    
   COPYR  = This file is part of the software VASP. Any use, copying, and all other rights are regul
   COPYR  = If you do not have a valid VASP license, you may not use, copy or distribute this file. 
   VRHFIN =O: s2p4                                                                                  
   LEXCH  = PE                                                                                      
   EATOM  =   432.3788 eV,   31.7789 Ry                                                             
                                                                                                    
   TITEL  = PAW_PBE O 08Apr2002                                                                     
   LULTRA =        F    use ultrasoft PP ?                                                          
   IUNSCR =        1    unscreen: 0-lin 1-nonlin 2-no                                               
   RPACOR =    1.200    partial core radius                                                         
   POMASS =   16.000; ZVAL   =    6.000    mass and valenz                                          
   RCORE  =    1.520    outmost cutoff radius                                                       
   RWIGS  =    1.550; RWIGS  =    0.820    wigner-seitz radius (au A)                               
   ENMAX  =  400.000; ENMIN  =  300.000 eV                                                          
   ICORE  =        2    local potential                                                             
   LCOR   =        T    correct aug charges                                                         
   LPAW   =        T    paw PP                                                                      
   EAUG   =  605.392                                                                                
   DEXC   =    0.000                                                                                
   RMAX   =    1.553    core radius for proj-oper                                                   
   RAUG   =    1.300    factor for augmentation sphere                                              
   RDEP   =    1.550    radius for radial grids                                                     
   RDEPT  =    1.329    core radius for aug-charge                                                  
                                                                                                    
   Atomic configuration                                                                             
    4 entries                                                                                       
     n  l   j            E        occ.                                                              
     1  0  0.50      -514.6923   2.0000                                                             
     2  0  0.50       -23.9615   2.0000                                                             
     2  1  0.50        -9.0305   4.0000                                                             
     3  2  1.50        -9.5241   0.0000                                                             
   Description                                                                                      
     l       E           TYP  RCUT    TYP  RCUT                                                     
     0    -23.9615318     23  1.200                                                                 
     0     -9.5240782     23  1.200                                                                 
     1     -9.0304911     23  1.520                                                                 
     1      8.1634956     23  1.520                                                                 
     2     -9.5240782      7  1.500                                                                 
  local pseudopotential read in
  partial core-charges read in
  partial kinetic energy density read in
  kinetic energy density of atom read in
  atomic valenz-charges read in
  non local Contribution for L=           0  read in
    real space projection operators read in
  non local Contribution for L=           0  read in
    real space projection operators read in
  non local Contribution for L=           1  read in
    real space projection operators read in
  non local Contribution for L=           1  read in
    real space projection operators read in
    PAW grid and wavefunctions read in
 
   number of l-projection  operators is LMAX  =           4
   number of lm-projection operators is LMMAX =           8
 
 POTCAR:    PAW_PBE H 15Jun2001                   
   SHA256 =  030f79b5d3ab3cf0e668861823c8fb652ff669f3e15e46930bd03bfd63a607b6 H/POTCAR              
   COPYR  = (c) Copyright 15Jun2001 Georg Kresse                                                    
   COPYR  = This file is part of the software VASP. Any use, copying, and all other rights are regul
   COPYR  = If you do not have a valid VASP license, you may not use, copy or distribute this file. 
   VRHFIN =H: ultrasoft test                                                                        
   LEXCH  = PE                                                                                      
   EATOM  =    12.4884 eV,    0.9179 Ry                                                             
                                                                                                    
   TITEL  = PAW_PBE H 15Jun2001                                                                     
   LULTRA =        F    use ultrasoft PP ?                                                          
   IUNSCR =        0    unscreen: 0-lin 1-nonlin 2-no                                               
   RPACOR =    0.000    partial core radius                                                         
   POMASS =    1.000; ZVAL   =    1.000    mass and valenz                                          
   RCORE  =    1.100    outmost cutoff radius                                                       
   RWIGS  =    0.700; RWIGS  =    0.370    wigner-seitz radius (au A)                               
   ENMAX  =  250.000; ENMIN  =  200.000 eV                                                          
   RCLOC  =    0.701    cutoff for local pot                                                        
   LCOR   =        T    correct aug charges                                                         
   LPAW   =        T    paw PP                                                                      
   EAUG   =  400.000                                                                                
   RMAX   =    1.123    core radius for proj-oper                                                   
   RAUG   =    1.200    factor for augmentation sphere                                              
   RDEP   =    1.112    radius for radial grids                                                     
   RDEPT  =    0.926    core radius for aug-charge                                                  
                                                                                                    
   Atomic configuration                                                                             
    2 entries                                                                                       
     n  l   j            E        occ.                                                              
     1  0  0.50        -6.4927   1.0000                                                             
     2  1  0.50        -3.4015   0.0000                                                             
   Description                                                                                      
     l       E           TYP  RCUT    TYP  RCUT                                                     
     0     -6.4927494     23  1.100                                                                 
     0      6.8029130     23  1.100                                                                 
     1     -4.0817478     23  1.100                                                                 
  local pseudopotential read in
  atomic valenz-charges read in
  non local Contribution for L=           0  read in
    real space projection operators read in
  non local Contribution for L=           0  read in
    real space projection operators read in
  non local Contribution for L=           1  read in
    real space projection operators read in
    PAW grid and wavefunctions read in
 
   number of l-projection  operators is LMAX  =           3
   number of lm-projection operators is LMMAX =           5
 
 Optimization of the real space projectors (new method)

 maximal supplied QI-value         = 25.13
 optimisation between [QCUT,QGAM] = [ 11.31, 22.87] = [ 35.82,146.48] Ry 
 Optimized for a Real-space Cutoff    1.03 Angstroem

   l    n(q)    QCUT    max X(q) W(low)/X(q) W(high)/X(q)  e(spline) 
   0      7    11.310   115.676    0.20E-03    0.90E-03    0.20E-06
   0      7    11.310    87.132    0.20E-03    0.89E-03    0.19E-06
   1      6    11.310     4.429    0.16E-03    0.28E-03    0.12E-06
   1      6    11.310     2.733    0.12E-03    0.21E-03    0.99E-07
 Optimization of the real space projectors (new method)

 maximal supplied QI-value         = 25.13
 optimisation between [QCUT,QGAM] = [ 11.31, 22.87] = [ 35.82,146.48] Ry 
 Optimized for a Real-space Cutoff    1.43 Angstroem

   l    n(q)    QCUT    max X(q) W(low)/X(q) W(high)/X(q)  e(spline) 
   0     10    11.310    79.467    0.42E-04    0.81E-04    0.60E-06
   0     10    11.310    66.151    0.40E-04    0.81E-04    0.60E-06
   1      9    11.310    17.416    0.14E-03    0.88E-04    0.14E-05
   1      9    11.310    12.382    0.15E-03    0.93E-04    0.14E-05
 Optimization of the real space projectors (new method)

 maximal supplied QI-value         = 24.76
 optimisation between [QCUT,QGAM] = [ 11.39, 22.77] = [ 36.31,145.25] Ry 
 Optimized for a Real-space Cutoff    1.10 Angstroem

   l    n(q)    QCUT    max X(q) W(low)/X(q) W(high)/X(q)  e(spline) 
   0      7    11.387    20.381    0.22E-03    0.48E-03    0.18E-06
   0      7    11.387    15.268    0.22E-03    0.52E-03    0.19E-06
   1      7    11.387     5.964    0.22E-03    0.73E-03    0.24E-06
   1      7    11.387     5.382    0.19E-03    0.60E-03    0.21E-06
 Optimization of the real space projectors (new method)

 maximal supplied QI-value         = 34.20
 optimisation between [QCUT,QGAM] = [ 11.29, 22.57] = [ 35.68,142.71] Ry 
 Optimized for a Real-space Cutoff    1.20 Angstroem

   l    n(q)    QCUT    max X(q) W(low)/X(q) W(high)/X(q)  e(spline) 
   0      8    11.287    19.460    0.22E-03    0.50E-03    0.19E-06
   0      8    11.287    12.209    0.21E-03    0.48E-03    0.18E-06
   1      8    11.287     4.655    0.21E-03    0.11E-04    0.26E-06
  PAW_PBE C 08Apr2002                   :
 energy of atom  1       EATOM= -147.1560
 kinetic energy error for atom=    0.0076 (will be added to EATOM!!)
  PAW_PBE N 08Apr2002                   :
 energy of atom  2       EATOM= -264.5486
 kinetic energy error for atom=    0.0138 (will be added to EATOM!!)
  PAW_PBE O 08Apr2002                   :
 energy of atom  3       EATOM= -432.3788
 kinetic energy error for atom=    0.0224 (will be added to EATOM!!)
  PAW_PBE H 15Jun2001                   :
 energy of atom  4       EATOM=  -12.4884
 kinetic energy error for atom=    0.0020 (will be added to EATOM!!)
 
 
 POSCAR: C N O H
  positions in direct lattice
  velocities in cartesian coordinates
 exchange correlation table for  LEXCH =        8
   RHO(1)=    0.500       N(1)  =     2000
   RHO(2)=  100.500       N(2)  =     4000
 
 POSCAR: C N O H
  positions in direct lattice
  velocities in cartesian coordinates
 
 POSCAR: C N O H
  positions in direct lattice
  velocities in cartesian coordinates
 


--------------------------------------------------------------------------------------------------------


 ion  position               nearest neighbor table
   1  0.517  0.464  0.500-  19 1.09   2 1.38   6 1.43
   2  0.551  0.467  0.500-  18 1.09   1 1.38   3 1.44
   3  0.567  0.499  0.500-   9 1.40   4 1.44   2 1.44
   4  0.546  0.528  0.500-  17 1.09   5 1.38   3 1.44
   5  0.512  0.525  0.500-  16 1.09   4 1.38   6 1.43
   6  0.496  0.493  0.500-   1 1.43   5 1.43   7 1.44
   7  0.460  0.489  0.500-  11 1.25  12 1.40   6 1.44
   8  0.407  0.517  0.500-  14 1.10  15 1.10  13 1.10  12 1.43
   9  0.602  0.501  0.500-  10 1.18   3 1.40
  10  0.632  0.504  0.500-   9 1.18
  11  0.444  0.462  0.500-   7 1.25
  12  0.443  0.519  0.500-   7 1.40   8 1.43
  13  0.398  0.503  0.478-   8 1.10
  14  0.398  0.542  0.500-   8 1.10
  15  0.398  0.503  0.522-   8 1.10
  16  0.497  0.548  0.500-   5 1.09
  17  0.558  0.552  0.500-   4 1.09
  18  0.567  0.444  0.500-   2 1.09
  19  0.505  0.440  0.500-   1 1.09
 
  LATTYP: Found a simple cubic cell.
 ALAT       =    40.0000000000
  
  Lattice vectors:
  
 A1 = (  40.0000000000,   0.0000000000,   0.0000000000)
 A2 = (   0.0000000000,  40.0000000000,   0.0000000000)
 A3 = (   0.0000000000,   0.0000000000,  40.0000000000)


Analysis of symmetry for initial positions (statically):
=====================================================================
 Subroutine PRICEL returns:
 Original cell was already a primitive cell.
 

 Routine SETGRP: Setting up the symmetry group for a 
 simple cubic supercell.


 Subroutine GETGRP returns: Found  1 space group operations
 (whereof  1 operations were pure point group operations)
 out of a pool of 48 trial point group operations.


The static configuration has the point symmetry C_1 .


Analysis of symmetry for dynamics (positions and initial velocities):
=====================================================================
 Subroutine PRICEL returns:
 Original cell was already a primitive cell.
 

 Routine SETGRP: Setting up the symmetry group for a 
 simple cubic supercell.


 Subroutine GETGRP returns: Found  1 space group operations
 (whereof  1 operations were pure point group operations)
 out of a pool of 48 trial point group operations.


The dynamic configuration has the point symmetry C_1 .


Analysis of constrained symmetry for selective dynamics:
=====================================================================
 Subroutine PRICEL returns:
 Original cell was already a primitive cell.
 

 Routine SETGRP: Setting up the symmetry group for a 
 simple cubic supercell.


 Subroutine GETGRP returns: Found  1 space group operations
 (whereof  1 operations were pure point group operations)
 out of a pool of 48 trial point group operations.


The constrained configuration has the point symmetry C_1 .


Analysis of structural, dynamic, and magnetic symmetry:
=====================================================================
 Subroutine PRICEL returns:
 Original cell was already a primitive cell.
 

 Routine SETGRP: Setting up the symmetry group for a 
 simple cubic supercell.


 Subroutine GETGRP returns: Found  1 space group operations
 (whereof  1 operations were pure point group operations)
 out of a pool of 48 trial point group operations.


The overall configuration has the point symmetry C_1 .


 Subroutine INISYM returns: Found  1 space group operations
 (whereof  1 operations are pure point group operations),
 and found     1 'primitive' translations


----------------------------------------------------------------------------------------

                                     Primitive cell                                     

  volume of cell :   64000.0000

  direct lattice vectors                    reciprocal lattice vectors
    40.000000000  0.000000000  0.000000000     0.025000000  0.000000000  0.000000000
     0.000000000 40.000000000  0.000000000     0.000000000  0.025000000  0.000000000
     0.000000000  0.000000000 40.000000000     0.000000000  0.000000000  0.025000000

  length of vectors
    40.000000000 40.000000000 40.000000000     0.025000000  0.025000000  0.025000000

  position of ions in fractional coordinates (direct lattice)
     0.516935333  0.464124855  0.499999862
     0.551239118  0.466640304  0.499997662
     0.567430316  0.498674287  0.499992955
     0.546441883  0.527777863  0.499991491
     0.512129129  0.525029849  0.499997052
     0.495877463  0.493094105  0.500000060
     0.460156018  0.488891763  0.500003751
     0.407322587  0.516651633  0.500006817
     0.602373759  0.501394823  0.499994868
     0.631867557  0.503622647  0.499995288
     0.444437799  0.461928087  0.500004326
     0.442955030  0.519468604  0.500006438
     0.398223175  0.503302496  0.477737563
     0.397839248  0.542379466  0.500018778
     0.398225890  0.503283509  0.522265535
     0.496854612  0.547589843  0.499995182
     0.558137430  0.552433445  0.499990309
     0.566601888  0.444087792  0.499999679
     0.504951767  0.439625630  0.500002386

  ion indices of the primitive-cell ions
   primitive index   ion index
                 1           1
                 2           2
                 3           3
                 4           4
                 5           5
                 6           6
                 7           7
                 8           8
                 9           9
                10          10
                11          11
                12          12
                13          13
                14          14
                15          15
                16          16
                17          17
                18          18
                19          19

----------------------------------------------------------------------------------------

 
 
 KPOINTS: K-Point Grid                            

Automatic generation of k-mesh.
 Grid dimensions read from file:
 generate k-points for:    1    1    1

 Generating k-lattice:

  Cartesian coordinates                     Fractional coordinates (reciprocal lattice)
     0.025000000  0.000000000  0.000000000     1.000000000  0.000000000  0.000000000
     0.000000000  0.025000000  0.000000000     0.000000000  1.000000000  0.000000000
     0.000000000  0.000000000  0.025000000     0.000000000  0.000000000  1.000000000

  Length of vectors
     0.025000000  0.025000000  0.025000000

  Shift w.r.t. Gamma in fractional coordinates (k-lattice)
     0.000000000  0.000000000  0.000000000

 
 Subroutine IBZKPT returns following result:
 ===========================================
 
 Found      1 irreducible k-points:
 
 Following reciprocal coordinates:
            Coordinates               Weight
  0.000000  0.000000  0.000000      1.000000
 
 Following cartesian coordinates:
            Coordinates               Weight
  0.000000  0.000000  0.000000      1.000000
 
 
 Subroutine IBZKPT_HF returns following result:
 ==============================================
 
 Found      1 k-points in 1st BZ
 the following      1 k-points will be used (e.g. in the exchange kernel)
 Following reciprocal coordinates:   # in IRBZ
  0.000000  0.000000  0.000000    1.00000000   1 t-inv F


--------------------------------------------------------------------------------------------------------




 Dimension of arrays:
   k-points           NKPTS =      1   k-points in BZ     NKDIM =      1   number of bands    NBANDS=     54
   number of dos      NEDOS =    301   number of ions     NIONS =     19
   non local maximal  LDIM  =      4   non local SUM 2l+1 LMDIM =      8
   total plane-waves  NPLWV = ******
   max r-space proj   IRMAX =   4928   max aug-charges    IRDMAX=   5350
   dimension x,y,z NGX =   294 NGY =  294 NGZ =  294
   dimension x,y,z NGXF=   588 NGYF=  588 NGZF=  588
   support grid    NGXF=   588 NGYF=  588 NGZF=  588
   ions per type =               9   1   2   7
   NGX,Y,Z   is equivalent  to a cutoff of  12.22, 12.22, 12.22 a.u.
   NGXF,Y,Z  is equivalent  to a cutoff of  24.44, 24.44, 24.44 a.u.

 SYSTEM =  103_red                                 
 POSCAR =  C N O H                                 

 Startparameter for this run:
   NWRITE =      2    write-flag & timer
   PREC   = accura    normal or accurate (medium, high low for compatibility)
   ISTART =      1    job   : 0-new  1-cont  2-samecut
   ICHARG =      2    charge: 1-file 2-atom 10-const
   ISPIN  =      2    spin polarized calculation?
   LNONCOLLINEAR =      F non collinear calculations
   LSORBIT =      F    spin-orbit coupling
   INIWAV =      1    electr: 0-lowe 1-rand  2-diag
   LASPH  =      F    aspherical Exc in radial PAW
 Electronic Relaxation 1
   ENCUT  =  500.0 eV  36.75 Ry    6.06 a.u.  72.93 72.93 72.93*2*pi/ulx,y,z
   ENINI  =  500.0     initial cutoff
   ENAUG  =  644.9 eV  augmentation charge cutoff
   NELM   =    500;   NELMIN=  2; NELMDL=  0     # of ELM steps 
   EDIFF  = 0.1E-04   stopping-criterion for ELM
   LREAL  =      T    real-space projection
   NLSPLINE    = F    spline interpolate recip. space projectors
   LCOMPAT=      F    compatible to vasp.4.4
   GGA_COMPAT  = T    GGA compatible to vasp.4.4-vasp.4.6
   LMAXPAW     = -100 max onsite density
   LMAXMIX     =    2 max onsite mixed and CHGCAR
   VOSKOWN=      0    Vosko Wilk Nusair interpolation
   ROPT   =   -0.00025  -0.00025  -0.00025  -0.00025
 Ionic relaxation
   EDIFFG = -.2E-01   stopping-criterion for IOM
   NSW    =      0    number of steps for IOM
   NBLOCK =      1;   KBLOCK =      1    inner block; outer block 
   IBRION =     -1    ionic relax: 0-MD 1-quasi-New 2-CG
   NFREE  =      1    steps in history (QN), initial steepest desc. (CG)
   ISIF   =      2    stress and relaxation
   IWAVPR =     10    prediction:  0-non 1-charg 2-wave 3-comb
   ISYM   =      3    0-nonsym 1-usesym 2-fastsym
   LCORR  =      T    Harris-Foulkes like correction to forces

   POTIM  = 0.5000    time-step for ionic-motion
   TEIN   =    0.0    initial temperature
   TEBEG  =    0.0;   TEEND  =   0.0 temperature during run
   SMASS  =  -3.00    Nose mass-parameter (am)
   estimated Nose-frequenzy (Omega)   =  0.10E-29 period in steps = 0.13E+47 mass=  -0.366E-25a.u.
   SCALEE = 1.0000    scale energy and forces
   NPACO  =    256;   APACO  = 10.0  distance and # of slots for P.C.
   PSTRESS=    0.0 pullay stress

  Mass of Ions in am
   POMASS =  12.01 14.00 16.00  1.00
  Ionic Valenz
   ZVAL   =   4.00  5.00  6.00  1.00
  Atomic Wigner-Seitz radii
   RWIGS  =  -1.00 -1.00 -1.00 -1.00
  virtual crystal weights 
   VCA    =   1.00  1.00  1.00  1.00
   NELECT =      61.0000    total number of electrons
   NUPDOWN=      -1.0000    fix difference up-down

 DOS related values:
   EMIN   =  10.00;   EMAX   =-10.00  energy-range for DOS
   EFERMI =   0.00
   ISMEAR =     0;   SIGMA  =   0.05  broadening in eV -4-tet -1-fermi 0-gaus

 Electronic relaxation 2 (details)
   IALGO  =     53    algorithm
   LDIAG  =      F    sub-space diagonalisation (order eigenvalues)
   LSUBROT=      F    optimize rotation matrix (better conditioning)
   TURBO    =      0    0=normal 1=particle mesh
   IRESTART =      0    0=no restart 2=restart with 2 vectors
   NREBOOT  =      0    no. of reboots
   NMIN     =      0    reboot dimension
   EREF     =   0.00    reference energy to select bands
   IMIX   =      4    mixing-type and parameters
     AMIX     =   0.40;   BMIX     =  1.00
     AMIX_MAG =   1.60;   BMIX_MAG =  1.00
     AMIN     =   0.10
     WC   =   100.;   INIMIX=   1;  MIXPRE=   1;  MAXMIX= -45

 Intra band minimization:
   WEIMIN = 0.0000     energy-eigenvalue tresh-hold
   EBREAK =  0.46E-07  absolut break condition
   DEPER  =   0.30     relativ break condition  

   TIME   =   0.40     timestep for ELM

  volume/ion in A,a.u.               =    3368.42     22731.23
  Fermi-wavevector in a.u.,A,eV,Ry     =   0.161111  0.304455  0.353162  0.025957
  Thomas-Fermi vector in A             =   0.855887
 
 Write flags
   LWAVE        =      T    write WAVECAR
   LDOWNSAMPLE  =      F    k-point downsampling of WAVECAR
   LCHARG       =      F    write CHGCAR
   LVTOT        =      F    write LOCPOT, total local potential
   LVHAR        =      F    write LOCPOT, Hartree potential only
   LELF         =      F    write electronic localiz. function (ELF)
   LORBIT       =      0    0 simple, 1 ext, 2 COOP (PROOUT), +10 PAW based schemes


 Dipole corrections
   LMONO  =      F    monopole corrections only (constant potential shift)
   LDIPOL =      F    correct potential (dipole corrections)
   IDIPOL =      0    1-x, 2-y, 3-z, 4-all directions 
   EPSILON=  1.0000000 bulk dielectric constant

 Exchange correlation treatment:
   GGA     =    --    GGA type
   LEXCH   =     8    internal setting for exchange type
   LIBXC   =     F    Libxc                    
   VOSKOWN =     0    Vosko Wilk Nusair interpolation
   EXXOEP  =     0    0=HF, 1=EXX-LHF (local Hartree Fock) 2=EXX OEP
   LHFCALC =     T    Hartree Fock is set to
   LSYMGRAD=     F    symmetrize gradient (conserves proper symmetry)
   PRECFOCK=normal    Normal, Fast or Accurate (Low or Medium for compatibility)
   LRHFCALC=     F    long range Hartree Fock
   LRSCOR  =     F    long range correlation only (use DFT for short range part)
   LTHOMAS =     F    Thomas Fermi screening in HF
   LMODELHF=     F    short range full HF, long range fraction AEXX
   FOCKCORR=     1    mode to apply convergence corrections
   LFOCKACE=     T    use Adeptively-Compressed-Exchange operator
   ENCUT4O =  -1.0   cutoff for four orbital integrals eV
   LMAXFOCK=     4    L truncation for augmentation on plane wave grid
   LMAXFOCKAE=  -1    L truncation for all-electron charge restoration on plane wave grid
   NMAXFOCKAE=   1    number of basis functions for all-electron charge restoration
   LFOCKAEDFT=     F  apply the AE augmentation even for DFT
   NKREDX  =     1    reduce k-point grid by
   NKREDY  =     1    reduce k-point grid by
   NKREDZ  =     1    reduce k-point grid by
   SHIFTRED=     F    shift reduced grid of Gamma
   HFKIDENT=     F    idential grid for each k-point
   ODDONLY =     F    use only odd q-grid points
   EVENONLY=     F    use only even q-grid points
   HFALPHA =   -1.0000 decay constant for conv. correction
   MCALPHA =    0.0000 extent of test-charge in conv. correction in multipole expansion
   AEXX    =    0.2500 exact exchange contribution
   HFSCREEN=    0.2000 screening length (either q_TF or 0.3 A-1)
   HFSCREENC=   0.2000 screening length for correlation (either q_TF or 0.3 A-1)
   HFRCUT  =    0.0000 spherical cutoff for potential kernel
   ALDAX   =    0.7500 LDA exchange part
   AGGAX   =    0.7500 GGA exchange part
   ALDAC   =    1.0000 LDA correlation
   AGGAC   =    1.0000 GGA correlation
   ENCUTFOCK=  -1.0 apply spherical cutoff to Coloumb kernel
   NBANDSGWLOW=     1    first orbital included in HF term
   NBLOCK_FOCK=    64    blocking factor in FOCK_ACC

 Linear response parameters
   LEPSILON=     F    determine dielectric tensor
   LRPA    =     F    only Hartree local field effects (RPA)
   LNABLA  =     F    use nabla operator in PAW spheres
   LVEL    =     F    velocity operator in full k-point grid
   CSHIFT  =0.1000    complex shift for real part using Kramers Kronig
   OMEGAMAX=  -1.0    maximum frequency
   DEG_THRESHOLD= 0.2000000E-02 threshold for treating states as degnerate
   RTIME   =   -0.100 relaxation time in fs
  (WPLASMAI=    0.000 imaginary part of plasma frequency in eV, 0.658/RTIME)
   DFIELD  = 0.0000000 0.0000000 0.0000000 field for delta impulse in time
 
  Optional k-point grid parameters
   LKPOINTS_OPT  =     F    use optional k-point grid
   KPOINTS_OPT_MODE=     1    mode for optional k-point grid
 
 Orbital magnetization related:
   ORBITALMAG=     F  switch on orbital magnetization
   LCHIMAG   =     F  perturbation theory with respect to B field
   DQ        =  0.001000  dq finite difference perturbation B field
   LLRAUG    =     F  two centre corrections for induced B field

 Solvation model:
   LSOL             =     T         switch on solvation model
   LSOL_SCF         =     T         include solvation in SCF
   ISOL             =     2         solvation model type
   EFERMI_ref       =  0.000000         reference Fermi level
   capacitance_init =  1.000000         initial capacitance
 Nonlinear solvation model:
   LNLDIEL     =     T         switch on non-linear dielectric mode
   LNLION      =     T         switch on non-linear ionic mode
   LNLTEST     =     F         test non-linear model in linear regime
   I_NLOC_SOL  =     1         type of nonlocal dielectric response
   NC_K        =  0.015000     cutoff charge density for cavities (1/Angstrom**3)
   TAU         =  0.000879     cavity formation energy (eV/Angstrom**2)
   SIGMA_K     =  0.600000     cavity width
   A_K         =  0.125000     smoothing length (Angstrom)
   R_SOLV      =  2.190000     solvent radius (Angstrom)
   R_CAV       =  0.000000     cavity radius (Angstrom)
   R_DIEL      =  1.000000     dielectric radius (Angstrom)
   R_ION       =  0.000000     ionic radius (Angstrom)
   R_B         =  0.000000     bound charge radius (Angstrom)
   SOLTEMP     =298.000000     solvent temperature (K)
   EB_K        = 35.688000     relative permittivity of the bulk solvent
   EPSILON_INF =  1.806900     optical relative permittivity of bulk solvent
   N_MOL       =  0.011500     molar density of solvent (1/Angstrom**3)
   P_MOL       =  0.820000     solvent dipole moment (e*Angstrom)
   C_MOLAR     =  0.000000     electrolyte concentration (mol/L)
   LAMBDA_D_K  =  0.000000     Debye length (Angstrom)
   ZION        =  1.000000     charge of ions in electrolyte (e)
   D_ION       = -1.000000     minimum ion packing diameter (Angstrom)



--------------------------------------------------------------------------------------------------------


 Static calculation
 charge density and potential will be updated during run
 spin polarized calculation
 Conjugate gradient for all bands (Kresse, et al. variant)
 perform Loewdin sub-space diagonalisation
    ordering is kept fixed
    before iterative eigenvector-optimisation
 modified Broyden-mixing scheme, WC =      100.0
 initial mixing is a Kerker type mixing with AMIX =  0.4000 and BMIX =      1.0000
 Hartree-type preconditioning will be used
 using additional bands           23
 real space projection scheme for non local part
 use partial core corrections
 no Harris-corrections to forces 
 use gradient corrections 
 use of overlap-Matrix (Vanderbilt PP)
 Gauss-broadening in eV      SIGMA  =   0.05


--------------------------------------------------------------------------------------------------------


  energy-cutoff  :      500.00
  volume of cell :    64000.00
      direct lattice vectors                 reciprocal lattice vectors
    40.000000000  0.000000000  0.000000000     0.025000000  0.000000000  0.000000000
     0.000000000 40.000000000  0.000000000     0.000000000  0.025000000  0.000000000
     0.000000000  0.000000000 40.000000000     0.000000000  0.000000000  0.025000000

  length of vectors
    40.000000000 40.000000000 40.000000000     0.025000000  0.025000000  0.025000000


 
 old parameters found on file WAVECAR:
  energy-cutoff  :      500.00
  volume of cell :    64000.00
      direct lattice vectors                 reciprocal lattice vectors
    40.000000000  0.000000000  0.000000000     0.025000000  0.000000000  0.000000000
     0.000000000 40.000000000  0.000000000     0.000000000  0.025000000  0.000000000
     0.000000000  0.000000000 40.000000000     0.000000000  0.000000000  0.025000000

  length of vectors

 
 k-points in units of 2pi/SCALE and weight: K-Point Grid                            
   0.00000000  0.00000000  0.00000000       1.000
 
 k-points in reciprocal lattice and weights: K-Point Grid                            
   0.00000000  0.00000000  0.00000000       1.000
 
 position of ions in fractional coordinates (direct lattice) 
   0.51693533  0.46412486  0.49999986
   0.55123912  0.46664030  0.49999766
   0.56743032  0.49867429  0.49999296
   0.54644188  0.52777786  0.49999149
   0.51212913  0.52502985  0.49999705
   0.49587746  0.49309410  0.50000006
   0.46015602  0.48889176  0.50000375
   0.40732259  0.51665163  0.50000682
   0.60237376  0.50139482  0.49999487
   0.63186756  0.50362265  0.49999529
   0.44443780  0.46192809  0.50000433
   0.44295503  0.51946860  0.50000644
   0.39822317  0.50330250  0.47773756
   0.39783925  0.54237947  0.50001878
   0.39822589  0.50328351  0.52226553
   0.49685461  0.54758984  0.49999518
   0.55813743  0.55243345  0.49999031
   0.56660189  0.44408779  0.49999968
   0.50495177  0.43962563  0.50000239
 
 position of ions in cartesian coordinates  (Angst):
  20.67741331 18.56499422 19.99999448
  22.04956470 18.66561216 19.99990647
  22.69721265 19.94697146 19.99971821
  21.85767532 21.11111451 19.99965963
  20.48516514 21.00119397 19.99988210
  19.83509852 19.72376420 20.00000238
  18.40624073 19.55567051 20.00015003
  16.29290347 20.66606532 20.00027269
  24.09495034 20.05579292 19.99979474
  25.27470228 20.14490587 19.99981153
  17.77751196 18.47712348 20.00017303
  17.71820118 20.77874416 20.00025751
  15.92892699 20.13209983 19.10950250
  15.91356993 21.69517864 20.00075111
  15.92903560 20.13134036 20.89062138
  19.87418446 21.90359372 19.99980728
  22.32549721 22.09733780 19.99961235
  22.66407552 17.76351168 19.99998714
  20.19807067 17.58502520 20.00009543
 


--------------------------------------------------------------------------------------------------------


 k-point   1 :   0.0000 0.0000 0.0000  plane waves: 1624525

 maximum and minimum number of plane-waves per node :    108307   108296

 maximum number of plane-waves:   1624525
 maximum index in each direction: 
   IXMAX=   72   IYMAX=   72   IZMAX=   72
   IXMIN=  -72   IYMIN=  -72   IZMIN=  -72


 real space projection operators:
  total allocation   :       2330.59 KBytes
  max/ min on nodes  :        194.64        121.38


 parallel 3D FFT for wavefunctions:
    minimum data exchange during FFTs selected (reduces bandwidth)
 parallel 3D FFT for charge:
    minimum data exchange during FFTs selected (reduces bandwidth)


 FFT grid for exact exchange (Hartree Fock) 
  NGX =224; NGY =224; NGZ =224

 
 Radii for the augmentation spheres in the non-local exchange
 for species   1 augmentation radius   0.874 (default was   0.699)
       energy cutoff for augmentation   2000.0
 for species   2 augmentation radius   0.886 (default was   0.709)
       energy cutoff for augmentation   2000.0
 for species   3 augmentation radius   0.902 (default was   0.722)
       energy cutoff for augmentation   2000.0
 for species   4 augmentation radius   0.650 (default was   0.520)
       energy cutoff for augmentation   2000.0

 real space projection operators:
  total allocation   :        523.20 KBytes
  max/ min on nodes  :         44.44         27.98

 Maximum index for augmentation-charges in exchange           76
  SETUP_FOCK is finished

 total amount of memory used by VASP MPI-rank0   672671. kBytes
=======================================================================

   base      :      30000. kBytes
   nonlr-proj:       2029. kBytes
   fftplans  :     175546. kBytes
   grid      :     371484. kBytes
   one-center:         12. kBytes
   HF        :          9. kBytes
   wavefun   :      93591. kBytes
 
     INWAV:  cpu time     14.5897: real time     14.6301
 Broyden mixing: mesh for mixing (old mesh)
   NGX =145   NGY =145   NGZ =145
  (NGX  =588   NGY  =588   NGZ  =588)
  gives a total of ****** points

 initial charge density was supplied:
 charge density of overlapping atoms calculated
 number of electron      60.0000000 magnetization      19.0000000
 charge density for first step will be calculated from the start-wavefunctions


--------------------------------------------------------------------------------------------------------


 Maximum index for non-local projection operator          310
 Maximum index for augmentation-charges          326 (set IRDMAX)


--------------------------------------------------------------------------------------------------------


 initial charge from wavefunction
 First call to EWALD:  gamma=   0.044
 Maximum number of real-space cells 3x 3x 3
 Maximum number of reciprocal cells 3x 3x 3

    FEWALD:  cpu time      0.0030: real time      0.0030


--------------------------------------- Iteration      1(   1)  ---------------------------------------


    POTLOK:  cpu time     20.6623: real time     20.6628
    SETDIJ:  cpu time      0.0677: real time      0.0677
    TRIAL :  cpu time    234.2865: real time    234.3012
    CORREC:  cpu time      0.2191: real time      0.2191
    CHARGE:  cpu time      3.6378: real time      3.6380
    --------------------------------------------
      LOOP:  cpu time    258.9285: real time    258.9442

 eigenvalue-minimisations  :     0
 total energy-change (2. order) :-0.1512924E+03  (-0.2247420E+00)
 number of electron      60.9999998 magnetization       1.0000001
 augmentation part        2.4298034 magnetization       0.0895860

 Free energy of the ion-electron system (eV)
  ---------------------------------------------------
  alpha Z        PSCENC =         0.25289122
  Ewald energy   TEWEN  =      6507.88216020
  -Hartree energ DENC   =     -8800.69599111
  -exchange      EXHF   =       146.03246416
  -V(xc)+E(xc)   XCENC  =       169.62707258
  PAW double counting   =      5670.32912409    -5677.61921350
  entropy T*S    EENTRO =        -0.00000000
  eigenvalues    EBANDS =      -680.44288976
  atomic energy  EATOM  =      2513.34200017
  ---------------------------------------------------
  free energy    TOTEN  =      -151.29238197 eV

  energy without entropy =     -151.29238197  energy(sigma->0) =     -151.29238197
  exchange ACFDT corr.  =         0.00000000  see jH, gK, PRB 81, 115126


--------------------------------------------------------------------------------------------------------




--------------------------------------- Iteration      1(   2)  ---------------------------------------


    --------------------------------------------
      INIT:  cpu time      0.3902: real time      0.3902
  FINALIZE:  cpu time    230.1477: real time    230.1534
    --------------------------------------------
    POTLOK:  cpu time    251.2788: real time    251.2850
    SETDIJ:  cpu time      0.0692: real time      0.0692
    TRIAL :  cpu time    236.6289: real time    236.6349
    CORREC:  cpu time      0.0038: real time      0.0038
    CHARGE:  cpu time      3.2437: real time      3.2438
    --------------------------------------------
      LOOP:  cpu time    491.2885: real time    491.3122

 eigenvalue-minimisations  :     0
 total energy-change (2. order) :-0.9825127E+00  (-0.6173237E-01)
 number of electron      60.9999998 magnetization       1.0000001
 augmentation part        2.4323125 magnetization       0.0897886

 Free energy of the ion-electron system (eV)
  ---------------------------------------------------
  alpha Z        PSCENC =         0.25289122
  Ewald energy   TEWEN  =      6507.88216020
  -Hartree energ DENC   =     -8792.22430715
  -exchange      EXHF   =       145.84574736
  -V(xc)+E(xc)   XCENC  =       169.45303990
  PAW double counting   =      5647.54644945    -5654.82412073
  entropy T*S    EENTRO =        -0.00000000
  eigenvalues    EBANDS =      -810.28928938
  atomic energy  EATOM  =      2513.34200017
  ---------------------------------------------------
  free energy    TOTEN  =      -152.27489469 eV

  energy without entropy =     -152.27489469  energy(sigma->0) =     -152.27489469
  exchange ACFDT corr.  =         0.00000000  see jH, gK, PRB 81, 115126


--------------------------------------------------------------------------------------------------------




--------------------------------------- Iteration      1(   3)  ---------------------------------------


    --------------------------------------------
      INIT:  cpu time      0.7905: real time      0.7905
  FINALIZE:  cpu time     83.7388: real time     83.7420
    --------------------------------------------
    POTLOK:  cpu time    106.6196: real time    106.6235
    SETDIJ:  cpu time      0.0668: real time      0.0668
    TRIAL :  cpu time    235.3958: real time    235.4065
    CORREC:  cpu time      0.2180: real time      0.2180
    CHARGE:  cpu time      4.0155: real time      4.0156
    --------------------------------------------
      LOOP:  cpu time    346.3511: real time    346.3713

 eigenvalue-minimisations  :     0
 total energy-change (2. order) :-0.3743862E-01  (-0.2209542E-01)
 number of electron      60.9999998 magnetization       1.0000001
 augmentation part        2.4347838 magnetization       0.0899337

 Free energy of the ion-electron system (eV)
  ---------------------------------------------------
  alpha Z        PSCENC =         0.25289122
  Ewald energy   TEWEN  =      6507.88216020
  -Hartree energ DENC   =     -8795.03109091
  -exchange      EXHF   =       145.92990115
  -V(xc)+E(xc)   XCENC  =       169.53471875
  PAW double counting   =      5643.48694896    -5650.77315028
  entropy T*S    EENTRO =        -0.00000000
  eigenvalues    EBANDS =      -807.80597148
  atomic energy  EATOM  =      2513.34200017
  ---------------------------------------------------
  free energy    TOTEN  =      -152.31233331 eV

  energy without entropy =     -152.31233331  energy(sigma->0) =     -152.31233331
  exchange ACFDT corr.  =         0.00000000  see jH, gK, PRB 81, 115126


--------------------------------------------------------------------------------------------------------




--------------------------------------- Iteration      1(   4)  ---------------------------------------


    --------------------------------------------
      INIT:  cpu time      0.9692: real time      0.9692
  FINALIZE:  cpu time     86.1973: real time     86.2003
    --------------------------------------------
    POTLOK:  cpu time    108.6859: real time    108.6897
    SETDIJ:  cpu time      0.0721: real time      0.0721
    TRIAL :  cpu time    235.1063: real time    235.1296
    CORREC:  cpu time      0.0906: real time      0.0906
    CHARGE:  cpu time      3.2834: real time      3.2835
    --------------------------------------------
      LOOP:  cpu time    347.2780: real time    347.3099

 eigenvalue-minimisations  :     0
 total energy-change (2. order) :-0.1196363E-01  (-0.6901705E-02)
 number of electron      60.9999998 magnetization       1.0000001
 augmentation part        2.4347175 magnetization       0.0899545

 Free energy of the ion-electron system (eV)
  ---------------------------------------------------
  alpha Z        PSCENC =         0.25289122
  Ewald energy   TEWEN  =      6507.88216020
  -Hartree energ DENC   =     -8798.02059706
  -exchange      EXHF   =       145.98868341
  -V(xc)+E(xc)   XCENC  =       169.59219432
  PAW double counting   =      5646.44650927    -5653.74196059
  entropy T*S    EENTRO =        -0.00000000
  eigenvalues    EBANDS =      -805.15492266
  atomic energy  EATOM  =      2513.34200017
  ---------------------------------------------------
  free energy    TOTEN  =      -152.32429694 eV

  energy without entropy =     -152.32429694  energy(sigma->0) =     -152.32429694
  exchange ACFDT corr.  =        -0.00000000  see jH, gK, PRB 81, 115126


--------------------------------------------------------------------------------------------------------




--------------------------------------- Iteration      1(   5)  ---------------------------------------


    --------------------------------------------
      INIT:  cpu time      0.4046: real time      0.4046
  FINALIZE:  cpu time     67.5014: real time     67.5030
    --------------------------------------------
    POTLOK:  cpu time     83.7910: real time     83.7930
    SETDIJ:  cpu time      0.0677: real time      0.0677
    TRIAL :  cpu time    234.4699: real time    234.4793
    CORREC:  cpu time      0.0038: real time      0.0037
    CHARGE:  cpu time      3.0636: real time      3.0637
    --------------------------------------------
      LOOP:  cpu time    321.4309: real time    321.4475

 eigenvalue-minimisations  :     0
 total energy-change (2. order) :-0.3310806E-02  (-0.2348201E-02)
 number of electron      60.9999998 magnetization       1.0000001
 augmentation part        2.4342005 magnetization       0.0899561

 Free energy of the ion-electron system (eV)
  ---------------------------------------------------
  alpha Z        PSCENC =         0.25289122
  Ewald energy   TEWEN  =      6507.88216020
  -Hartree energ DENC   =     -8797.72725635
  -exchange      EXHF   =       145.96358694
  -V(xc)+E(xc)   XCENC  =       169.56883798
  PAW double counting   =      5648.21122133    -5655.50721097
  entropy T*S    EENTRO =        -0.00000000
  eigenvalues    EBANDS =      -805.42572981
  atomic energy  EATOM  =      2513.34200017
  ---------------------------------------------------
  free energy    TOTEN  =      -152.32760775 eV

  energy without entropy =     -152.32760775  energy(sigma->0) =     -152.32760775
  exchange ACFDT corr.  =         0.00000000  see jH, gK, PRB 81, 115126


--------------------------------------------------------------------------------------------------------




--------------------------------------- Iteration      1(   6)  ---------------------------------------


    --------------------------------------------
      INIT:  cpu time      0.3991: real time      0.3991
  FINALIZE:  cpu time     73.6960: real time     73.6979
    --------------------------------------------
    POTLOK:  cpu time     90.4862: real time     90.4885
    SETDIJ:  cpu time      0.0669: real time      0.0669
    TRIAL :  cpu time    234.2784: real time    234.2959
    CORREC:  cpu time      0.0521: real time      0.0521
    CHARGE:  cpu time      2.6809: real time      2.6810
    --------------------------------------------
      LOOP:  cpu time    327.5952: real time    327.6210

 eigenvalue-minimisations  :     0
 total energy-change (2. order) :-0.1195677E-02  (-0.1070248E-02)
 number of electron      60.9999998 magnetization       1.0000001
 augmentation part        2.4343722 magnetization       0.0899907

 Free energy of the ion-electron system (eV)
  ---------------------------------------------------
  alpha Z        PSCENC =         0.25289122
  Ewald energy   TEWEN  =      6507.88216020
  -Hartree energ DENC   =     -8796.87551497
  -exchange      EXHF   =       145.94472553
  -V(xc)+E(xc)   XCENC  =       169.54957995
  PAW double counting   =      5648.77638527    -5656.07016989
  entropy T*S    EENTRO =        -0.00000000
  eigenvalues    EBANDS =      -806.18994174
  atomic energy  EATOM  =      2513.34200017
  ---------------------------------------------------
  free energy    TOTEN  =      -152.32880342 eV

  energy without entropy =     -152.32880342  energy(sigma->0) =     -152.32880342
  exchange ACFDT corr.  =         0.00000000  see jH, gK, PRB 81, 115126


--------------------------------------------------------------------------------------------------------




--------------------------------------- Iteration      1(   7)  ---------------------------------------


    --------------------------------------------
      INIT:  cpu time      0.7882: real time      0.7882
  FINALIZE:  cpu time     71.9201: real time     71.9247
    --------------------------------------------
    POTLOK:  cpu time     93.0341: real time     93.0393
    SETDIJ:  cpu time      0.0741: real time      0.0741
    TRIAL :  cpu time    234.3885: real time    234.3942
    CORREC:  cpu time      0.1796: real time      0.1796
    CHARGE:  cpu time      3.0760: real time      3.0761
    --------------------------------------------
      LOOP:  cpu time    330.7897: real time    330.8071

 eigenvalue-minimisations  :     0
 total energy-change (2. order) :-0.6678147E-03  (-0.5687161E-03)
 number of electron      60.9999998 magnetization       1.0000001
 augmentation part        2.4346224 magnetization       0.0900257

 Free energy of the ion-electron system (eV)
  ---------------------------------------------------
  alpha Z        PSCENC =         0.25289122
  Ewald energy   TEWEN  =      6507.88216020
  -Hartree energ DENC   =     -8796.92359052
  -exchange      EXHF   =       145.95305526
  -V(xc)+E(xc)   XCENC  =       169.55646327
  PAW double counting   =      5649.30649576    -5656.60045539
  entropy T*S    EENTRO =        -0.00000000
  eigenvalues    EBANDS =      -806.14001680
  atomic energy  EATOM  =      2513.34200017
  ---------------------------------------------------
  free energy    TOTEN  =      -152.32947124 eV

  energy without entropy =     -152.32947124  energy(sigma->0) =     -152.32947124
  exchange ACFDT corr.  =        -0.00000000  see jH, gK, PRB 81, 115126


--------------------------------------------------------------------------------------------------------




--------------------------------------- Iteration      1(   8)  ---------------------------------------


    --------------------------------------------
      INIT:  cpu time      0.3950: real time      0.3950
  FINALIZE:  cpu time     77.8281: real time     77.8393
    --------------------------------------------
    POTLOK:  cpu time     99.1376: real time     99.1494
    SETDIJ:  cpu time      0.0720: real time      0.0720
    TRIAL :  cpu time    235.3250: real time    235.3311
    CORREC:  cpu time      0.1178: real time      0.1178
    CHARGE:  cpu time      3.8326: real time      3.8327
    --------------------------------------------
      LOOP:  cpu time    338.5152: real time    338.5406

 eigenvalue-minimisations  :     0
 total energy-change (2. order) :-0.3779608E-03  (-0.2751535E-03)
 number of electron      60.9999998 magnetization       1.0000001
 augmentation part        2.4346150 magnetization       0.0900493

 Free energy of the ion-electron system (eV)
  ---------------------------------------------------
  alpha Z        PSCENC =         0.25289122
  Ewald energy   TEWEN  =      6507.88216020
  -Hartree energ DENC   =     -8797.13795975
  -exchange      EXHF   =       145.95987564
  -V(xc)+E(xc)   XCENC  =       169.56294220
  PAW double counting   =      5649.41296600    -5656.70787426
  entropy T*S    EENTRO =        -0.00000000
  eigenvalues    EBANDS =      -805.94505899
  atomic energy  EATOM  =      2513.34200017
  ---------------------------------------------------
  free energy    TOTEN  =      -152.32984920 eV

  energy without entropy =     -152.32984920  energy(sigma->0) =     -152.32984920
  exchange ACFDT corr.  =        -0.00000000  see jH, gK, PRB 81, 115126


--------------------------------------------------------------------------------------------------------




--------------------------------------- Iteration      1(   9)  ---------------------------------------


    --------------------------------------------
      INIT:  cpu time      0.7764: real time      0.7764
  FINALIZE:  cpu time     75.0273: real time     75.0372
    --------------------------------------------
    POTLOK:  cpu time     96.7438: real time     96.7544
    SETDIJ:  cpu time      0.0688: real time      0.0688
    TRIAL :  cpu time    235.3154: real time    235.3224
    CORREC:  cpu time      0.0966: real time      0.0966
    CHARGE:  cpu time      2.8467: real time      2.8468
    --------------------------------------------
      LOOP:  cpu time    335.1178: real time    335.1409

 eigenvalue-minimisations  :     0
 total energy-change (2. order) :-0.1848383E-03  (-0.1214892E-03)
 number of electron      60.9999998 magnetization       1.0000001
 augmentation part        2.4345217 magnetization       0.0900689

 Free energy of the ion-electron system (eV)
  ---------------------------------------------------
  alpha Z        PSCENC =         0.25289122
  Ewald energy   TEWEN  =      6507.88216020
  -Hartree energ DENC   =     -8797.15398966
  -exchange      EXHF   =       145.95860005
  -V(xc)+E(xc)   XCENC  =       169.56204024
  PAW double counting   =      5649.23719001    -5656.53212004
  entropy T*S    EENTRO =        -0.00000000
  eigenvalues    EBANDS =      -805.93461481
  atomic energy  EATOM  =      2513.34200017
  ---------------------------------------------------
  free energy    TOTEN  =      -152.33003404 eV

  energy without entropy =     -152.33003404  energy(sigma->0) =     -152.33003404
  exchange ACFDT corr.  =         0.00000000  see jH, gK, PRB 81, 115126


--------------------------------------------------------------------------------------------------------




--------------------------------------- Iteration      1(  10)  ---------------------------------------


    --------------------------------------------
      INIT:  cpu time      0.3958: real time      0.3958
  FINALIZE:  cpu time     71.1084: real time     71.1102
    --------------------------------------------
    POTLOK:  cpu time     88.9544: real time     88.9566
    SETDIJ:  cpu time      0.0721: real time      0.0721
    TRIAL :  cpu time    234.9236: real time    234.9295
    CORREC:  cpu time      0.1598: real time      0.1598
    CHARGE:  cpu time      3.4329: real time      3.4330
    --------------------------------------------
      LOOP:  cpu time    327.5798: real time    327.5933

 eigenvalue-minimisations  :     0
 total energy-change (2. order) :-0.8255613E-04  (-0.5228062E-04)
 number of electron      60.9999998 magnetization       1.0000001
 augmentation part        2.4344942 magnetization       0.0900879

 Free energy of the ion-electron system (eV)
  ---------------------------------------------------
  alpha Z        PSCENC =         0.25289122
  Ewald energy   TEWEN  =      6507.88216020
  -Hartree energ DENC   =     -8797.10158905
  -exchange      EXHF   =       145.95634452
  -V(xc)+E(xc)   XCENC  =       169.55997096
  PAW double counting   =      5649.08185140    -5656.37629278
  entropy T*S    EENTRO =        -0.00000000
  eigenvalues    EBANDS =      -805.98779245
  atomic energy  EATOM  =      2513.34200017
  ---------------------------------------------------
  free energy    TOTEN  =      -152.33011659 eV

  energy without entropy =     -152.33011659  energy(sigma->0) =     -152.33011659
  exchange ACFDT corr.  =        -0.00000000  see jH, gK, PRB 81, 115126


--------------------------------------------------------------------------------------------------------




--------------------------------------- Iteration      1(  11)  ---------------------------------------


    --------------------------------------------
      INIT:  cpu time      0.4065: real time      0.4066
  FINALIZE:  cpu time     70.6023: real time     70.6061
    --------------------------------------------
    POTLOK:  cpu time     89.8130: real time     89.8296
    SETDIJ:  cpu time      0.0684: real time      0.0684
    TRIAL :  cpu time    234.6773: real time    234.6829
    CORREC:  cpu time      0.0072: real time      0.0072
    CHARGE:  cpu time      2.6792: real time      2.6793
    --------------------------------------------
      LOOP:  cpu time    327.2850: real time    327.3124

 eigenvalue-minimisations  :     0
 total energy-change (2. order) :-0.3940173E-04  (-0.2969030E-04)
 number of electron      60.9999998 magnetization       1.0000001
 augmentation part        2.4345015 magnetization       0.0901061

 Free energy of the ion-electron system (eV)
  ---------------------------------------------------
  alpha Z        PSCENC =         0.25289122
  Ewald energy   TEWEN  =      6507.88216020
  -Hartree energ DENC   =     -8797.10722548
  -exchange      EXHF   =       145.95646935
  -V(xc)+E(xc)   XCENC  =       169.55995882
  PAW double counting   =      5649.02599803    -5656.32024759
  entropy T*S    EENTRO =        -0.00000000
  eigenvalues    EBANDS =      -805.98780406
  atomic energy  EATOM  =      2513.34200017
  ---------------------------------------------------
  free energy    TOTEN  =      -152.33015599 eV

  energy without entropy =     -152.33015599  energy(sigma->0) =     -152.33015599
  exchange ACFDT corr.  =        -0.00000000  see jH, gK, PRB 81, 115126


--------------------------------------------------------------------------------------------------------




--------------------------------------- Iteration      1(  12)  ---------------------------------------


    --------------------------------------------
      INIT:  cpu time      0.6122: real time      0.6122
  FINALIZE:  cpu time     72.1080: real time     72.1105
    --------------------------------------------
    POTLOK:  cpu time     91.1118: real time     91.1148
    SETDIJ:  cpu time      0.0681: real time      0.0681
    TRIAL :  cpu time    236.1129: real time    236.1427
    CORREC:  cpu time      0.1063: real time      0.1063
    CHARGE:  cpu time      2.6736: real time      2.6737
    --------------------------------------------
      LOOP:  cpu time    330.1090: real time    330.1473

 eigenvalue-minimisations  :     0
 total energy-change (2. order) :-0.2448102E-04  (-0.1962162E-04)
 number of electron      60.9999998 magnetization       1.0000001
 augmentation part        2.4345048 magnetization       0.0901220

 Free energy of the ion-electron system (eV)
  ---------------------------------------------------
  alpha Z        PSCENC =         0.25289122
  Ewald energy   TEWEN  =      6507.88216020
  -Hartree energ DENC   =     -8797.13240606
  -exchange      EXHF   =       145.95717279
  -V(xc)+E(xc)   XCENC  =       169.56048989
  PAW double counting   =      5649.00961703    -5656.30389109
  entropy T*S    EENTRO =        -0.00000000
  eigenvalues    EBANDS =      -805.96885570
  atomic energy  EATOM  =      2513.34200017
  ---------------------------------------------------
  free energy    TOTEN  =      -152.33018047 eV

  energy without entropy =     -152.33018047  energy(sigma->0) =     -152.33018047
  exchange ACFDT corr.  =         0.00000000  see jH, gK, PRB 81, 115126


--------------------------------------------------------------------------------------------------------




--------------------------------------- Iteration      1(  13)  ---------------------------------------


    --------------------------------------------
      INIT:  cpu time      0.5855: real time      0.5855
  FINALIZE:  cpu time     66.0773: real time     66.0789
    --------------------------------------------
    POTLOK:  cpu time     87.8729: real time     87.8750
    SETDIJ:  cpu time      0.0688: real time      0.0688
    TRIAL :  cpu time    236.0824: real time    236.0881
    CORREC:  cpu time      0.4354: real time      0.4354
    CHARGE:  cpu time      3.0635: real time      3.0636
    --------------------------------------------
      LOOP:  cpu time    327.5645: real time    327.5968

 eigenvalue-minimisations  :     0
 total energy-change (2. order) :-0.1704315E-04  (-0.1406364E-04)
 number of electron      60.9999998 magnetization       1.0000001
 augmentation part        2.4345003 magnetization       0.0901354

 Free energy of the ion-electron system (eV)
  ---------------------------------------------------
  alpha Z        PSCENC =         0.25289122
  Ewald energy   TEWEN  =      6507.88216020
  -Hartree energ DENC   =     -8797.14267781
  -exchange      EXHF   =       145.95742004
  -V(xc)+E(xc)   XCENC  =       169.56061946
  PAW double counting   =      5648.99896872    -5656.29326199
  entropy T*S    EENTRO =        -0.00000000
  eigenvalues    EBANDS =      -805.96271939
  atomic energy  EATOM  =      2513.34200017
  ---------------------------------------------------
  free energy    TOTEN  =      -152.33019752 eV

  energy without entropy =     -152.33019752  energy(sigma->0) =     -152.33019752
  exchange ACFDT corr.  =        -0.00000000  see jH, gK, PRB 81, 115126


--------------------------------------------------------------------------------------------------------




--------------------------------------- Iteration      1(  14)  ---------------------------------------


    --------------------------------------------
      INIT:  cpu time      0.5941: real time      0.5941
  FINALIZE:  cpu time     73.0185: real time     73.0224
    --------------------------------------------
    POTLOK:  cpu time     92.6292: real time     92.6336
    SETDIJ:  cpu time      0.0728: real time      0.0728
    TRIAL :  cpu time    234.5614: real time    234.5689
    CORREC:  cpu time      0.1188: real time      0.1188
    CHARGE:  cpu time      3.6487: real time      3.6488
    --------------------------------------------
      LOOP:  cpu time    331.0558: real time    331.0817

 eigenvalue-minimisations  :     0
 total energy-change (2. order) :-0.1255327E-04  (-0.1046251E-04)
 number of electron      60.9999998 magnetization       1.0000001
 augmentation part        2.4344946 magnetization       0.0901461

 Free energy of the ion-electron system (eV)
  ---------------------------------------------------
  alpha Z        PSCENC =         0.25289122
  Ewald energy   TEWEN  =      6507.88216020
  -Hartree energ DENC   =     -8797.14176454
  -exchange      EXHF   =       145.95735114
  -V(xc)+E(xc)   XCENC  =       169.56046974
  PAW double counting   =      5648.98481760    -5656.27909293
  entropy T*S    EENTRO =        -0.00000000
  eigenvalues    EBANDS =      -805.96634650
  atomic energy  EATOM  =      2513.34200017
  ---------------------------------------------------
  free energy    TOTEN  =      -152.33021007 eV

  energy without entropy =     -152.33021007  energy(sigma->0) =     -152.33021007
  exchange ACFDT corr.  =         0.00000000  see jH, gK, PRB 81, 115126


--------------------------------------------------------------------------------------------------------




--------------------------------------- Iteration      1(  15)  ---------------------------------------


    --------------------------------------------
      INIT:  cpu time      0.6039: real time      0.6040
  FINALIZE:  cpu time     71.7151: real time     71.7177
    --------------------------------------------
    POTLOK:  cpu time     90.7501: real time     90.7533
    SETDIJ:  cpu time      0.0709: real time      0.0709
    TRIAL :  cpu time    233.8443: real time    233.8650
    CORREC:  cpu time      0.0804: real time      0.0804
    CHARGE:  cpu time      2.6796: real time      2.6797
    --------------------------------------------
      LOOP:  cpu time    327.4597: real time    327.4890

 eigenvalue-minimisations  :     0
 total energy-change (2. order) :-0.9513418E-05  (-0.8001139E-05)
 number of electron      60.9999998 magnetization       1.0000001
 augmentation part        2.4344902 magnetization       0.0901545

 Free energy of the ion-electron system (eV)
  ---------------------------------------------------
  alpha Z        PSCENC =         0.25289122
  Ewald energy   TEWEN  =      6507.88216020
  -Hartree energ DENC   =     -8797.14410342
  -exchange      EXHF   =       145.95735400
  -V(xc)+E(xc)   XCENC  =       169.56039605
  PAW double counting   =      5648.97668577    -5656.27094695
  entropy T*S    EENTRO =        -0.00000000
  eigenvalues    EBANDS =      -805.96673952
  atomic energy  EATOM  =      2513.34200017
  ---------------------------------------------------
  free energy    TOTEN  =      -152.33021958 eV

  energy without entropy =     -152.33021958  energy(sigma->0) =     -152.33021958
  exchange ACFDT corr.  =         0.00000000  see jH, gK, PRB 81, 115126


--------------------------------------------------------------------------------------------------------


  average scaling for gradient   1.8347


 average (electrostatic) potential at core
  the test charge radii are     0.6991  0.7089  0.7215  0.5201
  (the norm of the test charge is              1.0000)
       1 -54.1226       2 -54.3142       3 -54.5548       4 -54.3179       5 -54.1544
       6 -54.0313       7 -56.5881       8 -55.3576       9 -55.1092      10 -66.9621
      11 -72.3428      12 -74.1785      13 -37.2741      14 -37.4745      15 -37.2739
      16 -37.1006      17 -37.3317      18 -37.3287      19 -37.0446
 
 
 
 E-fermi :  -2.2615     XC(G=0):  -0.0335     alpha+bet : -0.0209

 Fermi energy:        -2.2615313487

 spin component 1

 k-point     1 :       0.0000    0.0000    0.0000
  band No.  band energies     occupation 
      1     -28.9544      1.00000
      2     -26.5570      1.00000
      3     -23.8925      1.00000
      4     -22.7500      1.00000
      5     -20.6134      1.00000
      6     -19.8852      1.00000
      7     -18.9731      1.00000
      8     -17.2796      1.00000
      9     -15.7556      1.00000
     10     -14.7816      1.00000
     11     -14.0987      1.00000
     12     -13.3084      1.00000
     13     -12.1135      1.00000
     14     -12.1561      1.00000
     15     -11.3915      1.00000
     16     -11.1546      1.00000
     17     -10.7552      1.00000
     18     -10.6804      1.00000
     19     -10.2587      1.00000
     20      -9.7167      1.00000
     21      -9.6830      1.00000
     22      -9.0003      1.00000
     23      -8.9416      1.00000
     24      -8.5392      1.00000
     25      -8.3812      1.00000
     26      -7.8218      1.00000
     27      -7.4008      1.00000
     28      -6.5070      1.00000
     29      -6.1974      1.00000
     30      -6.4988      1.00000
     31      -2.5525      1.00000
     32      -0.0371      0.00000
     33      -0.2621      0.00000
     34       0.0526      0.00000
     35       0.0607      0.00000
     36       0.6891      0.00000
     37       0.1093      0.00000
     38       0.0261      0.00000
     39       0.1576      0.00000
     40       0.0893      0.00000
     41       0.1057      0.00000
     42       0.1428      0.00000
     43       0.1273      0.00000
     44       0.1357      0.00000
     45       0.1978      0.00000
     46       0.2000      0.00000
     47       0.1979      0.00000
     48       0.3114      0.00000
     49       0.2012      0.00000
     50       0.2035      0.00000
     51       0.2601      0.00000
     52       0.6043      0.00000
     53       0.3539      0.00000
     54       0.3829      0.00000
 Fermi energy:        -2.2615313487

 spin component 2

 k-point     1 :       0.0000    0.0000    0.0000
  band No.  band energies     occupation 
      1     -28.8726      1.00000
      2     -26.4107      1.00000
      3     -23.7425      1.00000
      4     -22.6135      1.00000
      5     -20.3871      1.00000
      6     -19.7769      1.00000
      7     -18.8943      1.00000
      8     -17.0566      1.00000
      9     -15.7342      1.00000
     10     -14.6902      1.00000
     11     -14.0393      1.00000
     12     -13.2444      1.00000
     13     -12.0493      1.00000
     14     -12.0221      1.00000
     15     -11.3455      1.00000
     16     -11.0807      1.00000
     17     -10.7243      1.00000
     18     -10.6584      1.00000
     19      -9.8591      1.00000
     20      -9.6081      1.00000
     21      -9.2932      1.00000
     22      -8.8683      1.00000
     23      -8.9103      1.00000
     24      -8.5027      1.00000
     25      -8.0095      1.00000
     26      -7.7797      1.00000
     27      -7.0985      1.00000
     28      -6.1729      1.00000
     29      -6.4089      1.00000
     30      -5.5133      1.00000
     31      -1.2153      0.00000
     32       0.1378      0.00000
     33      -0.2162      0.00000
     34      -0.0128      0.00000
     35       0.5947      0.00000
     36       0.3323      0.00000
     37       0.1501      0.00000
     38       0.0271      0.00000
     39       0.1004      0.00000
     40       0.1076      0.00000
     41       0.1096      0.00000
     42       0.1284      0.00000
     43       0.0820      0.00000
     44       0.1443      0.00000
     45       0.1774      0.00000
     46       0.2026      0.00000
     47       0.2001      0.00000
     48       0.2013      0.00000
     49       0.2039      0.00000
     50       0.2031      0.00000
     51       0.2599      0.00000
     52       0.4810      0.00000
     53       0.3383      0.00000
     54       0.2705      0.00000


--------------------------------------------------------------------------------------------------------


 soft charge-density along one line, spin component           1
         0         1         2         3         4         5         6         7         8         9
 total charge-density along one line
 
 soft charge-density along one line, spin component           2
         0         1         2         3         4         5         6         7         8         9
 total charge-density along one line
 
 pseudopotential strength for first ion, spin component:           1
  9.933  13.207   0.001  -0.000   0.000  -0.002   0.000  -0.001
 13.207  17.558   0.001  -0.000   0.000  -0.003   0.000  -0.002
  0.001   0.001  -4.156  -0.000  -0.000   8.104   0.000   0.000
 -0.000  -0.000  -0.000  -4.161  -0.000   0.000   8.115   0.000
  0.000   0.000  -0.000  -0.000  -4.158   0.000   0.000   8.106
 -0.002  -0.003   8.104   0.000   0.000 -17.913  -0.000  -0.000
  0.000   0.000   0.000   8.115   0.000  -0.000 -17.939  -0.000
 -0.001  -0.002   0.000   0.000   8.106  -0.000  -0.000 -17.915
 pseudopotential strength for first ion, spin component:           2
  9.926  13.197   0.001  -0.000   0.000  -0.003   0.000  -0.001
 13.197  17.545   0.001  -0.000   0.000  -0.004   0.000  -0.001
  0.001   0.001  -4.157  -0.000   0.000   8.106   0.000  -0.000
 -0.000  -0.000  -0.000  -4.153   0.000   0.000   8.101  -0.000
  0.000   0.000   0.000   0.000  -4.158  -0.000  -0.000   8.108
 -0.003  -0.004   8.106   0.000  -0.000 -17.919  -0.000   0.000
  0.000   0.000   0.000   8.101  -0.000  -0.000 -17.917   0.000
 -0.001  -0.001  -0.000  -0.000   8.108   0.000   0.000 -17.922
 total augmentation occupancy for first ion, spin component:           1
  8.709  -3.920   0.149  -0.000   0.195   0.033  -0.000   0.036
 -3.920   1.798  -0.101   0.000  -0.119  -0.020   0.000  -0.020
  0.149  -0.101   1.746  -0.000  -0.013   0.160  -0.000  -0.005
 -0.000   0.000  -0.000   1.160  -0.000  -0.000   0.074  -0.000
  0.195  -0.119  -0.013  -0.000   1.876  -0.005  -0.000   0.181
  0.033  -0.020   0.160  -0.000  -0.005   0.015  -0.000  -0.001
 -0.000   0.000  -0.000   0.074  -0.000  -0.000   0.005  -0.000
  0.036  -0.020  -0.005  -0.000   0.181  -0.001  -0.000   0.019
 total augmentation occupancy for first ion, spin component:           2
  0.002  -0.001  -0.004  -0.000   0.007  -0.000  -0.000   0.001
 -0.001   0.001   0.001   0.000  -0.004   0.000   0.000  -0.001
 -0.004   0.001  -0.001   0.000   0.002   0.000   0.000  -0.000
 -0.000   0.000   0.000   0.063   0.000   0.000   0.000   0.000
  0.007  -0.004   0.002   0.000  -0.002  -0.000  -0.000   0.000
 -0.000   0.000   0.000   0.000  -0.000   0.000   0.000  -0.000
 -0.000   0.000   0.000   0.000  -0.000   0.000  -0.000   0.000
  0.001  -0.001  -0.000   0.000   0.000  -0.000   0.000   0.000


------------------------ aborting loop because EDIFF is reached ----------------------------------------


    FORLOC:  cpu time      0.3527: real time      0.3527
    FORHF :  cpu time    139.4514: real time    139.4551
    FORNL :  cpu time      4.4067: real time      4.4069
    STRESS:  cpu time     13.5462: real time     13.5466
    FORCOR:  cpu time     16.3345: real time     16.3349
    OFIELD:  cpu time      0.0209: real time      0.0209
 WARNING: Using user supplied parameters
     VDW_A1 = 0.383
     VDW_A2 = 5.685
     VDW_S8 = 2.31
     because the xc functional is not supported. Required parameters not
     defined in the INCAR file will be replaced with PBE defaults ones.


 ---------------------------------------------------------------------------------------------

         DFTD3 V3.0 Rev 1        
 IVDW         = 12
 DF unknown   
 parameters
 VDW_S6       =    1.0000
 VDW_S8       =    2.3100
 VDW_A1       =    0.3830
 VDW_A2       =    5.6850
 k1-k3        =   16.0000    1.3333   -4.0000
 VDW_RADIUS   =   50.2022 A
 VDW_CNRADIUS =   21.1671 A
 Edisp (eV)   -0.37552

 E6    (eV) :    -0.1910
 E8    (eV) :    -0.1846
 % E8        : 49.15
    FORVDW:  cpu time      0.0094: real time      0.0094

  FORCE on cell =-STRESS in cart. coord.  units (eV):
  Direction    XX          YY          ZZ          XY          YZ          ZX
  --------------------------------------------------------------------------------------
  Alpha Z     0.25289     0.25289     0.25289
  Ewald    4911.68783  2103.57554  -507.38161   -24.09971    -0.10124    -0.34410
  Hartree  5033.71261  2677.63039   964.78058   -50.88285    -0.06303    -0.27070
  E(xc)    -179.64422  -180.39600  -182.52591     0.06271    -0.00007    -0.00014
  Local  -10553.17467 -5413.22656 -1188.00708    82.47998     0.16022     0.61075
  n-local   -93.75707   -94.61842   -92.74845    -1.00654     0.00037     0.00044
  augment    10.23649    10.09215    11.76279    -0.20008    -0.00002    -0.00001
  Kinetic   936.48765   962.80510  1059.79186    -6.31474     0.00392     0.00396
  Fock      -73.10176   -71.23192   -66.79080    -0.51075     0.00024     0.00026
  vdW        -0.24976    -0.06570    -0.00134     0.00114     0.00000     0.00002
  -------------------------------------------------------------------------------------
  Total      -7.55001    -5.18254    -0.86708    -0.47084     0.00040     0.00047
  in kB      -0.18901    -0.12974    -0.02171    -0.01179     0.00001     0.00001
  external pressure =       -0.11 kB  Pullay stress =        0.00 kB


 VOLUME and BASIS-vectors are now :
 -----------------------------------------------------------------------------
  energy-cutoff  :      500.00
  volume of cell :    64000.00
      direct lattice vectors                 reciprocal lattice vectors
    40.000000000  0.000000000  0.000000000     0.025000000  0.000000000  0.000000000
     0.000000000 40.000000000  0.000000000     0.000000000  0.025000000  0.000000000
     0.000000000  0.000000000 40.000000000     0.000000000  0.000000000  0.025000000

  length of vectors
    40.000000000 40.000000000 40.000000000     0.025000000  0.025000000  0.025000000


 FORCES acting on ions:
    Electron-Ion                     Ewald-Force                    Non-Local-Force
 -----------------------------------------------------------------------------------------------
   0.334E+01 0.191E+03 -.657E-02   -.389E+01 -.192E+03 0.671E-02   0.704E+00 0.821E+00 -.788E-04
   -.116E+03 0.174E+03 -.338E-02   0.116E+03 -.175E+03 0.370E-02   0.205E+00 0.936E+00 -.615E-03
   -.111E+03 -.676E+01 0.329E-01   0.107E+03 0.641E+01 -.339E-01   0.403E+01 0.316E+00 0.653E-03
   -.912E+02 -.185E+03 0.468E-01   0.907E+02 0.186E+03 -.473E-01   0.345E+00 -.878E+00 0.135E-02
   0.236E+02 -.179E+03 -.142E-02   -.242E+02 0.180E+03 0.212E-02   0.760E+00 -.695E+00 0.506E-04
   0.355E+00 0.903E+01 0.225E-02   0.298E+00 -.889E+01 -.257E-02   -.691E+00 -.174E+00 0.432E-03
   -.214E+01 0.964E+01 -.379E-02   0.799E+01 -.112E+02 0.317E-02   -.589E+01 0.149E+01 0.745E-03
   0.249E+03 -.587E+02 -.759E-02   -.256E+03 0.579E+02 0.803E-02   0.618E+01 0.762E+00 -.334E-04
   -.655E+02 -.451E+01 0.240E-03   0.634E+02 0.436E+01 -.130E-03   0.290E+01 0.213E+00 -.846E-03
   -.325E+03 -.240E+02 -.213E-02   0.362E+03 0.268E+02 0.245E-02   -.357E+02 -.269E+01 -.230E-03
   0.225E+03 0.373E+03 -.973E-02   -.250E+03 -.417E+03 0.104E-01   0.222E+02 0.399E+02 -.584E-03
   0.916E+02 -.275E+03 -.352E-01   -.718E+02 0.312E+03 0.379E-01   -.174E+02 -.326E+02 -.242E-02
   0.618E+02 0.201E+02 0.587E+02   -.636E+02 -.228E+02 -.631E+02   0.181E+01 0.273E+01 0.440E+01
   0.544E+02 -.701E+02 -.313E-01   -.564E+02 0.753E+02 0.337E-01   0.195E+01 -.520E+01 -.246E-02
   0.619E+02 0.201E+02 -.587E+02   -.636E+02 -.228E+02 0.630E+02   0.181E+01 0.273E+01 -.440E+01
   0.243E+02 -.854E+02 0.833E-02   -.275E+02 0.900E+02 -.853E-02   0.321E+01 -.461E+01 0.424E-03
   -.353E+02 -.837E+02 0.766E-02   0.377E+02 0.888E+02 -.806E-02   -.235E+01 -.502E+01 0.177E-03
   -.470E+02 0.780E+02 -.561E-02   0.501E+02 -.826E+02 0.596E-02   -.310E+01 0.460E+01 -.432E-03
   0.159E+02 0.893E+02 -.641E-02   -.185E+02 -.943E+02 0.695E-02   0.255E+01 0.499E+01 -.514E-03
 -----------------------------------------------------------------------------------------------
   0.183E+02 -.856E+01 0.369E-02   0.178E-13 0.114E-12 -.563E-15   -.165E+02 0.770E+01 -.244E-02
 
 
 POSITION                                       TOTAL-FORCE (eV/Angst)
 -----------------------------------------------------------------------------------
     20.67741     18.56499     19.99999         0.224007      0.070677      0.000026
     22.04956     18.66561     19.99991        -0.219177      0.100361     -0.000353
     22.69721     19.94697     19.99972        -0.221713     -0.015958     -0.000246
     21.85768     21.11111     19.99966        -0.195957     -0.141380      0.000876
     20.48517     21.00119     19.99988         0.221717     -0.035392      0.000624
     19.83510     19.72376     20.00000        -0.075249     -0.048657      0.000092
     18.40624     19.55567     20.00015        -0.385454     -0.099773      0.000105
     16.29290     20.66607     20.00027         0.232877     -0.015586      0.000372
     24.09495     20.05579     19.99979         1.153236      0.085101     -0.000796
     25.27470     20.14491     19.99981        -1.443634     -0.105073      0.000005
     17.77751     18.47712     20.00017         0.513488      0.978768     -0.000089
     17.71820     20.77874     20.00026        -0.145167     -0.793191     -0.000127
     15.92893     20.13210     19.10950         0.131667      0.134867      0.212430
     15.91357     21.69518     20.00075         0.088977     -0.248793     -0.000305
     15.92904     20.13134     20.89062         0.131473      0.134871     -0.212374
     19.87418     21.90359     19.99981         0.143257     -0.217896      0.000205
     22.32550     22.09734     19.99961        -0.124058     -0.228481     -0.000262
     22.66408     17.76351     19.99999        -0.153047      0.208316     -0.000138
     20.19807     17.58503     20.00010         0.122758      0.237218     -0.000044
 -----------------------------------------------------------------------------------
    total drift:                                0.009694      0.001324      0.000779


--------------------------------------------------------------------------------------------------------



  FREE ENERGIE OF THE ION-ELECTRON SYSTEM (eV)
  ---------------------------------------------------
  free  energy   TOTEN  =      -152.70573801 eV

  energy  without entropy=     -152.70573801  energy(sigma->0) =     -152.70573801
 


--------------------------------------------------------------------------------------------------------


    --------------------------------------------
      INIT:  cpu time      0.5571: real time      0.5571
  FINALIZE:  cpu time     67.9919: real time     67.9937
    --------------------------------------------
    POTLOK:  cpu time     89.4486: real time     89.4509


--------------------------------------------------------------------------------------------------------


 writing wavefunctions
     LOOP+:  cpu time   5402.0212: real time   5403.9207
    4ORBIT:  cpu time      0.0000: real time      0.0000

 total amount of memory used by VASP MPI-rank0  2162046. kBytes
=======================================================================

   base      :      30000. kBytes
   nonlr-proj:       3658. kBytes
   fftplans  :     175546. kBytes
   grid      :     371484. kBytes
   one-center:         12. kBytes
   HF        :          9. kBytes
   wavefun   :      93591. kBytes
   fock_wrk  :    1487746. kBytes
 
  
  
 General timing and accounting informations for this job:
 ========================================================
  
                  Total CPU time used (sec):     5459.682
                            User time (sec):     3873.270
                          System time (sec):     1586.411
                         Elapsed time (sec):     5462.549
  
                   Maximum memory used (kb):     3533664.
                   Average memory used (kb):          N/A
  
                          Minor page faults:     42541269
                          Major page faults:            2
                 Voluntary context switches:         6981
