 vasp.6.4.2 20Jul23 (build Oct 03 2024 14:39:03) complex                        
  
 executed on             LinuxIFC date 2025.08.28  17:36:18
 running   90 mpi-ranks, on    3 nodes
 distrk:  each k-point on   90 cores,    1 groups
 distr:  one band on NCORE=  30 cores,    3 groups


--------------------------------------------------------------------------------------------------------


 INCAR:
   SYSTEM = 103_red
   ISTART = 1
   ICHARG = 2
   INIWAV = 1
   LHFCALC = .TRUE.
   HFSCREEN = 0.2
   NELM = 500
   ALGO = Damped
   ISPIN = 2
   EDIFF = 1E-05
   ISMEAR = 0
   SIGMA = 0.05
   PREC = accurate
   ENCUT = 500
   LREAL = auto  	
   LDIAG = .FALSE.
   LWAVE = .TRUE.
   LCHARG = .FALSE.
   LAECHG = .FALSE.
   LVHAR = .FALSE.
   LVTOT = .FALSE.
   EDIFFG = -0.02
   IBRION = 2
   NSW = 0
   ISIF = 2
   POTIM = 0.5
   IVDW = 12
   VDW_A1 = 0.383
   VDW_S8 = 2.310
   VDW_A2 = 5.685
   LPLANE = .TRUE.
   NCORE = 30
   LSCALU = .FALSE.
   NSIM = 4
   LSOL = .TRUE.
   EB_K = 35.6880
   LAMBDA_D_K = 3.04
   NELECT = 61
   TAU = 0

 POTCAR:    PAW_PBE C 08Apr2002                   
 POTCAR:    PAW_PBE H 15Jun2001                   
 -----------------------------------------------------------------------------
|                                                                             |
|           W    W    AA    RRRRR   N    N  II  N    N   GGGG   !!!           |
|           W    W   A  A   R    R  NN   N  II  NN   N  G    G  !!!           |
|           W    W  A    A  R    R  N N  N  II  N N  N  G       !!!           |
|           W WW W  AAAAAA  RRRRR   N  N N  II  N  N N  G  GGG   !            |
|           WW  WW  A    A  R   R   N   NN  II  N   NN  G    G                |
|           W    W  A    A  R    R  N    N  II  N    N   GGGG   !!!           |
|                                                                             |
|     You use a magnetic or noncollinear calculation, but did not specify     |
|     the initial magnetic moment with the MAGMOM tag. Note that a            |
|     default of 1 will be used for all atoms. This ferromagnetic setup       |
|     may break the symmetry of the crystal, in particular it may rule        |
|     out finding an antiferromagnetic solution. Thence, we recommend         |
|     setting the initial magnetic moment manually or verifying carefully     |
|     that this magnetic setup is desired.                                    |
|                                                                             |
 -----------------------------------------------------------------------------

 -----------------------------------------------------------------------------
|                                                                             |
|           W    W    AA    RRRRR   N    N  II  N    N   GGGG   !!!           |
|           W    W   A  A   R    R  NN   N  II  NN   N  G    G  !!!           |
|           W    W  A    A  R    R  N N  N  II  N N  N  G       !!!           |
|           W WW W  AAAAAA  RRRRR   N  N N  II  N  N N  G  GGG   !            |
|           WW  WW  A    A  R   R   N   NN  II  N   NN  G    G                |
|           W    W  A    A  R    R  N    N  II  N    N   GGGG   !!!           |
|                                                                             |
|     For optimal performance we recommend to set                             |
|       NCORE = 2 up to number-of-cores-per-socket                            |
|     NCORE specifies how many cores store one orbital (NPAR=cpu/NCORE).      |
|     This setting can greatly improve the performance of VASP for DFT.       |
|     The default, NCORE=1 might be grossly inefficient on modern             |
|     multi-core architectures or massively parallel machines. Do your        |
|     own testing! More info at https://www.vasp.at/wiki/index.php/NCORE      |
|     Unfortunately you need to use the default for GW and RPA                |
|     calculations (for HF NCORE is supported but not extensively tested      |
|     yet).                                                                   |
|                                                                             |
 -----------------------------------------------------------------------------

 POTCAR:    PAW_PBE C 08Apr2002                   
   SHA256 =  253f7b50bb8d59471dbedb8285d89021f4a42ed1a2c5d38a03a736e69125dd95 C/POTCAR              
   COPYR  = (c) Copyright 08Apr2002 Georg Kresse                                                    
   COPYR  = This file is part of the software VASP. Any use, copying, and all other rights are regul
   COPYR  = If you do not have a valid VASP license, you may not use, copy or distribute this file. 
   VRHFIN =C: s2p2                                                                                  
   LEXCH  = PE                                                                                      
   EATOM  =   147.1560 eV,   10.8157 Ry                                                             
                                                                                                    
   TITEL  = PAW_PBE C 08Apr2002                                                                     
   LULTRA =        F    use ultrasoft PP ?                                                          
   IUNSCR =        1    unscreen: 0-lin 1-nonlin 2-no                                               
   RPACOR =    1.200    partial core radius                                                         
   POMASS =   12.011; ZVAL   =    4.000    mass and valenz                                          
   RCORE  =    1.500    outmost cutoff radius                                                       
   RWIGS  =    1.630; RWIGS  =    0.863    wigner-seitz radius (au A)                               
   ENMAX  =  400.000; ENMIN  =  300.000 eV                                                          
   ICORE  =        2    local potential                                                             
   LCOR   =        T    correct aug charges                                                         
   LPAW   =        T    paw PP                                                                      
   EAUG   =  644.873                                                                                
   DEXC   =    0.000                                                                                
   RMAX   =    1.529    core radius for proj-oper                                                   
   RAUG   =    1.300    factor for augmentation sphere                                              
   RDEP   =    1.501    radius for radial grids                                                     
   RDEPT  =    1.300    core radius for aug-charge                                                  
                                                                                                    
   Atomic configuration                                                                             
    4 entries                                                                                       
     n  l   j            E        occ.                                                              
     1  0  0.50      -273.3789   2.0000                                                             
     2  0  0.50       -13.7508   2.0000                                                             
     2  1  0.50        -5.2854   2.0000                                                             
     3  2  1.50        -5.4423   0.0000                                                             
   Description                                                                                      
     l       E           TYP  RCUT    TYP  RCUT                                                     
     0    -13.7508458     23  1.200                                                                 
     0     -8.2022199     23  1.200                                                                 
     1     -5.2854383     23  1.500                                                                 
     1     34.0145650     23  1.500                                                                 
     2     -5.4423304      7  1.500                                                                 
  local pseudopotential read in
  partial core-charges read in
  partial kinetic energy density read in
  atomic valenz-charges read in
  non local Contribution for L=           0  read in
    real space projection operators read in
  non local Contribution for L=           0  read in
    real space projection operators read in
  non local Contribution for L=           1  read in
    real space projection operators read in
  non local Contribution for L=           1  read in
    real space projection operators read in
    PAW grid and wavefunctions read in
 
   number of l-projection  operators is LMAX  =           4
   number of lm-projection operators is LMMAX =           8
 
 POTCAR:    PAW_PBE H 15Jun2001                   
   SHA256 =  030f79b5d3ab3cf0e668861823c8fb652ff669f3e15e46930bd03bfd63a607b6 H/POTCAR              
   COPYR  = (c) Copyright 15Jun2001 Georg Kresse                                                    
   COPYR  = This file is part of the software VASP. Any use, copying, and all other rights are regul
   COPYR  = If you do not have a valid VASP license, you may not use, copy or distribute this file. 
   VRHFIN =H: ultrasoft test                                                                        
   LEXCH  = PE                                                                                      
   EATOM  =    12.4884 eV,    0.9179 Ry                                                             
                                                                                                    
   TITEL  = PAW_PBE H 15Jun2001                                                                     
   LULTRA =        F    use ultrasoft PP ?                                                          
   IUNSCR =        0    unscreen: 0-lin 1-nonlin 2-no                                               
   RPACOR =    0.000    partial core radius                                                         
   POMASS =    1.000; ZVAL   =    1.000    mass and valenz                                          
   RCORE  =    1.100    outmost cutoff radius                                                       
   RWIGS  =    0.700; RWIGS  =    0.370    wigner-seitz radius (au A)                               
   ENMAX  =  250.000; ENMIN  =  200.000 eV                                                          
   RCLOC  =    0.701    cutoff for local pot                                                        
   LCOR   =        T    correct aug charges                                                         
   LPAW   =        T    paw PP                                                                      
   EAUG   =  400.000                                                                                
   RMAX   =    1.123    core radius for proj-oper                                                   
   RAUG   =    1.200    factor for augmentation sphere                                              
   RDEP   =    1.112    radius for radial grids                                                     
   RDEPT  =    0.926    core radius for aug-charge                                                  
                                                                                                    
   Atomic configuration                                                                             
    2 entries                                                                                       
     n  l   j            E        occ.                                                              
     1  0  0.50        -6.4927   1.0000                                                             
     2  1  0.50        -3.4015   0.0000                                                             
   Description                                                                                      
     l       E           TYP  RCUT    TYP  RCUT                                                     
     0     -6.4927494     23  1.100                                                                 
     0      6.8029130     23  1.100                                                                 
     1     -4.0817478     23  1.100                                                                 
  local pseudopotential read in
  atomic valenz-charges read in
  non local Contribution for L=           0  read in
    real space projection operators read in
  non local Contribution for L=           0  read in
    real space projection operators read in
  non local Contribution for L=           1  read in
    real space projection operators read in
    PAW grid and wavefunctions read in
 
   number of l-projection  operators is LMAX  =           3
   number of lm-projection operators is LMMAX =           5
 
 Optimization of the real space projectors (new method)

 maximal supplied QI-value         = 25.13
 optimisation between [QCUT,QGAM] = [ 11.31, 22.87] = [ 35.82,146.48] Ry 
 Optimized for a Real-space Cutoff    1.03 Angstroem

   l    n(q)    QCUT    max X(q) W(low)/X(q) W(high)/X(q)  e(spline) 
   0      7    11.310   115.676    0.20E-03    0.90E-03    0.20E-06
   0      7    11.310    87.132    0.20E-03    0.89E-03    0.19E-06
   1      6    11.310     4.429    0.16E-03    0.28E-03    0.12E-06
   1      6    11.310     2.733    0.12E-03    0.21E-03    0.99E-07
 Optimization of the real space projectors (new method)

 maximal supplied QI-value         = 34.20
 optimisation between [QCUT,QGAM] = [ 11.29, 22.57] = [ 35.68,142.71] Ry 
 Optimized for a Real-space Cutoff    1.20 Angstroem

   l    n(q)    QCUT    max X(q) W(low)/X(q) W(high)/X(q)  e(spline) 
   0      8    11.287    19.460    0.22E-03    0.50E-03    0.19E-06
   0      8    11.287    12.209    0.21E-03    0.48E-03    0.18E-06
   1      8    11.287     4.655    0.21E-03    0.11E-04    0.26E-06
  PAW_PBE C 08Apr2002                   :
 energy of atom  1       EATOM= -147.1560
 kinetic energy error for atom=    0.0076 (will be added to EATOM!!)
  PAW_PBE H 15Jun2001                   :
 energy of atom  2       EATOM=  -12.4884
 kinetic energy error for atom=    0.0020 (will be added to EATOM!!)
 
 
 POSCAR: C H
  positions in direct lattice
  velocities in cartesian coordinates
 exchange correlation table for  LEXCH =        8
   RHO(1)=    0.500       N(1)  =     2000
   RHO(2)=  100.500       N(2)  =     4000
 


--------------------------------------------------------------------------------------------------------


 ion  position               nearest neighbor table
   1  0.512  0.467  0.500-  26 1.09   6 1.37   2 1.43
   2  0.535  0.494  0.500-   3 1.43   1 1.43  10 1.43
   3  0.522  0.528  0.500-  20 1.09   4 1.37   2 1.43
   4  0.488  0.533  0.500-  19 1.09   3 1.37   5 1.43
   5  0.465  0.506  0.500-   6 1.43   4 1.43   7 1.43
   6  0.478  0.472  0.500-  13 1.09   1 1.37   5 1.43
   7  0.430  0.513  0.500-  18 1.09   8 1.37   5 1.43
   8  0.404  0.491  0.500-  17 1.09   7 1.37   9 1.48
   9  0.369  0.500  0.500-  15 1.10  14 1.10  16 1.10   8 1.48
  10  0.570  0.487  0.500-  25 1.09  11 1.37   2 1.43
  11  0.596  0.509  0.500-  24 1.09  10 1.37  12 1.48
  12  0.631  0.500  0.500-  23 1.10  22 1.10  21 1.10  11 1.48
  13  0.461  0.451  0.500-   6 1.09
  14  0.356  0.489  0.478-   9 1.10
  15  0.365  0.527  0.500-   9 1.10
  16  0.356  0.489  0.522-   9 1.10
  17  0.410  0.464  0.500-   8 1.09
  18  0.423  0.540  0.500-   7 1.09
  19  0.478  0.558  0.500-   4 1.09
  20  0.539  0.549  0.500-   3 1.09
  21  0.644  0.511  0.522-  12 1.10
  22  0.644  0.511  0.478-  12 1.10
  23  0.635  0.473  0.500-  12 1.10
  24  0.590  0.536  0.500-  11 1.09
  25  0.577  0.460  0.500-  10 1.09
  26  0.522  0.442  0.500-   1 1.09
 
  LATTYP: Found a simple cubic cell.
 ALAT       =    40.0000000000
  
  Lattice vectors:
  
 A1 = (  40.0000000000,   0.0000000000,   0.0000000000)
 A2 = (   0.0000000000,  40.0000000000,   0.0000000000)
 A3 = (   0.0000000000,   0.0000000000,  40.0000000000)


Analysis of symmetry for initial positions (statically):
=====================================================================
 Subroutine PRICEL returns:
 Original cell was already a primitive cell.
 

 Routine SETGRP: Setting up the symmetry group for a 
 simple cubic supercell.


 Subroutine GETGRP returns: Found  1 space group operations
 (whereof  1 operations were pure point group operations)
 out of a pool of 48 trial point group operations.


The static configuration has the point symmetry C_1 .


Analysis of symmetry for dynamics (positions and initial velocities):
=====================================================================
 Subroutine PRICEL returns:
 Original cell was already a primitive cell.
 

 Routine SETGRP: Setting up the symmetry group for a 
 simple cubic supercell.


 Subroutine GETGRP returns: Found  1 space group operations
 (whereof  1 operations were pure point group operations)
 out of a pool of 48 trial point group operations.


The dynamic configuration has the point symmetry C_1 .


Analysis of constrained symmetry for selective dynamics:
=====================================================================
 Subroutine PRICEL returns:
 Original cell was already a primitive cell.
 

 Routine SETGRP: Setting up the symmetry group for a 
 simple cubic supercell.


 Subroutine GETGRP returns: Found  1 space group operations
 (whereof  1 operations were pure point group operations)
 out of a pool of 48 trial point group operations.


The constrained configuration has the point symmetry C_1 .


Analysis of structural, dynamic, and magnetic symmetry:
=====================================================================
 Subroutine PRICEL returns:
 Original cell was already a primitive cell.
 

 Routine SETGRP: Setting up the symmetry group for a 
 simple cubic supercell.


 Subroutine GETGRP returns: Found  1 space group operations
 (whereof  1 operations were pure point group operations)
 out of a pool of 48 trial point group operations.


The overall configuration has the point symmetry C_1 .


 Subroutine INISYM returns: Found  1 space group operations
 (whereof  1 operations are pure point group operations),
 and found     1 'primitive' translations


----------------------------------------------------------------------------------------

                                     Primitive cell                                     

  volume of cell :   64000.0000

  direct lattice vectors                    reciprocal lattice vectors
    40.000000000  0.000000000  0.000000000     0.025000000  0.000000000  0.000000000
     0.000000000 40.000000000  0.000000000     0.000000000  0.025000000  0.000000000
     0.000000000  0.000000000 40.000000000     0.000000000  0.000000000  0.025000000

  length of vectors
    40.000000000 40.000000000 40.000000000     0.025000000  0.025000000  0.025000000

  position of ions in fractional coordinates (direct lattice)
     0.511926580  0.467127772  0.499995438
     0.535082352  0.494327993  0.499997894
     0.522007489  0.527559884  0.499995146
     0.488073115  0.532871080  0.499987513
     0.464917198  0.505671634  0.499993388
     0.477992685  0.472440167  0.499994899
     0.429933461  0.513302870  0.499987506
     0.404186426  0.490660949  0.500007807
     0.368529335  0.500233316  0.500008532
     0.570066211  0.486696660  0.500001130
     0.595813189  0.509339859  0.500003519
     0.631470764  0.499767463  0.500006761
     0.461163532  0.451040200  0.499991162
     0.355787395  0.489165531  0.478178781
     0.364800322  0.527397464  0.499986203
     0.355803530  0.489205091  0.521869384
     0.409681737  0.463886200  0.500024588
     0.423471099  0.539881153  0.499968410
     0.478233698  0.558298063  0.499982102
     0.538836264  0.548959440  0.499992378
     0.644203048  0.510818966  0.521851768
     0.644206398  0.510811316  0.478161439
     0.635200157  0.472603871  0.500011918
     0.590317860  0.536114804  0.499999092
     0.576528976  0.460118631  0.500004196
     0.521767180  0.441700621  0.499998044

  ion indices of the primitive-cell ions
   primitive index   ion index
                 1           1
                 2           2
                 3           3
                 4           4
                 5           5
                 6           6
                 7           7
                 8           8
                 9           9
                10          10
                11          11
                12          12
                13          13
                14          14
                15          15
                16          16
                17          17
                18          18
                19          19
                20          20
                21          21
                22          22
                23          23
                24          24
                25          25
                26          26

----------------------------------------------------------------------------------------

 
 
 KPOINTS: K-Point Grid                            

Automatic generation of k-mesh.
 Grid dimensions read from file:
 generate k-points for:    1    1    1

 Generating k-lattice:

  Cartesian coordinates                     Fractional coordinates (reciprocal lattice)
     0.025000000  0.000000000  0.000000000     1.000000000  0.000000000  0.000000000
     0.000000000  0.025000000  0.000000000     0.000000000  1.000000000  0.000000000
     0.000000000  0.000000000  0.025000000     0.000000000  0.000000000  1.000000000

  Length of vectors
     0.025000000  0.025000000  0.025000000

  Shift w.r.t. Gamma in fractional coordinates (k-lattice)
     0.000000000  0.000000000  0.000000000

 
 Subroutine IBZKPT returns following result:
 ===========================================
 
 Found      1 irreducible k-points:
 
 Following reciprocal coordinates:
            Coordinates               Weight
  0.000000  0.000000  0.000000      1.000000
 
 Following cartesian coordinates:
            Coordinates               Weight
  0.000000  0.000000  0.000000      1.000000
 
 
 Subroutine IBZKPT_HF returns following result:
 ==============================================
 
 Found      1 k-points in 1st BZ
 the following      1 k-points will be used (e.g. in the exchange kernel)
 Following reciprocal coordinates:   # in IRBZ
  0.000000  0.000000  0.000000    1.00000000   1 t-inv F


--------------------------------------------------------------------------------------------------------




 Dimension of arrays:
   k-points           NKPTS =      1   k-points in BZ     NKDIM =      1   number of bands    NBANDS=     57
   number of dos      NEDOS =    301   number of ions     NIONS =     26
   non local maximal  LDIM  =      4   non local SUM 2l+1 LMDIM =      8
   total plane-waves  NPLWV = ******
   max r-space proj   IRMAX =   2915   max aug-charges    IRDMAX=   4885
   dimension x,y,z NGX =   294 NGY =  294 NGZ =  294
   dimension x,y,z NGXF=   588 NGYF=  588 NGZF=  588
   support grid    NGXF=   588 NGYF=  588 NGZF=  588
   ions per type =              12  14
   NGX,Y,Z   is equivalent  to a cutoff of  12.22, 12.22, 12.22 a.u.
   NGXF,Y,Z  is equivalent  to a cutoff of  24.44, 24.44, 24.44 a.u.

 SYSTEM =  103_red                                 
 POSCAR =  C H                                     

 Startparameter for this run:
   NWRITE =      2    write-flag & timer
   PREC   = accura    normal or accurate (medium, high low for compatibility)
   ISTART =      1    job   : 0-new  1-cont  2-samecut
   ICHARG =      2    charge: 1-file 2-atom 10-const
   ISPIN  =      2    spin polarized calculation?
   LNONCOLLINEAR =      F non collinear calculations
   LSORBIT =      F    spin-orbit coupling
   INIWAV =      1    electr: 0-lowe 1-rand  2-diag
   LASPH  =      F    aspherical Exc in radial PAW
 Electronic Relaxation 1
   ENCUT  =  500.0 eV  36.75 Ry    6.06 a.u.  72.93 72.93 72.93*2*pi/ulx,y,z
   ENINI  =  500.0     initial cutoff
   ENAUG  =  644.9 eV  augmentation charge cutoff
   NELM   =    500;   NELMIN=  2; NELMDL=  0     # of ELM steps 
   EDIFF  = 0.1E-04   stopping-criterion for ELM
   LREAL  =      T    real-space projection
   NLSPLINE    = F    spline interpolate recip. space projectors
   LCOMPAT=      F    compatible to vasp.4.4
   GGA_COMPAT  = T    GGA compatible to vasp.4.4-vasp.4.6
   LMAXPAW     = -100 max onsite density
   LMAXMIX     =    2 max onsite mixed and CHGCAR
   VOSKOWN=      0    Vosko Wilk Nusair interpolation
   ROPT   =   -0.00025  -0.00025
 Ionic relaxation
   EDIFFG = -.2E-01   stopping-criterion for IOM
   NSW    =      0    number of steps for IOM
   NBLOCK =      1;   KBLOCK =      1    inner block; outer block 
   IBRION =     -1    ionic relax: 0-MD 1-quasi-New 2-CG
   NFREE  =      1    steps in history (QN), initial steepest desc. (CG)
   ISIF   =      2    stress and relaxation
   IWAVPR =     10    prediction:  0-non 1-charg 2-wave 3-comb
   ISYM   =      3    0-nonsym 1-usesym 2-fastsym
   LCORR  =      T    Harris-Foulkes like correction to forces

   POTIM  = 0.5000    time-step for ionic-motion
   TEIN   =    0.0    initial temperature
   TEBEG  =    0.0;   TEEND  =   0.0 temperature during run
   SMASS  =  -3.00    Nose mass-parameter (am)
   estimated Nose-frequenzy (Omega)   =  0.10E-29 period in steps = 0.13E+47 mass=  -0.366E-25a.u.
   SCALEE = 1.0000    scale energy and forces
   NPACO  =    256;   APACO  = 10.0  distance and # of slots for P.C.
   PSTRESS=    0.0 pullay stress

  Mass of Ions in am
   POMASS =  12.01  1.00
  Ionic Valenz
   ZVAL   =   4.00  1.00
  Atomic Wigner-Seitz radii
   RWIGS  =  -1.00 -1.00
  virtual crystal weights 
   VCA    =   1.00  1.00
   NELECT =      61.0000    total number of electrons
   NUPDOWN=      -1.0000    fix difference up-down

 DOS related values:
   EMIN   =  10.00;   EMAX   =-10.00  energy-range for DOS
   EFERMI =   0.00;   METHOD = LEGACY      
   ISMEAR =     0;   SIGMA  =   0.05  broadening in eV -4-tet -1-fermi 0-gaus

 Electronic relaxation 2 (details)
   IALGO  =     53    algorithm
   LDIAG  =      F    sub-space diagonalisation (order eigenvalues)
   LSUBROT=      F    optimize rotation matrix (better conditioning)
   TURBO    =      0    0=normal 1=particle mesh
   IRESTART =      0    0=no restart 2=restart with 2 vectors
   NREBOOT  =      0    no. of reboots
   NMIN     =      0    reboot dimension
   EREF     =   0.00    reference energy to select bands
   IMIX   =      4    mixing-type and parameters
     AMIX     =   0.40;   BMIX     =  1.00
     AMIX_MAG =   1.60;   BMIX_MAG =  1.00
     AMIN     =   0.10
     WC   =   100.;   INIMIX=   1;  MIXPRE=   1;  MAXMIX= -45

 Intra band minimization:
   WEIMIN = 0.0000     energy-eigenvalue tresh-hold
   EBREAK =  0.44E-07  absolut break condition
   DEPER  =   0.30     relativ break condition  

   TIME   =   0.40     timestep for ELM

  volume/ion in A,a.u.               =    2461.54     16611.28
  Fermi-wavevector in a.u.,A,eV,Ry     =   0.161111  0.304455  0.353162  0.025957
  Thomas-Fermi vector in A             =   0.855887
 
 Write flags
   LWAVE        =      T    write WAVECAR
   LDOWNSAMPLE  =      F    k-point downsampling of WAVECAR
   LCHARG       =      F    write CHGCAR
   LVTOT        =      F    write LOCPOT, total local potential
   LVHAR        =      F    write LOCPOT, Hartree potential only
   LELF         =      F    write electronic localiz. function (ELF)
   LORBIT       =      0    0 simple, 1 ext, 2 COOP (PROOUT), +10 PAW based schemes


 Dipole corrections
   LMONO  =      F    monopole corrections only (constant potential shift)
   LDIPOL =      F    correct potential (dipole corrections)
   IDIPOL =      0    1-x, 2-y, 3-z, 4-all directions 
   EPSILON=  1.0000000 bulk dielectric constant

 Exchange correlation treatment:
   GGA     =    --    GGA type
   LEXCH   =     8    internal setting for exchange type
   LIBXC   =     F    Libxc                    
   VOSKOWN =     0    Vosko Wilk Nusair interpolation
   EXXOEP  =     0    0=HF, 1=EXX-LHF (local Hartree Fock) 2=EXX OEP
   LHFCALC =     T    Hartree Fock is set to
   LSYMGRAD=     F    symmetrize gradient (conserves proper symmetry)
   PRECFOCK=normal    Normal, Fast or Accurate (Low or Medium for compatibility)
   LRHFCALC=     F    long range Hartree Fock
   LRSCOR  =     F    long range correlation only (use DFT for short range part)
   LTHOMAS =     F    Thomas Fermi screening in HF
   LMODELHF=     F    short range full HF, long range fraction AEXX
   FOCKCORR=     1    mode to apply convergence corrections
   LFOCKACE=     T    use Adeptively-Compressed-Exchange operator
   ENCUT4O =  -1.0   cutoff for four orbital integrals eV
   LMAXFOCK=     4    L truncation for augmentation on plane wave grid
   LMAXFOCKAE=  -1    L truncation for all-electron charge restoration on plane wave grid
   NMAXFOCKAE=   1    number of basis functions for all-electron charge restoration
   LFOCKAEDFT=     F  apply the AE augmentation even for DFT
   NKREDX  =     1    reduce k-point grid by
   NKREDY  =     1    reduce k-point grid by
   NKREDZ  =     1    reduce k-point grid by
   SHIFTRED=     F    shift reduced grid of Gamma
   HFKIDENT=     F    idential grid for each k-point
   ODDONLY =     F    use only odd q-grid points
   EVENONLY=     F    use only even q-grid points
   HFALPHA =   -1.0000 decay constant for conv. correction
   MCALPHA =    0.0000 extent of test-charge in conv. correction in multipole expansion
   AEXX    =    0.2500 exact exchange contribution
   HFSCREEN=    0.2000 screening length (either q_TF or 0.3 A-1)
   HFSCREENC=   0.2000 screening length for correlation (either q_TF or 0.3 A-1)
   HFRCUT  =    0.0000 spherical cutoff for potential kernel
   ALDAX   =    0.7500 LDA exchange part
   AGGAX   =    0.7500 GGA exchange part
   ALDAC   =    1.0000 LDA correlation
   AGGAC   =    1.0000 GGA correlation
   ENCUTFOCK=  -1.0 apply spherical cutoff to Coloumb kernel
   NBANDSGWLOW=     1    first orbital included in HF term
   NBLOCK_FOCK=    64    blocking factor in FOCK_ACC

 Linear response parameters
   LEPSILON=     F    determine dielectric tensor
   LRPA    =     F    only Hartree local field effects (RPA)
   LNABLA  =     F    use nabla operator in PAW spheres
   LVEL    =     F    velocity operator in full k-point grid
   CSHIFT  =0.1000    complex shift for real part using Kramers Kronig
   OMEGAMAX=  -1.0    maximum frequency
   DEG_THRESHOLD= 0.2000000E-02 threshold for treating states as degnerate
   RTIME   =   -0.100 relaxation time in fs
  (WPLASMAI=    0.000 imaginary part of plasma frequency in eV, 0.658/RTIME)
   DFIELD  = 0.0000000 0.0000000 0.0000000 field for delta impulse in time
 
  Optional k-point grid parameters
   LKPOINTS_OPT  =     F    use optional k-point grid
   KPOINTS_OPT_MODE=     1    mode for optional k-point grid
 
 Orbital magnetization related:
   ORBITALMAG=     F  switch on orbital magnetization
   LCHIMAG   =     F  perturbation theory with respect to B field
   DQ        =  0.001000  dq finite difference perturbation B field
   LLRAUG    =     F  two centre corrections for induced B field
   LBONE     =     F  B-component reconstruction in AE one-centre
   LVGVCALC  =     T  calculate vGv susceptibility
   LVGVAPPL  =     F  apply vGv susceptibility instead of pGv for G=0

 Random number generation:
   RANDOM_GENERATOR = DEFAULT
   PCG_SEED         = not used
 Solvation model:
   LSOL    =     T         switch on solvation model
   EB_K    = 35.688000     relative permittivity of the bulk solvent
   SIGMA_K =  0.600000     width of the dielectric cavity
   NC_K    =  0.002500     cutoff charge density
   TAU     =  0.000000     cavity surface tension
   LAMBDA_D_K    =  3.040000     Debye length in Angstroms
   LRHOB     =     F     write boundcharge  density
   LRHOION     =     F     write ioniccharge density



--------------------------------------------------------------------------------------------------------


 Static calculation
 charge density and potential will be updated during run
 spin polarized calculation
 Conjugate gradient for all bands (Kresse, et al. variant)
 perform Loewdin sub-space diagonalisation
    ordering is kept fixed
    before iterative eigenvector-optimisation
 modified Broyden-mixing scheme, WC =      100.0
 initial mixing is a Kerker type mixing with AMIX =  0.4000 and BMIX =      1.0000
 Hartree-type preconditioning will be used
 using additional bands           26
 real space projection scheme for non local part
 use partial core corrections
 no Harris-corrections to forces 
 use gradient corrections 
 use of overlap-Matrix (Vanderbilt PP)
 Gauss-broadening in eV      SIGMA  =   0.05


--------------------------------------------------------------------------------------------------------


  energy-cutoff  :      500.00
  volume of cell :    64000.00
      direct lattice vectors                 reciprocal lattice vectors
    40.000000000  0.000000000  0.000000000     0.025000000  0.000000000  0.000000000
     0.000000000 40.000000000  0.000000000     0.000000000  0.025000000  0.000000000
     0.000000000  0.000000000 40.000000000     0.000000000  0.000000000  0.025000000

  length of vectors
    40.000000000 40.000000000 40.000000000     0.025000000  0.025000000  0.025000000


 
 old parameters found on file WAVECAR:
  energy-cutoff  :      500.00
  volume of cell :    64000.00
      direct lattice vectors                 reciprocal lattice vectors
    40.000000000  0.000000000  0.000000000     0.025000000  0.000000000  0.000000000
     0.000000000 40.000000000  0.000000000     0.000000000  0.025000000  0.000000000
     0.000000000  0.000000000 40.000000000     0.000000000  0.000000000  0.025000000

  length of vectors

 
 k-points in units of 2pi/SCALE and weight: K-Point Grid                            
   0.00000000  0.00000000  0.00000000       1.000
 
 k-points in reciprocal lattice and weights: K-Point Grid                            
   0.00000000  0.00000000  0.00000000       1.000
 
 position of ions in fractional coordinates (direct lattice) 
   0.51192658  0.46712777  0.49999544
   0.53508235  0.49432799  0.49999789
   0.52200749  0.52755988  0.49999515
   0.48807311  0.53287108  0.49998751
   0.46491720  0.50567163  0.49999339
   0.47799268  0.47244017  0.49999490
   0.42993346  0.51330287  0.49998751
   0.40418643  0.49066095  0.50000781
   0.36852934  0.50023332  0.50000853
   0.57006621  0.48669666  0.50000113
   0.59581319  0.50933986  0.50000352
   0.63147076  0.49976746  0.50000676
   0.46116353  0.45104020  0.49999116
   0.35578740  0.48916553  0.47817878
   0.36480032  0.52739746  0.49998620
   0.35580353  0.48920509  0.52186938
   0.40968174  0.46388620  0.50002459
   0.42347110  0.53988115  0.49996841
   0.47823370  0.55829806  0.49998210
   0.53883626  0.54895944  0.49999238
   0.64420305  0.51081897  0.52185177
   0.64420640  0.51081132  0.47816144
   0.63520016  0.47260387  0.50001192
   0.59031786  0.53611480  0.49999909
   0.57652898  0.46011863  0.50000420
   0.52176718  0.44170062  0.49999804
 
 position of ions in cartesian coordinates  (Angst):
  20.47706320 18.68511088 19.99981751
  21.40329408 19.77311973 19.99991575
  20.88029956 21.10239538 19.99980585
  19.52292459 21.31484322 19.99950051
  18.59668793 20.22686537 19.99973553
  19.11970739 18.89760668 19.99979598
  17.19733845 20.53211479 19.99950024
  16.16745704 19.62643795 20.00031228
  14.74117340 20.00933265 20.00034128
  22.80264843 19.46786640 20.00004522
  23.83252754 20.37359437 20.00014078
  25.25883054 19.99069854 20.00027043
  18.44654130 18.04160799 19.99964649
  14.23149582 19.56662124 19.12715124
  14.59201287 21.09589855 19.99944813
  14.23214120 19.56820364 20.87477537
  16.38726947 18.55544799 20.00098350
  16.93884398 21.59524613 19.99873642
  19.12934791 22.33192254 19.99928408
  21.55345058 21.95837759 19.99969513
  25.76812190 20.43275865 20.87407074
  25.76825593 20.43245265 19.12645757
  25.40800628 18.90415485 20.00047671
  23.61271440 21.44459217 19.99996367
  23.06115903 18.40474523 20.00016782
  20.87068718 17.66802482 19.99992178
 


--------------------------------------------------------------------------------------------------------


 k-point   1 :   0.0000 0.0000 0.0000  plane waves: 1624525

 maximum and minimum number of plane-waves per node :     54169    54136

 maximum number of plane-waves:   1624525
 maximum index in each direction: 
   IXMAX=   72   IYMAX=   72   IZMAX=   72
   IXMIN=  -72   IYMIN=  -72   IZMIN=  -72


 real space projection operators:
  total allocation   :       2860.33 KBytes
  max/ min on nodes  :        109.77         71.52


 parallel 3D FFT for wavefunctions:
    minimum data exchange during FFTs selected (reduces bandwidth)
 parallel 3D FFT for charge:
    minimum data exchange during FFTs selected (reduces bandwidth)


 FFT grid for exact exchange (Hartree Fock) 
  NGX =224; NGY =224; NGZ =224

 
 Radii for the augmentation spheres in the non-local exchange
 for species   1 augmentation radius   0.874 (default was   0.699)
       energy cutoff for augmentation   2000.0
 for species   2 augmentation radius   0.650 (default was   0.520)
       energy cutoff for augmentation   2000.0

 real space projection operators:
  total allocation   :        610.24 KBytes
  max/ min on nodes  :         30.38         12.66

 Maximum index for augmentation-charges in exchange           76
  SETUP_FOCK is finished

 total amount of memory used by VASP MPI-rank0   523005. kBytes
=======================================================================

   base      :      30000. kBytes
   nonlr-proj:       1622. kBytes
   fftplans  :     129164. kBytes
   grid      :     263386. kBytes
   one-center:          6. kBytes
   HF        :          4. kBytes
   wavefun   :      98823. kBytes
 
     INWAV:  cpu time      5.3694: real time      6.7155
 Broyden mixing: mesh for mixing (old mesh)
   NGX =145   NGY =145   NGZ =145
  (NGX  =588   NGY  =588   NGZ  =588)
  gives a total of ****** points

 initial charge density was supplied:
 charge density of overlapping atoms calculated
 number of electron      62.0000000 magnetization      26.0000000
 charge density for first step will be calculated from the start-wavefunctions


--------------------------------------------------------------------------------------------------------


 Maximum index for non-local projection operator          238
 Maximum index for augmentation-charges          294 (set IRDMAX)


--------------------------------------------------------------------------------------------------------


 initial charge from wavefunction
 First call to EWALD:  gamma=   0.044
 Maximum number of real-space cells 3x 3x 3
 Maximum number of reciprocal cells 3x 3x 3

    FEWALD:  cpu time      0.0094: real time      0.0094


--------------------------------------- Ionic step        1  -------------------------------------------




--------------------------------------- Iteration      1(   1)  ---------------------------------------


    POTLOK:  cpu time     89.3150: real time     89.5743
    SETDIJ:  cpu time      0.0346: real time      0.0346
    TRIAL :  cpu time     64.5188: real time     65.7658
    CORREC:  cpu time      0.0030: real time      0.0031
    CHARGE:  cpu time      1.0063: real time      1.2779
    --------------------------------------------
      LOOP:  cpu time    154.9222: real time    156.7011

 eigenvalue-minimisations  :     0
 total energy-change (2. order) :-0.1778625E+03  (-0.1500168E+00)
 number of electron      60.9999995 magnetization       1.0000002
 augmentation part        1.4035589 magnetization       0.0529557

 Free energy of the ion-electron system (eV)
  ---------------------------------------------------
  alpha Z        PSCENC =         0.27177942
  Ewald energy   TEWEN  =      6495.04748622
  -Hartree energ DENC   =     -7848.85475443
  -exchange      EXHF   =       132.57871932
  -V(xc)+E(xc)   XCENC  =       153.98668592
  PAW double counting   =      5085.47502976    -5091.28635261
  entropy T*S    EENTRO =        -0.00000000
  eigenvalues    EBANDS =      -866.07632357
  atomic energy  EATOM  =      1912.56957895
  ---------------------------------------------------
  free energy    TOTEN  =      -177.86252918 eV

  energy without entropy =     -177.86252918  energy(sigma->0) =     -177.86252918
  exchange ACFDT corr.  =        -0.00000000  see jH, gK, PRB 81, 115126


--------------------------------------------------------------------------------------------------------




--------------------------------------- Iteration      1(   2)  ---------------------------------------


    POTLOK:  cpu time     77.4564: real time     77.9266
    SETDIJ:  cpu time      0.0650: real time      0.0651
    TRIAL :  cpu time     63.4464: real time     64.5537
    CORREC:  cpu time      0.0023: real time      0.0023
    CHARGE:  cpu time      1.0843: real time      1.2851
    --------------------------------------------
      LOOP:  cpu time    142.0609: real time    143.8486

 eigenvalue-minimisations  :     0
 total energy-change (2. order) :-0.1138678E+00  (-0.7883856E-01)
 number of electron      60.9999995 magnetization       1.0000002
 augmentation part        1.3951076 magnetization       0.0527717

 Free energy of the ion-electron system (eV)
  ---------------------------------------------------
  alpha Z        PSCENC =         0.27177942
  Ewald energy   TEWEN  =      6495.04748622
  -Hartree energ DENC   =     -7847.12197747
  -exchange      EXHF   =       132.63447397
  -V(xc)+E(xc)   XCENC  =       153.94010364
  PAW double counting   =      5210.73912194    -5216.48691557
  entropy T*S    EENTRO =        -0.00000000
  eigenvalues    EBANDS =      -868.27620599
  atomic energy  EATOM  =      1912.56957895
  ---------------------------------------------------
  free energy    TOTEN  =      -177.97639698 eV

  energy without entropy =     -177.97639698  energy(sigma->0) =     -177.97639698
  exchange ACFDT corr.  =        -0.00000000  see jH, gK, PRB 81, 115126


--------------------------------------------------------------------------------------------------------




--------------------------------------- Iteration      1(   3)  ---------------------------------------


    POTLOK:  cpu time     76.5871: real time     77.0495
    SETDIJ:  cpu time      0.0338: real time      0.0339
    TRIAL :  cpu time     63.5242: real time     64.5642
    CORREC:  cpu time      0.0038: real time      0.0038
    CHARGE:  cpu time      1.2628: real time      1.2677
    --------------------------------------------
      LOOP:  cpu time    141.4169: real time    142.9314

 eigenvalue-minimisations  :     0
 total energy-change (2. order) :-0.5436637E-01  (-0.2544142E-01)
 number of electron      60.9999995 magnetization       1.0000002
 augmentation part        1.3910710 magnetization       0.0525349

 Free energy of the ion-electron system (eV)
  ---------------------------------------------------
  alpha Z        PSCENC =         0.27177942
  Ewald energy   TEWEN  =      6495.04748622
  -Hartree energ DENC   =     -7846.10703750
  -exchange      EXHF   =       132.69417316
  -V(xc)+E(xc)   XCENC  =       153.90511503
  PAW double counting   =      5343.17459444    -5348.86321333
  entropy T*S    EENTRO =        -0.00000000
  eigenvalues    EBANDS =      -869.57611040
  atomic energy  EATOM  =      1912.56957895
  ---------------------------------------------------
  free energy    TOTEN  =      -178.03076335 eV

  energy without entropy =     -178.03076335  energy(sigma->0) =     -178.03076335
  exchange ACFDT corr.  =        -0.00000000  see jH, gK, PRB 81, 115126


--------------------------------------------------------------------------------------------------------




--------------------------------------- Iteration      1(   4)  ---------------------------------------


    POTLOK:  cpu time     73.6303: real time     73.8515
    SETDIJ:  cpu time      0.0588: real time      0.0589
    TRIAL :  cpu time     63.7079: real time     64.8227
    CORREC:  cpu time      0.0026: real time      0.0026
    CHARGE:  cpu time      1.2572: real time      1.2623
    --------------------------------------------
      LOOP:  cpu time    138.6885: real time    140.0373

 eigenvalue-minimisations  :     0
 total energy-change (2. order) :-0.1696485E-01  (-0.7917138E-02)
 number of electron      60.9999995 magnetization       1.0000002
 augmentation part        1.3898052 magnetization       0.0523607

 Free energy of the ion-electron system (eV)
  ---------------------------------------------------
  alpha Z        PSCENC =         0.27177942
  Ewald energy   TEWEN  =      6495.04748622
  -Hartree energ DENC   =     -7846.43859712
  -exchange      EXHF   =       132.75831951
  -V(xc)+E(xc)   XCENC  =       153.91159340
  PAW double counting   =      5434.15161591    -5439.80787255
  entropy T*S    EENTRO =        -0.00000000
  eigenvalues    EBANDS =      -869.29566668
  atomic energy  EATOM  =      1912.56957895
  ---------------------------------------------------
  free energy    TOTEN  =      -178.04772820 eV

  energy without entropy =     -178.04772820  energy(sigma->0) =     -178.04772820
  exchange ACFDT corr.  =        -0.00000000  see jH, gK, PRB 81, 115126


--------------------------------------------------------------------------------------------------------




--------------------------------------- Iteration      1(   5)  ---------------------------------------


    POTLOK:  cpu time     71.4386: real time     71.6399
    SETDIJ:  cpu time      0.0327: real time      0.0328
    TRIAL :  cpu time     63.1729: real time     64.3349
    CORREC:  cpu time      0.0037: real time      0.0037
    CHARGE:  cpu time      1.2570: real time      1.2624
    --------------------------------------------
      LOOP:  cpu time    135.9242: real time    137.2984

 eigenvalue-minimisations  :     0
 total energy-change (2. order) :-0.5213507E-02  (-0.2869372E-02)
 number of electron      60.9999995 magnetization       1.0000002
 augmentation part        1.3896285 magnetization       0.0522601

 Free energy of the ion-electron system (eV)
  ---------------------------------------------------
  alpha Z        PSCENC =         0.27177942
  Ewald energy   TEWEN  =      6495.04748622
  -Hartree energ DENC   =     -7847.02544676
  -exchange      EXHF   =       132.80996185
  -V(xc)+E(xc)   XCENC  =       153.93376855
  PAW double counting   =      5481.75991079    -5487.40315973
  entropy T*S    EENTRO =        -0.00000000
  eigenvalues    EBANDS =      -868.66222535
  atomic energy  EATOM  =      1912.56957895
  ---------------------------------------------------
  free energy    TOTEN  =      -178.05294170 eV

  energy without entropy =     -178.05294170  energy(sigma->0) =     -178.05294170
  exchange ACFDT corr.  =        -0.00000000  see jH, gK, PRB 81, 115126


--------------------------------------------------------------------------------------------------------




--------------------------------------- Iteration      1(   6)  ---------------------------------------


    POTLOK:  cpu time     71.3582: real time     71.5522
    SETDIJ:  cpu time      0.0328: real time      0.0328
    TRIAL :  cpu time     63.7450: real time     64.6752
    CORREC:  cpu time      0.0020: real time      0.0020
    CHARGE:  cpu time      1.2114: real time      1.2269
    --------------------------------------------
      LOOP:  cpu time    136.3763: real time    137.5246

 eigenvalue-minimisations  :     0
 total energy-change (2. order) :-0.1974547E-02  (-0.1404533E-02)
 number of electron      60.9999995 magnetization       1.0000002
 augmentation part        1.3897739 magnetization       0.0522200

 Free energy of the ion-electron system (eV)
  ---------------------------------------------------
  alpha Z        PSCENC =         0.27177942
  Ewald energy   TEWEN  =      6495.04748622
  -Hartree energ DENC   =     -7847.24226952
  -exchange      EXHF   =       132.83801311
  -V(xc)+E(xc)   XCENC  =       153.94841906
  PAW double counting   =      5500.26705007    -5505.90681191
  entropy T*S    EENTRO =        -0.00000000
  eigenvalues    EBANDS =      -868.39025918
  atomic energy  EATOM  =      1912.56957895
  ---------------------------------------------------
  free energy    TOTEN  =      -178.05491625 eV

  energy without entropy =     -178.05491625  energy(sigma->0) =     -178.05491625
  exchange ACFDT corr.  =        -0.00000000  see jH, gK, PRB 81, 115126


--------------------------------------------------------------------------------------------------------




--------------------------------------- Iteration      1(   7)  ---------------------------------------


    POTLOK:  cpu time     70.1971: real time     70.6274
    SETDIJ:  cpu time      0.0594: real time      0.0595
    TRIAL :  cpu time     63.6050: real time     64.7242
    CORREC:  cpu time      0.0030: real time      0.0030
    CHARGE:  cpu time      1.2653: real time      1.2714
    --------------------------------------------
      LOOP:  cpu time    135.1432: real time    136.7045

 eigenvalue-minimisations  :     0
 total energy-change (2. order) :-0.1029965E-02  (-0.7759285E-03)
 number of electron      60.9999995 magnetization       1.0000002
 augmentation part        1.3899866 magnetization       0.0522086

 Free energy of the ion-electron system (eV)
  ---------------------------------------------------
  alpha Z        PSCENC =         0.27177942
  Ewald energy   TEWEN  =      6495.04748622
  -Hartree energ DENC   =     -7847.17691375
  -exchange      EXHF   =       132.84760753
  -V(xc)+E(xc)   XCENC  =       153.95297247
  PAW double counting   =      5502.82828874    -5508.46821672
  entropy T*S    EENTRO =        -0.00000000
  eigenvalues    EBANDS =      -868.42440067
  atomic energy  EATOM  =      1912.56957895
  ---------------------------------------------------
  free energy    TOTEN  =      -178.05594622 eV

  energy without entropy =     -178.05594622  energy(sigma->0) =     -178.05594622
  exchange ACFDT corr.  =        -0.00000000  see jH, gK, PRB 81, 115126


--------------------------------------------------------------------------------------------------------




--------------------------------------- Iteration      1(   8)  ---------------------------------------


    POTLOK:  cpu time     67.4974: real time     67.6757
    SETDIJ:  cpu time      0.0651: real time      0.0652
    TRIAL :  cpu time     62.9871: real time     64.2184
    CORREC:  cpu time      0.0023: real time      0.0023
    CHARGE:  cpu time      1.2838: real time      1.2891
    --------------------------------------------
      LOOP:  cpu time    131.8809: real time    133.3023

 eigenvalue-minimisations  :     0
 total energy-change (2. order) :-0.5902512E-03  (-0.4230987E-03)
 number of electron      60.9999995 magnetization       1.0000002
 augmentation part        1.3901645 magnetization       0.0522007

 Free energy of the ion-electron system (eV)
  ---------------------------------------------------
  alpha Z        PSCENC =         0.27177942
  Ewald energy   TEWEN  =      6495.04748622
  -Hartree energ DENC   =     -7847.08211171
  -exchange      EXHF   =       132.84946816
  -V(xc)+E(xc)   XCENC  =       153.95358611
  PAW double counting   =      5498.44556232    -5504.08684819
  entropy T*S    EENTRO =        -0.00000000
  eigenvalues    EBANDS =      -868.50892305
  atomic energy  EATOM  =      1912.56957895
  ---------------------------------------------------
  free energy    TOTEN  =      -178.05653647 eV

  energy without entropy =     -178.05653647  energy(sigma->0) =     -178.05653647
  exchange ACFDT corr.  =        -0.00000000  see jH, gK, PRB 81, 115126


--------------------------------------------------------------------------------------------------------




--------------------------------------- Iteration      1(   9)  ---------------------------------------


    POTLOK:  cpu time     65.1762: real time     65.3594
    SETDIJ:  cpu time      0.0327: real time      0.0328
    TRIAL :  cpu time     63.3215: real time     64.4270
    CORREC:  cpu time      0.0031: real time      0.0031
    CHARGE:  cpu time      1.2817: real time      1.2871
    --------------------------------------------
      LOOP:  cpu time    129.8320: real time    131.1330

 eigenvalue-minimisations  :     0
 total energy-change (2. order) :-0.3342395E-03  (-0.2327583E-03)
 number of electron      60.9999995 magnetization       1.0000002
 augmentation part        1.3902821 magnetization       0.0521844

 Free energy of the ion-electron system (eV)
  ---------------------------------------------------
  alpha Z        PSCENC =         0.27177942
  Ewald energy   TEWEN  =      6495.04748622
  -Hartree energ DENC   =     -7847.05212910
  -exchange      EXHF   =       132.85015037
  -V(xc)+E(xc)   XCENC  =       153.95425544
  PAW double counting   =      5492.74612572    -5498.38891705
  entropy T*S    EENTRO =        -0.00000000
  eigenvalues    EBANDS =      -868.53436758
  atomic energy  EATOM  =      1912.56957895
  ---------------------------------------------------
  free energy    TOTEN  =      -178.05687071 eV

  energy without entropy =     -178.05687071  energy(sigma->0) =     -178.05687071
  exchange ACFDT corr.  =        -0.00000000  see jH, gK, PRB 81, 115126


--------------------------------------------------------------------------------------------------------




--------------------------------------- Iteration      1(  10)  ---------------------------------------


    POTLOK:  cpu time     64.2341: real time     64.4070
    SETDIJ:  cpu time      0.0333: real time      0.0334
    TRIAL :  cpu time     63.4768: real time     64.4872
    CORREC:  cpu time      0.0028: real time      0.0028
    CHARGE:  cpu time      1.2823: real time      1.2878
    --------------------------------------------
      LOOP:  cpu time    129.0778: real time    130.2732

 eigenvalue-minimisations  :     0
 total energy-change (2. order) :-0.1927809E-03  (-0.1347613E-03)
 number of electron      60.9999995 magnetization       1.0000002
 augmentation part        1.3903453 magnetization       0.0521572

 Free energy of the ion-electron system (eV)
  ---------------------------------------------------
  alpha Z        PSCENC =         0.27177942
  Ewald energy   TEWEN  =      6495.04748622
  -Hartree energ DENC   =     -7847.04657204
  -exchange      EXHF   =       132.85073339
  -V(xc)+E(xc)   XCENC  =       153.95495956
  PAW double counting   =      5488.31861283    -5493.96253449
  entropy T*S    EENTRO =        -0.00000000
  eigenvalues    EBANDS =      -868.53354209
  atomic energy  EATOM  =      1912.56957895
  ---------------------------------------------------
  free energy    TOTEN  =      -178.05706349 eV

  energy without entropy =     -178.05706349  energy(sigma->0) =     -178.05706349
  exchange ACFDT corr.  =        -0.00000000  see jH, gK, PRB 81, 115126


--------------------------------------------------------------------------------------------------------




--------------------------------------- Iteration      1(  11)  ---------------------------------------


    POTLOK:  cpu time     62.9704: real time     63.1786
    SETDIJ:  cpu time      0.0670: real time      0.0672
    TRIAL :  cpu time     63.4115: real time     64.3849
    CORREC:  cpu time      0.0021: real time      0.0021
    CHARGE:  cpu time      1.2627: real time      1.2681
    --------------------------------------------
      LOOP:  cpu time    127.7322: real time    128.9249

 eigenvalue-minimisations  :     0
 total energy-change (2. order) :-0.1174470E-03  (-0.8083664E-04)
 number of electron      60.9999995 magnetization       1.0000002
 augmentation part        1.3903793 magnetization       0.0521287

 Free energy of the ion-electron system (eV)
  ---------------------------------------------------
  alpha Z        PSCENC =         0.27177942
  Ewald energy   TEWEN  =      6495.04748622
  -Hartree energ DENC   =     -7847.03484526
  -exchange      EXHF   =       132.85103637
  -V(xc)+E(xc)   XCENC  =       153.95519529
  PAW double counting   =      5485.57164970    -5491.21624502
  entropy T*S    EENTRO =        -0.00000000
  eigenvalues    EBANDS =      -868.53769859
  atomic energy  EATOM  =      1912.56957895
  ---------------------------------------------------
  free energy    TOTEN  =      -178.05718093 eV

  energy without entropy =     -178.05718093  energy(sigma->0) =     -178.05718093
  exchange ACFDT corr.  =        -0.00000000  see jH, gK, PRB 81, 115126


--------------------------------------------------------------------------------------------------------




--------------------------------------- Iteration      1(  12)  ---------------------------------------


    POTLOK:  cpu time     59.9746: real time     60.1410
    SETDIJ:  cpu time      0.0329: real time      0.0330
    TRIAL :  cpu time     63.1253: real time     64.3833
    CORREC:  cpu time      0.0016: real time      0.0016
    CHARGE:  cpu time      1.2794: real time      1.2849
    --------------------------------------------
      LOOP:  cpu time    124.4336: real time    125.8711

 eigenvalue-minimisations  :     0
 total energy-change (2. order) :-0.7353844E-04  (-0.4905295E-04)
 number of electron      60.9999995 magnetization       1.0000002
 augmentation part        1.3904031 magnetization       0.0521058

 Free energy of the ion-electron system (eV)
  ---------------------------------------------------
  alpha Z        PSCENC =         0.27177942
  Ewald energy   TEWEN  =      6495.04748622
  -Hartree energ DENC   =     -7847.02280982
  -exchange      EXHF   =       132.85133866
  -V(xc)+E(xc)   XCENC  =       153.95524150
  PAW double counting   =      5484.23211026    -5489.87703046
  entropy T*S    EENTRO =        -0.00000000
  eigenvalues    EBANDS =      -868.54365392
  atomic energy  EATOM  =      1912.56957895
  ---------------------------------------------------
  free energy    TOTEN  =      -178.05725447 eV

  energy without entropy =     -178.05725447  energy(sigma->0) =     -178.05725447
  exchange ACFDT corr.  =        -0.00000000  see jH, gK, PRB 81, 115126


--------------------------------------------------------------------------------------------------------




--------------------------------------- Iteration      1(  13)  ---------------------------------------


    POTLOK:  cpu time     58.8855: real time     59.0454
    SETDIJ:  cpu time      0.0644: real time      0.0646
    TRIAL :  cpu time     63.4128: real time     64.5222
    CORREC:  cpu time      0.0021: real time      0.0021
    CHARGE:  cpu time      1.2608: real time      1.2663
    --------------------------------------------
      LOOP:  cpu time    123.6410: real time    124.9240

 eigenvalue-minimisations  :     0
 total energy-change (2. order) :-0.4617399E-04  (-0.3021152E-04)
 number of electron      60.9999995 magnetization       1.0000002
 augmentation part        1.3904229 magnetization       0.0520899

 Free energy of the ion-electron system (eV)
  ---------------------------------------------------
  alpha Z        PSCENC =         0.27177942
  Ewald energy   TEWEN  =      6495.04748622
  -Hartree energ DENC   =     -7847.01876130
  -exchange      EXHF   =       132.85187613
  -V(xc)+E(xc)   XCENC  =       153.95543186
  PAW double counting   =      5483.79330727    -5489.43837859
  entropy T*S    EENTRO =        -0.00000000
  eigenvalues    EBANDS =      -868.54385800
  atomic energy  EATOM  =      1912.56957895
  ---------------------------------------------------
  free energy    TOTEN  =      -178.05730065 eV

  energy without entropy =     -178.05730065  energy(sigma->0) =     -178.05730065
  exchange ACFDT corr.  =        -0.00000000  see jH, gK, PRB 81, 115126


--------------------------------------------------------------------------------------------------------




--------------------------------------- Iteration      1(  14)  ---------------------------------------


    POTLOK:  cpu time     57.8780: real time     58.0367
    SETDIJ:  cpu time      0.0642: real time      0.0644
    TRIAL :  cpu time     63.3344: real time     64.4021
    CORREC:  cpu time      0.0037: real time      0.0037
    CHARGE:  cpu time      1.2849: real time      1.2903
    --------------------------------------------
      LOOP:  cpu time    122.5862: real time    123.8250

 eigenvalue-minimisations  :     0
 total energy-change (2. order) :-0.2912140E-04  (-0.1933854E-04)
 number of electron      60.9999995 magnetization       1.0000002
 augmentation part        1.3904390 magnetization       0.0520792

 Free energy of the ion-electron system (eV)
  ---------------------------------------------------
  alpha Z        PSCENC =         0.27177942
  Ewald energy   TEWEN  =      6495.04748622
  -Hartree energ DENC   =     -7847.01830741
  -exchange      EXHF   =       132.85246637
  -V(xc)+E(xc)   XCENC  =       153.95568061
  PAW double counting   =      5483.78456838    -5489.42971168
  entropy T*S    EENTRO =        -0.00000000
  eigenvalues    EBANDS =      -868.54168879
  atomic energy  EATOM  =      1912.56957895
  ---------------------------------------------------
  free energy    TOTEN  =      -178.05732977 eV

  energy without entropy =     -178.05732977  energy(sigma->0) =     -178.05732977
  exchange ACFDT corr.  =        -0.00000000  see jH, gK, PRB 81, 115126


--------------------------------------------------------------------------------------------------------




--------------------------------------- Iteration      1(  15)  ---------------------------------------


    POTLOK:  cpu time     56.9086: real time     57.0697
    SETDIJ:  cpu time      0.0659: real time      0.0661
    TRIAL :  cpu time     63.4622: real time     64.3725
    CORREC:  cpu time      0.0037: real time      0.0037
    CHARGE:  cpu time      1.2882: real time      1.2948
    --------------------------------------------
      LOOP:  cpu time    121.7471: real time    122.8327

 eigenvalue-minimisations  :     0
 total energy-change (2. order) :-0.1884504E-04  (-0.1323229E-04)
 number of electron      60.9999995 magnetization       1.0000002
 augmentation part        1.3904518 magnetization       0.0520723

 Free energy of the ion-electron system (eV)
  ---------------------------------------------------
  alpha Z        PSCENC =         0.27177942
  Ewald energy   TEWEN  =      6495.04748622
  -Hartree energ DENC   =     -7847.01733667
  -exchange      EXHF   =       132.85294527
  -V(xc)+E(xc)   XCENC  =       153.95587026
  PAW double counting   =      5483.91967579    -5489.56485318
  entropy T*S    EENTRO =        -0.00000000
  eigenvalues    EBANDS =      -868.54050013
  atomic energy  EATOM  =      1912.56957895
  ---------------------------------------------------
  free energy    TOTEN  =      -178.05734861 eV

  energy without entropy =     -178.05734861  energy(sigma->0) =     -178.05734861
  exchange ACFDT corr.  =         0.00000000  see jH, gK, PRB 81, 115126


--------------------------------------------------------------------------------------------------------




--------------------------------------- Iteration      1(  16)  ---------------------------------------


    POTLOK:  cpu time     55.7777: real time     55.9333
    SETDIJ:  cpu time      0.0339: real time      0.0339
    TRIAL :  cpu time     63.3904: real time     64.4442
    CORREC:  cpu time      0.0028: real time      0.0028
    CHARGE:  cpu time      1.2798: real time      1.2851
    --------------------------------------------
      LOOP:  cpu time    120.5479: real time    121.7691

 eigenvalue-minimisations  :     0
 total energy-change (2. order) :-0.1283072E-04  (-0.1003573E-04)
 number of electron      60.9999995 magnetization       1.0000002
 augmentation part        1.3904622 magnetization       0.0520676

 Free energy of the ion-electron system (eV)
  ---------------------------------------------------
  alpha Z        PSCENC =         0.27177942
  Ewald energy   TEWEN  =      6495.04748622
  -Hartree energ DENC   =     -7847.01607915
  -exchange      EXHF   =       132.85331338
  -V(xc)+E(xc)   XCENC  =       153.95600672
  PAW double counting   =      5484.07058431    -5489.71578319
  entropy T*S    EENTRO =        -0.00000000
  eigenvalues    EBANDS =      -868.54005051
  atomic energy  EATOM  =      1912.56957895
  ---------------------------------------------------
  free energy    TOTEN  =      -178.05736144 eV

  energy without entropy =     -178.05736144  energy(sigma->0) =     -178.05736144
  exchange ACFDT corr.  =         0.00000000  see jH, gK, PRB 81, 115126


--------------------------------------------------------------------------------------------------------




--------------------------------------- Iteration      1(  17)  ---------------------------------------


    POTLOK:  cpu time     54.7188: real time     54.8970
    SETDIJ:  cpu time      0.0590: real time      0.0591
    TRIAL :  cpu time     63.7202: real time     64.6257
    CORREC:  cpu time      0.0039: real time      0.0039
    CHARGE:  cpu time      1.2547: real time      1.2599
    --------------------------------------------
      LOOP:  cpu time    119.7762: real time    120.8717

 eigenvalue-minimisations  :     0
 total energy-change (2. order) :-0.9198207E-05  (-0.9647573E-05)
 number of electron      60.9999995 magnetization       1.0000002
 augmentation part        1.3904710 magnetization       0.0520638

 Free energy of the ion-electron system (eV)
  ---------------------------------------------------
  alpha Z        PSCENC =         0.27177942
  Ewald energy   TEWEN  =      6495.04748622
  -Hartree energ DENC   =     -7847.01476351
  -exchange      EXHF   =       132.85358820
  -V(xc)+E(xc)   XCENC  =       153.95610275
  PAW double counting   =      5484.18740482    -5489.83262069
  entropy T*S    EENTRO =        -0.00000000
  eigenvalues    EBANDS =      -868.53987141
  atomic energy  EATOM  =      1912.56957895
  ---------------------------------------------------
  free energy    TOTEN  =      -178.05737064 eV

  energy without entropy =     -178.05737064  energy(sigma->0) =     -178.05737064
  exchange ACFDT corr.  =        -0.00000000  see jH, gK, PRB 81, 115126


--------------------------------------------------------------------------------------------------------


  average scaling for gradient   1.5085


 average (electrostatic) potential at core
  the test charge radii are     0.6991  0.5201
  (the norm of the test charge is              1.0000)
       1 -55.8416       2 -56.4943       3 -55.8819       4 -55.8415       5 -56.4944
       6 -55.8818       7 -55.8428       8 -56.1955       9 -54.9728      10 -55.8429
      11 -56.1955      12 -54.9728      13 -38.5250      14 -38.0169      15 -37.8271
      16 -38.0168      17 -38.5342      18 -38.3830      19 -38.4402      20 -38.5254
      21 -38.0167      22 -38.0171      23 -37.8272      24 -38.5341      25 -38.3830
      26 -38.4401
 
 
 
 E-fermi :  -6.2918     XC(G=0):  -0.0359     alpha+bet : -0.0248

 Fermi energy:        -6.2917502564

 spin component 1

 k-point     1 :       0.0000    0.0000    0.0000
  band No.  band energies     occupation 
      1     -24.8333      1.00000
      2     -23.4718      1.00000
      3     -22.6636      1.00000
      4     -21.6448      1.00000
      5     -21.4603      1.00000
      6     -20.0394      1.00000
      7     -18.8359      1.00000
      8     -17.8535      1.00000
      9     -17.1156      1.00000
     10     -16.0993      1.00000
     11     -15.6307      1.00000
     12     -14.6720      1.00000
     13     -13.8321      1.00000
     14     -13.5462      1.00000
     15     -12.6771      1.00000
     16     -12.1585      1.00000
     17     -12.1102      1.00000
     18     -11.8152      1.00000
     19     -11.6808      1.00000
     20     -11.6821      1.00000
     21     -11.4449      1.00000
     22     -11.2725      1.00000
     23     -10.6874      1.00000
     24     -10.4022      1.00000
     25     -10.1687      1.00000
     26     -10.0994      1.00000
     27      -9.6589      1.00000
     28      -9.6287      1.00000
     29      -7.8790      1.00000
     30      -7.9578      1.00000
     31      -6.5577      1.00000
     32      -3.0343      0.00000
     33      -1.3797      0.00000
     34      -0.9743      0.00000
     35      -0.2489      0.00000
     36      -0.0613      0.00000
     37       0.4697      0.00000
     38       0.0387      0.00000
     39       0.0866      0.00000
     40       0.0143      0.00000
     41       0.0680      0.00000
     42       0.0950      0.00000
     43       0.1286      0.00000
     44       0.1282      0.00000
     45       0.1185      0.00000
     46       0.1722      0.00000
     47       0.1788      0.00000
     48       0.1412      0.00000
     49       0.1795      0.00000
     50       0.1885      0.00000
     51       0.1864      0.00000
     52       0.1898      0.00000
     53       0.1899      0.00000
     54       0.1899      0.00000
     55       0.2589      0.00000
     56       0.2488      0.00000
     57       0.3089      0.00000
 Fermi energy:        -6.2917502564

 spin component 2

 k-point     1 :       0.0000    0.0000    0.0000
  band No.  band energies     occupation 
      1     -24.6921      1.00000
      2     -23.2770      1.00000
      3     -22.4293      1.00000
      4     -21.5182      1.00000
      5     -21.3399      1.00000
      6     -20.0275      1.00000
      7     -18.7005      1.00000
      8     -17.7479      1.00000
      9     -16.9940      1.00000
     10     -15.9934      1.00000
     11     -15.5334      1.00000
     12     -14.6189      1.00000
     13     -13.7890      1.00000
     14     -13.4894      1.00000
     15     -12.6096      1.00000
     16     -12.1475      1.00000
     17     -12.0755      1.00000
     18     -11.4830      1.00000
     19     -11.6330      1.00000
     20     -11.3939      1.00000
     21     -11.4043      1.00000
     22     -10.9505      1.00000
     23     -10.6345      1.00000
     24     -10.3746      1.00000
     25     -10.1485      1.00000
     26     -10.0686      1.00000
     27      -9.1732      1.00000
     28      -9.5824      1.00000
     29      -7.8125      1.00000
     30      -7.3184      1.00000
     31      -5.1832      0.00000
     32      -2.3299      0.00000
     33      -1.1375      0.00000
     34      -0.5338      0.00000
     35      -0.3067      0.00000
     36      -0.1146      0.00000
     37      -0.0080      0.00000
     38       0.0672      0.00000
     39       0.0122      0.00000
     40       0.0796      0.00000
     41       0.0959      0.00000
     42       0.1222      0.00000
     43       0.1155      0.00000
     44       0.1396      0.00000
     45       0.1131      0.00000
     46       0.1572      0.00000
     47       0.1880      0.00000
     48       0.1829      0.00000
     49       0.1888      0.00000
     50       0.1886      0.00000
     51       0.1906      0.00000
     52       0.1906      0.00000
     53       0.1905      0.00000
     54       0.2671      0.00000
     55       0.2211      0.00000
     56       0.2296      0.00000
     57       0.2338      0.00000


--------------------------------------------------------------------------------------------------------


 soft charge-density along one line, spin component           1
         0         1         2         3         4         5         6         7         8         9
 total charge-density along one line
 
 soft charge-density along one line, spin component           2
         0         1         2         3         4         5         6         7         8         9
 total charge-density along one line
 
 pseudopotential strength for first ion, spin component:           1
 10.036  13.346   0.002   0.000  -0.000  -0.007  -0.000   0.001
 13.346  17.746   0.003   0.000  -0.000  -0.009  -0.000   0.001
  0.002   0.003  -4.247   0.000  -0.001   8.280  -0.000   0.002
  0.000   0.000   0.000  -4.253  -0.000  -0.000   8.294   0.000
 -0.000  -0.000  -0.001  -0.000  -4.249   0.002   0.000   8.283
 -0.007  -0.009   8.280  -0.000   0.002 -18.262   0.000  -0.004
 -0.000  -0.000  -0.000   8.294   0.000   0.000 -18.294   0.000
  0.001   0.001   0.002   0.000   8.283  -0.004   0.000 -18.267
 pseudopotential strength for first ion, spin component:           2
 10.034  13.344   0.002   0.000   0.000  -0.007  -0.000   0.000
 13.344  17.743   0.003   0.000   0.000  -0.009  -0.000   0.001
  0.002   0.003  -4.247  -0.000  -0.001   8.281   0.000   0.002
  0.000   0.000  -0.000  -4.250   0.000   0.000   8.290  -0.000
  0.000   0.000  -0.001   0.000  -4.249   0.002  -0.000   8.284
 -0.007  -0.009   8.281   0.000   0.002 -18.264  -0.000  -0.005
 -0.000  -0.000   0.000   8.290  -0.000  -0.000 -18.287   0.000
  0.000   0.001   0.002  -0.000   8.284  -0.005   0.000 -18.268
 total augmentation occupancy for first ion, spin component:           1
  8.741  -3.930   0.192   0.000  -0.172   0.043   0.000  -0.030
 -3.930   1.805  -0.142  -0.000   0.104  -0.027  -0.000   0.017
  0.192  -0.142   1.773  -0.000  -0.010   0.161  -0.000   0.004
  0.000  -0.000  -0.000   1.110   0.000  -0.000   0.072   0.000
 -0.172   0.104  -0.010   0.000   1.900   0.004   0.000   0.183
  0.043  -0.027   0.161  -0.000   0.004   0.015  -0.000   0.001
  0.000  -0.000  -0.000   0.072   0.000  -0.000   0.005   0.000
 -0.030   0.017   0.004   0.000   0.183   0.001   0.000   0.019
 total augmentation occupancy for first ion, spin component:           2
  0.005  -0.004   0.003   0.000   0.005   0.001   0.000   0.001
 -0.004   0.003  -0.004  -0.000  -0.005  -0.001  -0.000  -0.001
  0.003  -0.004  -0.003  -0.000  -0.002   0.000  -0.000   0.000
  0.000  -0.000  -0.000   0.022   0.000  -0.000   0.001   0.000
  0.005  -0.005  -0.002   0.000  -0.002   0.000  -0.000   0.000
  0.001  -0.001   0.000  -0.000   0.000   0.000  -0.000   0.000
  0.000  -0.000  -0.000   0.001  -0.000  -0.000   0.000  -0.000
  0.001  -0.001   0.000   0.000   0.000   0.000  -0.000   0.000


------------------------ aborting loop because EDIFF is reached ----------------------------------------


    FORLOC:  cpu time      0.1495: real time      0.1499
    FORHF :  cpu time     40.3725: real time     40.5178
    FORNL :  cpu time      2.8723: real time      2.8832
    STRESS:  cpu time      8.6836: real time      8.7166
    FORCOR:  cpu time      4.2421: real time      4.5007
    OFIELD:  cpu time      0.0182: real time      0.0182
 WARNING: Using user supplied parameters
     VDW_A1 = 0.383
     VDW_A2 = 5.685
     VDW_S8 = 2.31
     because the xc functional is not supported. Required parameters not
     defined in the INCAR file will be replaced with PBE defaults ones.


 ---------------------------------------------------------------------------------------------

         DFTD3 V3.0 Rev 1        
 IVDW         = 12
 DF unknown   
 parameters
 VDW_S6       =    1.0000
 VDW_S8       =    2.3100
 VDW_A1       =    0.3830
 VDW_A2       =    5.6850
 k1-k3        =   16.0000    1.3333   -4.0000
 VDW_RADIUS   =   50.2022 A
 VDW_CNRADIUS =   21.1671 A
 Edisp (eV)   -0.48741

 E6    (eV) :    -0.2529
 E8    (eV) :    -0.2346
 % E8        : 48.12
    FORVDW:  cpu time      0.0040: real time      0.0040

  FORCE on cell =-STRESS in cart. coord.  units (eV):
  Direction    XX          YY          ZZ          XY          YZ          ZX
  --------------------------------------------------------------------------------------
  Alpha Z     0.27178     0.27178     0.27178
  Ewald    5115.80995  1853.39994  -474.16334    23.06727    -0.39576     0.08126
  Hartree  4937.64492  2132.62230   776.74756     3.80483    -0.20947     0.04616
  E(xc)    -165.50113  -165.91718  -168.24932     0.00980    -0.00048     0.00009
  Local  -10612.61740 -4535.01844  -935.46259   -24.58403     0.58653    -0.12299
  n-local   -72.21542   -76.87291   -66.29374    -0.22403     0.00271    -0.00074
  augment    -2.53720    -2.66064    -2.63479    -0.00646     0.00001    -0.00001
  Kinetic   853.03382   850.46101   920.67524    -1.85765     0.01535    -0.00413
  Fock      -58.32081   -58.15052   -52.76430    -0.21886     0.00117    -0.00018
  vdW        -0.35774    -0.07784    -0.00232     0.00130     0.00001    -0.00000
  -------------------------------------------------------------------------------------
  Total      -4.78925    -1.94249    -1.87582    -0.00783     0.00008    -0.00055
  in kB      -0.11989    -0.04863    -0.04696    -0.00020     0.00000    -0.00001
  external pressure =       -0.07 kB  Pullay stress =        0.00 kB


 VOLUME and BASIS-vectors are now :
 -----------------------------------------------------------------------------
  energy-cutoff  :      500.00
  volume of cell :    64000.00
      direct lattice vectors                 reciprocal lattice vectors
    40.000000000  0.000000000  0.000000000     0.025000000  0.000000000  0.000000000
     0.000000000 40.000000000  0.000000000     0.000000000  0.025000000  0.000000000
     0.000000000  0.000000000 40.000000000     0.000000000  0.000000000  0.025000000

  length of vectors
    40.000000000 40.000000000 40.000000000     0.025000000  0.025000000  0.025000000


 FORCES acting on ions:
    Electron-Ion                     Ewald-Force                    Non-Local-Force
 -----------------------------------------------------------------------------------------------
   -.406E+02 0.191E+03 0.126E-01   0.409E+02 -.193E+03 -.129E-01   -.529E+00 0.208E+01 0.197E-02
   -.664E+02 0.213E+02 -.119E-01   0.665E+02 -.211E+02 0.121E-01   -.212E+00 -.118E+00 -.460E-03
   -.824E+02 -.165E+03 -.184E-01   0.828E+02 0.167E+03 0.185E-01   -.919E+00 -.199E+01 -.755E-03
   0.406E+02 -.191E+03 0.619E-01   -.409E+02 0.193E+03 -.634E-01   0.530E+00 -.208E+01 0.337E-02
   0.664E+02 -.213E+02 -.187E-01   -.665E+02 0.211E+02 0.183E-01   0.212E+00 0.118E+00 -.208E-02
   0.824E+02 0.165E+03 -.516E-02   -.828E+02 -.167E+03 0.526E-02   0.918E+00 0.199E+01 0.333E-03
   0.879E+02 -.100E+03 0.918E-01   -.889E+02 0.102E+03 -.937E-01   0.771E+00 -.160E+01 0.253E-02
   0.102E+03 0.894E+02 -.699E-01   -.103E+03 -.899E+02 0.694E-01   0.916E+00 0.103E+01 -.814E-03
   0.170E+03 -.128E+02 -.157E-01   -.173E+03 0.144E+02 0.148E-01   0.159E+01 -.118E+01 0.899E-03
   -.879E+02 0.100E+03 -.541E-02   0.889E+02 -.102E+03 0.516E-02   -.771E+00 0.160E+01 0.780E-03
   -.102E+03 -.894E+02 -.163E-01   0.103E+03 0.899E+02 0.162E-01   -.916E+00 -.103E+01 -.126E-02
   -.170E+03 0.128E+02 -.167E-01   0.173E+03 -.144E+02 0.176E-01   -.159E+01 0.118E+01 -.580E-03
   0.399E+02 0.776E+02 0.127E-01   -.432E+02 -.820E+02 -.134E-01   0.352E+01 0.462E+01 0.912E-03
   0.535E+02 0.234E+02 0.501E+02   -.562E+02 -.254E+02 -.542E+02   0.253E+01 0.212E+01 0.421E+01
   0.396E+02 -.635E+02 0.481E-01   -.407E+02 0.689E+02 -.525E-01   0.828E+00 -.545E+01 0.444E-02
   0.535E+02 0.233E+02 -.501E+02   -.562E+02 -.253E+02 0.543E+02   0.252E+01 0.211E+01 -.421E+01
   0.145E+02 0.757E+02 -.526E-01   -.135E+02 -.811E+02 0.564E-01   -.110E+01 0.567E+01 -.348E-02
   0.317E+02 -.785E+02 0.617E-01   -.331E+02 0.838E+02 -.652E-01   0.139E+01 -.554E+01 0.417E-02
   0.219E+02 -.876E+02 0.201E-01   -.239E+02 0.928E+02 -.212E-01   0.204E+01 -.542E+01 0.115E-02
   -.399E+02 -.776E+02 0.812E-02   0.432E+02 0.820E+02 -.848E-02   -.352E+01 -.462E+01 0.660E-03
   -.535E+02 -.234E+02 -.501E+02   0.562E+02 0.253E+02 0.543E+02   -.253E+01 -.212E+01 -.421E+01
   -.535E+02 -.233E+02 0.501E+02   0.562E+02 0.253E+02 -.543E+02   -.253E+01 -.211E+01 0.421E+01
   -.396E+02 0.635E+02 -.149E-01   0.407E+02 -.689E+02 0.159E-01   -.828E+00 0.545E+01 -.105E-02
   -.145E+02 -.757E+02 0.839E-02   0.135E+02 0.811E+02 -.906E-02   0.110E+01 -.567E+01 0.988E-03
   -.317E+02 0.785E+02 -.926E-02   0.331E+02 -.838E+02 0.974E-02   -.139E+01 0.554E+01 -.681E-03
   -.219E+02 0.876E+02 -.513E-02   0.239E+02 -.928E+02 0.532E-02   -.204E+01 0.542E+01 -.639E-03
 -----------------------------------------------------------------------------------------------
   -.238E-03 -.126E-02 -.813E-02   -.711E-14 -.142E-13 -.146E-13   0.477E-03 0.153E-02 0.613E-02
 
 
 POSITION                                       TOTAL-FORCE (eV/Angst)
 -----------------------------------------------------------------------------------
     20.47706     18.68511     19.99982        -0.166940      0.078967      0.002043
     21.40329     19.77312     19.99992         0.022653     -0.001847     -0.000204
     20.88030     21.10240     19.99981        -0.200265      0.020794     -0.000759
     19.52292     21.31484     19.99950         0.217552     -0.075173      0.001878
     18.59669     20.22687     19.99974        -0.038086     -0.014628     -0.002544
     19.11971     18.89761     19.99980         0.200960      0.000420      0.000594
     17.19734     20.53211     19.99950        -0.067633     -0.090305      0.000675
     16.16746     19.62644     20.00031         0.233935      0.071736     -0.001042
     14.74117     20.00933     20.00034        -0.201892      0.001588      0.000356
     22.80265     19.46787     20.00005         0.063973      0.090800      0.000705
     23.83253     20.37359     20.00014        -0.208199     -0.056244     -0.001510
     25.25883     19.99070     20.00027         0.174746      0.007019      0.000293
     18.44654     18.04161     19.99965         0.150523      0.199653      0.000410
     14.23150     19.56662     19.12715         0.147942      0.109551      0.169277
     14.59201     21.09590     19.99945         0.050314     -0.248236      0.000202
     14.23214     19.56820     20.87478         0.148050      0.109928     -0.170551
     16.38727     18.55545     20.00098        -0.057875      0.251416      0.000278
     16.93884     21.59525     19.99874         0.068537     -0.255148      0.000736
     19.12935     22.33192     19.99928         0.100387     -0.228333      0.000074
     21.55345     21.95838     19.99970        -0.148919     -0.197932      0.000329
     25.76812     20.43276     20.87407        -0.152826     -0.116095     -0.170405
     25.76826     20.43245     19.12646        -0.152368     -0.115386      0.169339
     25.40801     18.90415     20.00048        -0.055289      0.242311     -0.000044
     23.61271     21.44459     19.99996         0.052048     -0.257800      0.000345
     23.06116     18.40475     20.00017        -0.073755      0.249402     -0.000126
     20.87069     17.66802     19.99992        -0.107570      0.223541     -0.000349
 -----------------------------------------------------------------------------------
    total drift:                                0.064176      0.076921     -0.001438


--------------------------------------------------------------------------------------------------------



  FREE ENERGIE OF THE ION-ELECTRON SYSTEM (eV)
  ---------------------------------------------------
  free  energy   TOTEN  =      -178.54478240 eV

  energy  without entropy=     -178.54478240  energy(sigma->0) =     -178.54478240
 


--------------------------------------------------------------------------------------------------------


    POTLOK:  cpu time     54.3183: real time     54.4688


--------------------------------------------------------------------------------------------------------


 writing wavefunctions
     LOOP+:  cpu time   2366.4803: real time   2392.1785
    4ORBIT:  cpu time      0.0000: real time      0.0000

 total amount of memory used by VASP MPI-rank0  1356023. kBytes
=======================================================================

   base      :      30000. kBytes
   nonlr-proj:       3647. kBytes
   fftplans  :     129164. kBytes
   grid      :     263386. kBytes
   one-center:          6. kBytes
   HF        :          4. kBytes
   wavefun   :      98823. kBytes
   fock_wrk  :     830993. kBytes
 
  
  
 General timing and accounting informations for this job:
 ========================================================
  
                  Total CPU time used (sec):     2391.395
                            User time (sec):     2239.267
                          System time (sec):      152.129
                         Elapsed time (sec):     2421.338
  
                   Maximum memory used (kb):     2235784.
                   Average memory used (kb):          N/A
  
                          Minor page faults:      2150853
                          Major page faults:          225
                 Voluntary context switches:       115052
