 vasp.6.4.2 20Jul23 (build Sep 06 2024 14:39:43) complex                        
  
 executed on             LinuxIFC date 2025.09.06  04:55:06
 running   90 mpi-ranks, on    6 nodes
 distrk:  each k-point on   90 cores,    1 groups
 distr:  one band on NCORE=  15 cores,    6 groups


--------------------------------------------------------------------------------------------------------


 INCAR:
   SYSTEM = 150_ox
   ISTART = 1
   ICHARG = 2
   INIWAV = 1
   LHFCALC = .TRUE.
   HFSCREEN = 0.2
   NELM = 500
   ALGO = Damped
   ISPIN = 2
   EDIFF = 1E-05
   ISMEAR = 0
   SIGMA = 0.05
   PREC = accurate
   ENCUT = 500
   LREAL = auto  	
   LDIAG = .FALSE.
   LWAVE = .TRUE.
   LCHARG = .FALSE.
   LAECHG = .FALSE.
   LVHAR = .FALSE.
   LVTOT = .FALSE.
   EDIFFG = -0.02
   IBRION = 2
   NSW = 500
   ISIF = 2
   POTIM = 0.5
   IVDW = 12
   VDW_A1 = 0.383
   VDW_S8 = 2.310
   VDW_A2 = 5.685
   LPLANE = .TRUE.
   NCORE = 15
   LSCALU = .FALSE.
   NSIM = 4
   LSOL = .TRUE.
   EB_K = 35.6880
   LAMBDA_D_K = 3.04
   TAU = 0

 POTCAR:    PAW_PBE C 08Apr2002                   
 POTCAR:    PAW_PBE N 08Apr2002                   
 POTCAR:    PAW_PBE O 08Apr2002                   
 POTCAR:    PAW_PBE H 15Jun2001                   
 -----------------------------------------------------------------------------
|                                                                             |
|           W    W    AA    RRRRR   N    N  II  N    N   GGGG   !!!           |
|           W    W   A  A   R    R  NN   N  II  NN   N  G    G  !!!           |
|           W    W  A    A  R    R  N N  N  II  N N  N  G       !!!           |
|           W WW W  AAAAAA  RRRRR   N  N N  II  N  N N  G  GGG   !            |
|           WW  WW  A    A  R   R   N   NN  II  N   NN  G    G                |
|           W    W  A    A  R    R  N    N  II  N    N   GGGG   !!!           |
|                                                                             |
|     You use a magnetic or noncollinear calculation, but did not specify     |
|     the initial magnetic moment with the MAGMOM tag. Note that a            |
|     default of 1 will be used for all atoms. This ferromagnetic setup       |
|     may break the symmetry of the crystal, in particular it may rule        |
|     out finding an antiferromagnetic solution. Thence, we recommend         |
|     setting the initial magnetic moment manually or verifying carefully     |
|     that this magnetic setup is desired.                                    |
|                                                                             |
 -----------------------------------------------------------------------------

 POTCAR:    PAW_PBE C 08Apr2002                   
   SHA256 =  253f7b50bb8d59471dbedb8285d89021f4a42ed1a2c5d38a03a736e69125dd95 C/POTCAR              
   COPYR  = (c) Copyright 08Apr2002 Georg Kresse                                                    
   COPYR  = This file is part of the software VASP. Any use, copying, and all other rights are regul
   COPYR  = If you do not have a valid VASP license, you may not use, copy or distribute this file. 
   VRHFIN =C: s2p2                                                                                  
   LEXCH  = PE                                                                                      
   EATOM  =   147.1560 eV,   10.8157 Ry                                                             
                                                                                                    
   TITEL  = PAW_PBE C 08Apr2002                                                                     
   LULTRA =        F    use ultrasoft PP ?                                                          
   IUNSCR =        1    unscreen: 0-lin 1-nonlin 2-no                                               
   RPACOR =    1.200    partial core radius                                                         
   POMASS =   12.011; ZVAL   =    4.000    mass and valenz                                          
   RCORE  =    1.500    outmost cutoff radius                                                       
   RWIGS  =    1.630; RWIGS  =    0.863    wigner-seitz radius (au A)                               
   ENMAX  =  400.000; ENMIN  =  300.000 eV                                                          
   ICORE  =        2    local potential                                                             
   LCOR   =        T    correct aug charges                                                         
   LPAW   =        T    paw PP                                                                      
   EAUG   =  644.873                                                                                
   DEXC   =    0.000                                                                                
   RMAX   =    1.529    core radius for proj-oper                                                   
   RAUG   =    1.300    factor for augmentation sphere                                              
   RDEP   =    1.501    radius for radial grids                                                     
   RDEPT  =    1.300    core radius for aug-charge                                                  
                                                                                                    
   Atomic configuration                                                                             
    4 entries                                                                                       
     n  l   j            E        occ.                                                              
     1  0  0.50      -273.3789   2.0000                                                             
     2  0  0.50       -13.7508   2.0000                                                             
     2  1  0.50        -5.2854   2.0000                                                             
     3  2  1.50        -5.4423   0.0000                                                             
   Description                                                                                      
     l       E           TYP  RCUT    TYP  RCUT                                                     
     0    -13.7508458     23  1.200                                                                 
     0     -8.2022199     23  1.200                                                                 
     1     -5.2854383     23  1.500                                                                 
     1     34.0145650     23  1.500                                                                 
     2     -5.4423304      7  1.500                                                                 
  local pseudopotential read in
  partial core-charges read in
  partial kinetic energy density read in
  atomic valenz-charges read in
  non local Contribution for L=           0  read in
    real space projection operators read in
  non local Contribution for L=           0  read in
    real space projection operators read in
  non local Contribution for L=           1  read in
    real space projection operators read in
  non local Contribution for L=           1  read in
    real space projection operators read in
    PAW grid and wavefunctions read in
 
   number of l-projection  operators is LMAX  =           4
   number of lm-projection operators is LMMAX =           8
 
 POTCAR:    PAW_PBE N 08Apr2002                   
   SHA256 =  e053789ff3a61a86a1b75d8a110fcc91f86041011e7b0817c7c99e4e8a6349d7 N/POTCAR              
   COPYR  = (c) Copyright 08Apr2002 Georg Kresse                                                    
   COPYR  = This file is part of the software VASP. Any use, copying, and all other rights are regul
   COPYR  = If you do not have a valid VASP license, you may not use, copy or distribute this file. 
   VRHFIN =N: s2p3                                                                                  
   LEXCH  = PE                                                                                      
   EATOM  =   264.5486 eV,   19.4438 Ry                                                             
                                                                                                    
   TITEL  = PAW_PBE N 08Apr2002                                                                     
   LULTRA =        F    use ultrasoft PP ?                                                          
   IUNSCR =        1    unscreen: 0-lin 1-nonlin 2-no                                               
   RPACOR =    1.200    partial core radius                                                         
   POMASS =   14.001; ZVAL   =    5.000    mass and valenz                                          
   RCORE  =    1.500    outmost cutoff radius                                                       
   RWIGS  =    1.400; RWIGS  =    0.741    wigner-seitz radius (au A)                               
   ENMAX  =  400.000; ENMIN  =  300.000 eV                                                          
   ICORE  =        2    local potential                                                             
   LCOR   =        T    correct aug charges                                                         
   LPAW   =        T    paw PP                                                                      
   EAUG   =  627.112                                                                                
   DEXC   =    0.000                                                                                
   RMAX   =    1.529    core radius for proj-oper                                                   
   RAUG   =    1.300    factor for augmentation sphere                                              
   RDEP   =    1.514    radius for radial grids                                                     
   RDEPT  =    1.338    core radius for aug-charge                                                  
                                                                                                    
   Atomic configuration                                                                             
    4 entries                                                                                       
     n  l   j            E        occ.                                                              
     1  0  0.50      -384.7179   2.0000                                                             
     2  0  0.50       -18.5828   2.0000                                                             
     2  1  0.50        -7.0898   3.0000                                                             
     3  2  1.50        -6.8029   0.0000                                                             
   Description                                                                                      
     l       E           TYP  RCUT    TYP  RCUT                                                     
     0    -18.5828119     23  1.200                                                                 
     0    -13.5018863     23  1.200                                                                 
     1     -7.0897853     23  1.500                                                                 
     1      9.5240782     23  1.500                                                                 
     2     -6.8029130      7  1.500                                                                 
  local pseudopotential read in
  partial core-charges read in
  partial kinetic energy density read in
  atomic valenz-charges read in
  non local Contribution for L=           0  read in
    real space projection operators read in
  non local Contribution for L=           0  read in
    real space projection operators read in
  non local Contribution for L=           1  read in
    real space projection operators read in
  non local Contribution for L=           1  read in
    real space projection operators read in
    PAW grid and wavefunctions read in
 
   number of l-projection  operators is LMAX  =           4
   number of lm-projection operators is LMMAX =           8
 
 POTCAR:    PAW_PBE O 08Apr2002                   
   SHA256 =  818f92134a0a090dccd8ba1447fa70422a3b330e708bb4f08108d8ae51209ddf O/POTCAR              
   COPYR  = (c) Copyright 08Apr2002 Georg Kresse                                                    
   COPYR  = This file is part of the software VASP. Any use, copying, and all other rights are regul
   COPYR  = If you do not have a valid VASP license, you may not use, copy or distribute this file. 
   VRHFIN =O: s2p4                                                                                  
   LEXCH  = PE                                                                                      
   EATOM  =   432.3788 eV,   31.7789 Ry                                                             
                                                                                                    
   TITEL  = PAW_PBE O 08Apr2002                                                                     
   LULTRA =        F    use ultrasoft PP ?                                                          
   IUNSCR =        1    unscreen: 0-lin 1-nonlin 2-no                                               
   RPACOR =    1.200    partial core radius                                                         
   POMASS =   16.000; ZVAL   =    6.000    mass and valenz                                          
   RCORE  =    1.520    outmost cutoff radius                                                       
   RWIGS  =    1.550; RWIGS  =    0.820    wigner-seitz radius (au A)                               
   ENMAX  =  400.000; ENMIN  =  300.000 eV                                                          
   ICORE  =        2    local potential                                                             
   LCOR   =        T    correct aug charges                                                         
   LPAW   =        T    paw PP                                                                      
   EAUG   =  605.392                                                                                
   DEXC   =    0.000                                                                                
   RMAX   =    1.553    core radius for proj-oper                                                   
   RAUG   =    1.300    factor for augmentation sphere                                              
   RDEP   =    1.550    radius for radial grids                                                     
   RDEPT  =    1.329    core radius for aug-charge                                                  
                                                                                                    
   Atomic configuration                                                                             
    4 entries                                                                                       
     n  l   j            E        occ.                                                              
     1  0  0.50      -514.6923   2.0000                                                             
     2  0  0.50       -23.9615   2.0000                                                             
     2  1  0.50        -9.0305   4.0000                                                             
     3  2  1.50        -9.5241   0.0000                                                             
   Description                                                                                      
     l       E           TYP  RCUT    TYP  RCUT                                                     
     0    -23.9615318     23  1.200                                                                 
     0     -9.5240782     23  1.200                                                                 
     1     -9.0304911     23  1.520                                                                 
     1      8.1634956     23  1.520                                                                 
     2     -9.5240782      7  1.500                                                                 
  local pseudopotential read in
  partial core-charges read in
  partial kinetic energy density read in
  kinetic energy density of atom read in
  atomic valenz-charges read in
  non local Contribution for L=           0  read in
    real space projection operators read in
  non local Contribution for L=           0  read in
    real space projection operators read in
  non local Contribution for L=           1  read in
    real space projection operators read in
  non local Contribution for L=           1  read in
    real space projection operators read in
    PAW grid and wavefunctions read in
 
   number of l-projection  operators is LMAX  =           4
   number of lm-projection operators is LMMAX =           8
 
 POTCAR:    PAW_PBE H 15Jun2001                   
   SHA256 =  030f79b5d3ab3cf0e668861823c8fb652ff669f3e15e46930bd03bfd63a607b6 H/POTCAR              
   COPYR  = (c) Copyright 15Jun2001 Georg Kresse                                                    
   COPYR  = This file is part of the software VASP. Any use, copying, and all other rights are regul
   COPYR  = If you do not have a valid VASP license, you may not use, copy or distribute this file. 
   VRHFIN =H: ultrasoft test                                                                        
   LEXCH  = PE                                                                                      
   EATOM  =    12.4884 eV,    0.9179 Ry                                                             
                                                                                                    
   TITEL  = PAW_PBE H 15Jun2001                                                                     
   LULTRA =        F    use ultrasoft PP ?                                                          
   IUNSCR =        0    unscreen: 0-lin 1-nonlin 2-no                                               
   RPACOR =    0.000    partial core radius                                                         
   POMASS =    1.000; ZVAL   =    1.000    mass and valenz                                          
   RCORE  =    1.100    outmost cutoff radius                                                       
   RWIGS  =    0.700; RWIGS  =    0.370    wigner-seitz radius (au A)                               
   ENMAX  =  250.000; ENMIN  =  200.000 eV                                                          
   RCLOC  =    0.701    cutoff for local pot                                                        
   LCOR   =        T    correct aug charges                                                         
   LPAW   =        T    paw PP                                                                      
   EAUG   =  400.000                                                                                
   RMAX   =    1.123    core radius for proj-oper                                                   
   RAUG   =    1.200    factor for augmentation sphere                                              
   RDEP   =    1.112    radius for radial grids                                                     
   RDEPT  =    0.926    core radius for aug-charge                                                  
                                                                                                    
   Atomic configuration                                                                             
    2 entries                                                                                       
     n  l   j            E        occ.                                                              
     1  0  0.50        -6.4927   1.0000                                                             
     2  1  0.50        -3.4015   0.0000                                                             
   Description                                                                                      
     l       E           TYP  RCUT    TYP  RCUT                                                     
     0     -6.4927494     23  1.100                                                                 
     0      6.8029130     23  1.100                                                                 
     1     -4.0817478     23  1.100                                                                 
  local pseudopotential read in
  atomic valenz-charges read in
  non local Contribution for L=           0  read in
    real space projection operators read in
  non local Contribution for L=           0  read in
    real space projection operators read in
  non local Contribution for L=           1  read in
    real space projection operators read in
    PAW grid and wavefunctions read in
 
   number of l-projection  operators is LMAX  =           3
   number of lm-projection operators is LMMAX =           5
 
 Optimization of the real space projectors (new method)

 maximal supplied QI-value         = 25.13
 optimisation between [QCUT,QGAM] = [ 11.31, 22.87] = [ 35.82,146.48] Ry 
 Optimized for a Real-space Cutoff    1.03 Angstroem

   l    n(q)    QCUT    max X(q) W(low)/X(q) W(high)/X(q)  e(spline) 
   0      7    11.310   115.676    0.20E-03    0.90E-03    0.20E-06
   0      7    11.310    87.132    0.20E-03    0.89E-03    0.19E-06
   1      6    11.310     4.429    0.16E-03    0.28E-03    0.12E-06
   1      6    11.310     2.733    0.12E-03    0.21E-03    0.99E-07
 Optimization of the real space projectors (new method)

 maximal supplied QI-value         = 25.13
 optimisation between [QCUT,QGAM] = [ 11.31, 22.87] = [ 35.82,146.48] Ry 
 Optimized for a Real-space Cutoff    1.43 Angstroem

   l    n(q)    QCUT    max X(q) W(low)/X(q) W(high)/X(q)  e(spline) 
   0     10    11.310    79.467    0.42E-04    0.81E-04    0.60E-06
   0     10    11.310    66.151    0.40E-04    0.81E-04    0.60E-06
   1      9    11.310    17.416    0.14E-03    0.88E-04    0.14E-05
   1      9    11.310    12.382    0.15E-03    0.93E-04    0.14E-05
 Optimization of the real space projectors (new method)

 maximal supplied QI-value         = 24.76
 optimisation between [QCUT,QGAM] = [ 11.39, 22.77] = [ 36.31,145.25] Ry 
 Optimized for a Real-space Cutoff    1.10 Angstroem

   l    n(q)    QCUT    max X(q) W(low)/X(q) W(high)/X(q)  e(spline) 
   0      7    11.387    20.381    0.22E-03    0.48E-03    0.18E-06
   0      7    11.387    15.268    0.22E-03    0.52E-03    0.19E-06
   1      7    11.387     5.964    0.22E-03    0.73E-03    0.24E-06
   1      7    11.387     5.382    0.19E-03    0.60E-03    0.21E-06
 Optimization of the real space projectors (new method)

 maximal supplied QI-value         = 34.20
 optimisation between [QCUT,QGAM] = [ 11.29, 22.57] = [ 35.68,142.71] Ry 
 Optimized for a Real-space Cutoff    1.20 Angstroem

   l    n(q)    QCUT    max X(q) W(low)/X(q) W(high)/X(q)  e(spline) 
   0      8    11.287    19.460    0.22E-03    0.50E-03    0.19E-06
   0      8    11.287    12.209    0.21E-03    0.48E-03    0.18E-06
   1      8    11.287     4.655    0.21E-03    0.11E-04    0.26E-06
  PAW_PBE C 08Apr2002                   :
 energy of atom  1       EATOM= -147.1560
 kinetic energy error for atom=    0.0076 (will be added to EATOM!!)
  PAW_PBE N 08Apr2002                   :
 energy of atom  2       EATOM= -264.5486
 kinetic energy error for atom=    0.0138 (will be added to EATOM!!)
  PAW_PBE O 08Apr2002                   :
 energy of atom  3       EATOM= -432.3788
 kinetic energy error for atom=    0.0224 (will be added to EATOM!!)
  PAW_PBE H 15Jun2001                   :
 energy of atom  4       EATOM=  -12.4884
 kinetic energy error for atom=    0.0020 (will be added to EATOM!!)
 
 
 POSCAR: C N O H
  positions in direct lattice
  velocities in cartesian coordinates
 exchange correlation table for  LEXCH =        8
   RHO(1)=    0.500       N(1)  =     2000
   RHO(2)=  100.500       N(2)  =     4000
 


--------------------------------------------------------------------------------------------------------


 ion  position               nearest neighbor table
   1  0.501  0.464  0.500-  19 1.08   2 1.38   6 1.40
   2  0.467  0.464  0.500-  18 1.08   1 1.38   3 1.39
   3  0.450  0.494  0.500-   4 1.39   2 1.39   9 1.46
   4  0.467  0.524  0.500-  17 1.08   5 1.39   3 1.39
   5  0.502  0.524  0.500-  16 1.08   4 1.39   6 1.40
   6  0.519  0.494  0.500-   5 1.40   1 1.40   7 1.50
   7  0.556  0.492  0.500-  10 1.22   8 1.50   6 1.50
   8  0.576  0.524  0.500-  14 1.09  15 1.09  13 1.09   7 1.50
   9  0.414  0.494  0.500-  12 1.22  11 1.22   3 1.46
  10  0.570  0.465  0.500-   7 1.22
  11  0.399  0.521  0.500-   9 1.22
  12  0.399  0.467  0.500-   9 1.22
  13  0.570  0.539  0.522-   8 1.09
  14  0.603  0.518  0.500-   8 1.09
  15  0.570  0.539  0.478-   8 1.09
  16  0.515  0.548  0.500-   5 1.08
  17  0.453  0.548  0.500-   4 1.08
  18  0.453  0.440  0.500-   2 1.08
  19  0.515  0.440  0.500-   1 1.08
 
  LATTYP: Found a simple cubic cell.
 ALAT       =    40.0000000000
  
  Lattice vectors:
  
 A1 = (  40.0000000000,   0.0000000000,   0.0000000000)
 A2 = (   0.0000000000,  40.0000000000,   0.0000000000)
 A3 = (   0.0000000000,   0.0000000000,  40.0000000000)


Analysis of symmetry for initial positions (statically):
=====================================================================
 Subroutine PRICEL returns:
 Original cell was already a primitive cell.
 

 Routine SETGRP: Setting up the symmetry group for a 
 simple cubic supercell.


 Subroutine GETGRP returns: Found  1 space group operations
 (whereof  1 operations were pure point group operations)
 out of a pool of 48 trial point group operations.


The static configuration has the point symmetry C_1 .


Analysis of symmetry for dynamics (positions and initial velocities):
=====================================================================
 Subroutine PRICEL returns:
 Original cell was already a primitive cell.
 

 Routine SETGRP: Setting up the symmetry group for a 
 simple cubic supercell.


 Subroutine GETGRP returns: Found  1 space group operations
 (whereof  1 operations were pure point group operations)
 out of a pool of 48 trial point group operations.


The dynamic configuration has the point symmetry C_1 .


Analysis of constrained symmetry for selective dynamics:
=====================================================================
 Subroutine PRICEL returns:
 Original cell was already a primitive cell.
 

 Routine SETGRP: Setting up the symmetry group for a 
 simple cubic supercell.


 Subroutine GETGRP returns: Found  1 space group operations
 (whereof  1 operations were pure point group operations)
 out of a pool of 48 trial point group operations.


The constrained configuration has the point symmetry C_1 .


Analysis of structural, dynamic, and magnetic symmetry:
=====================================================================
 Subroutine PRICEL returns:
 Original cell was already a primitive cell.
 

 Routine SETGRP: Setting up the symmetry group for a 
 simple cubic supercell.


 Subroutine GETGRP returns: Found  1 space group operations
 (whereof  1 operations were pure point group operations)
 out of a pool of 48 trial point group operations.


The overall configuration has the point symmetry C_1 .


 Subroutine INISYM returns: Found  1 space group operations
 (whereof  1 operations are pure point group operations),
 and found     1 'primitive' translations


----------------------------------------------------------------------------------------

                                     Primitive cell                                     

  volume of cell :   64000.0000

  direct lattice vectors                    reciprocal lattice vectors
    40.000000000  0.000000000  0.000000000     0.025000000  0.000000000  0.000000000
     0.000000000 40.000000000  0.000000000     0.000000000  0.025000000  0.000000000
     0.000000000  0.000000000 40.000000000     0.000000000  0.000000000  0.025000000

  length of vectors
    40.000000000 40.000000000 40.000000000     0.025000000  0.025000000  0.025000000

  position of ions in fractional coordinates (direct lattice)
     0.501279325  0.463620105  0.499981367
     0.466756717  0.463561395  0.500006136
     0.450261958  0.494104862  0.500037596
     0.467112272  0.524364064  0.500047586
     0.501742282  0.523983118  0.500021668
     0.519034814  0.493675155  0.499990888
     0.556466401  0.492171467  0.499958013
     0.576020959  0.524076843  0.499939609
     0.413768200  0.494287570  0.500059043
     0.570449575  0.465033749  0.499947580
     0.399439311  0.521344659  0.500079852
     0.399189405  0.467380561  0.500054870
     0.569946302  0.539081847  0.521946395
     0.602571874  0.518284769  0.499878720
     0.569848597  0.539130424  0.477997424
     0.515048748  0.547545414  0.500022691
     0.453354051  0.547616815  0.500069619
     0.452742174  0.440472075  0.500001263
     0.514966035  0.440269109  0.499958682

  ion indices of the primitive-cell ions
   primitive index   ion index
                 1           1
                 2           2
                 3           3
                 4           4
                 5           5
                 6           6
                 7           7
                 8           8
                 9           9
                10          10
                11          11
                12          12
                13          13
                14          14
                15          15
                16          16
                17          17
                18          18
                19          19

----------------------------------------------------------------------------------------

 
 
 KPOINTS: K-Point Grid                            

Automatic generation of k-mesh.
 Grid dimensions read from file:
 generate k-points for:    1    1    1

 Generating k-lattice:

  Cartesian coordinates                     Fractional coordinates (reciprocal lattice)
     0.025000000  0.000000000  0.000000000     1.000000000  0.000000000  0.000000000
     0.000000000  0.025000000  0.000000000     0.000000000  1.000000000  0.000000000
     0.000000000  0.000000000  0.025000000     0.000000000  0.000000000  1.000000000

  Length of vectors
     0.025000000  0.025000000  0.025000000

  Shift w.r.t. Gamma in fractional coordinates (k-lattice)
     0.000000000  0.000000000  0.000000000

 
 Subroutine IBZKPT returns following result:
 ===========================================
 
 Found      1 irreducible k-points:
 
 Following reciprocal coordinates:
            Coordinates               Weight
  0.000000  0.000000  0.000000      1.000000
 
 Following cartesian coordinates:
            Coordinates               Weight
  0.000000  0.000000  0.000000      1.000000
 
 
 Subroutine IBZKPT_HF returns following result:
 ==============================================
 
 Found      1 k-points in 1st BZ
 the following      1 k-points will be used (e.g. in the exchange kernel)
 Following reciprocal coordinates:   # in IRBZ
  0.000000  0.000000  0.000000    1.00000000   1 t-inv F


--------------------------------------------------------------------------------------------------------




 Dimension of arrays:
   k-points           NKPTS =      1   k-points in BZ     NKDIM =      1   number of bands    NBANDS=     54
   number of dos      NEDOS =    301   number of ions     NIONS =     19
   non local maximal  LDIM  =      4   non local SUM 2l+1 LMDIM =      8
   total plane-waves  NPLWV = ******
   max r-space proj   IRMAX =   4928   max aug-charges    IRDMAX=   5350
   dimension x,y,z NGX =   294 NGY =  294 NGZ =  294
   dimension x,y,z NGXF=   588 NGYF=  588 NGZF=  588
   support grid    NGXF=   588 NGYF=  588 NGZF=  588
   ions per type =               8   1   3   7
   NGX,Y,Z   is equivalent  to a cutoff of  12.22, 12.22, 12.22 a.u.
   NGXF,Y,Z  is equivalent  to a cutoff of  24.44, 24.44, 24.44 a.u.

 SYSTEM =  150_ox                                  
 POSCAR =  C N O H                                 

 Startparameter for this run:
   NWRITE =      2    write-flag & timer
   PREC   = accura    normal or accurate (medium, high low for compatibility)
   ISTART =      1    job   : 0-new  1-cont  2-samecut
   ICHARG =      2    charge: 1-file 2-atom 10-const
   ISPIN  =      2    spin polarized calculation?
   LNONCOLLINEAR =      F non collinear calculations
   LSORBIT =      F    spin-orbit coupling
   INIWAV =      1    electr: 0-lowe 1-rand  2-diag
   LASPH  =      F    aspherical Exc in radial PAW
 Electronic Relaxation 1
   ENCUT  =  500.0 eV  36.75 Ry    6.06 a.u.  72.93 72.93 72.93*2*pi/ulx,y,z
   ENINI  =  500.0     initial cutoff
   ENAUG  =  644.9 eV  augmentation charge cutoff
   NELM   =    500;   NELMIN=  2; NELMDL=  0     # of ELM steps 
   EDIFF  = 0.1E-04   stopping-criterion for ELM
   LREAL  =      T    real-space projection
   NLSPLINE    = F    spline interpolate recip. space projectors
   LCOMPAT=      F    compatible to vasp.4.4
   GGA_COMPAT  = T    GGA compatible to vasp.4.4-vasp.4.6
   LMAXPAW     = -100 max onsite density
   LMAXMIX     =    2 max onsite mixed and CHGCAR
   VOSKOWN=      0    Vosko Wilk Nusair interpolation
   ROPT   =   -0.00025  -0.00025  -0.00025  -0.00025
 Ionic relaxation
   EDIFFG = -.2E-01   stopping-criterion for IOM
   NSW    =    500    number of steps for IOM
   NBLOCK =      1;   KBLOCK =    500    inner block; outer block 
   IBRION =      2    ionic relax: 0-MD 1-quasi-New 2-CG
   NFREE  =      1    steps in history (QN), initial steepest desc. (CG)
   ISIF   =      2    stress and relaxation
   IWAVPR =     11    prediction:  0-non 1-charg 2-wave 3-comb
   ISYM   =      3    0-nonsym 1-usesym 2-fastsym
   LCORR  =      T    Harris-Foulkes like correction to forces

   POTIM  = 0.5000    time-step for ionic-motion
   TEIN   =    0.0    initial temperature
   TEBEG  =    0.0;   TEEND  =   0.0 temperature during run
   SMASS  =  -3.00    Nose mass-parameter (am)
   estimated Nose-frequenzy (Omega)   =  0.10E-29 period in steps = 0.13E+47 mass=  -0.366E-25a.u.
   SCALEE = 1.0000    scale energy and forces
   NPACO  =    256;   APACO  = 10.0  distance and # of slots for P.C.
   PSTRESS=    0.0 pullay stress

  Mass of Ions in am
   POMASS =  12.01 14.00 16.00  1.00
  Ionic Valenz
   ZVAL   =   4.00  5.00  6.00  1.00
  Atomic Wigner-Seitz radii
   RWIGS  =  -1.00 -1.00 -1.00 -1.00
  virtual crystal weights 
   VCA    =   1.00  1.00  1.00  1.00
   NELECT =      62.0000    total number of electrons
   NUPDOWN=      -1.0000    fix difference up-down

 DOS related values:
   EMIN   =  10.00;   EMAX   =-10.00  energy-range for DOS
   EFERMI =   0.00;   METHOD = LEGACY      
   ISMEAR =     0;   SIGMA  =   0.05  broadening in eV -4-tet -1-fermi 0-gaus

 Electronic relaxation 2 (details)
   IALGO  =     53    algorithm
   LDIAG  =      F    sub-space diagonalisation (order eigenvalues)
   LSUBROT=      F    optimize rotation matrix (better conditioning)
   TURBO    =      0    0=normal 1=particle mesh
   IRESTART =      0    0=no restart 2=restart with 2 vectors
   NREBOOT  =      0    no. of reboots
   NMIN     =      0    reboot dimension
   EREF     =   0.00    reference energy to select bands
   IMIX   =      4    mixing-type and parameters
     AMIX     =   0.40;   BMIX     =  1.00
     AMIX_MAG =   1.60;   BMIX_MAG =  1.00
     AMIN     =   0.10
     WC   =   100.;   INIMIX=   1;  MIXPRE=   1;  MAXMIX= -45

 Intra band minimization:
   WEIMIN = 0.0010     energy-eigenvalue tresh-hold
   EBREAK =  0.46E-07  absolut break condition
   DEPER  =   0.30     relativ break condition  

   TIME   =   0.40     timestep for ELM

  volume/ion in A,a.u.               =    3368.42     22731.23
  Fermi-wavevector in a.u.,A,eV,Ry     =   0.161986  0.306110  0.357012  0.026240
  Thomas-Fermi vector in A             =   0.858209
 
 Write flags
   LWAVE        =      T    write WAVECAR
   LDOWNSAMPLE  =      F    k-point downsampling of WAVECAR
   LCHARG       =      F    write CHGCAR
   LVTOT        =      F    write LOCPOT, total local potential
   LVHAR        =      F    write LOCPOT, Hartree potential only
   LELF         =      F    write electronic localiz. function (ELF)
   LORBIT       =      0    0 simple, 1 ext, 2 COOP (PROOUT), +10 PAW based schemes


 Dipole corrections
   LMONO  =      F    monopole corrections only (constant potential shift)
   LDIPOL =      F    correct potential (dipole corrections)
   IDIPOL =      0    1-x, 2-y, 3-z, 4-all directions 
   EPSILON=  1.0000000 bulk dielectric constant

 Exchange correlation treatment:
   GGA     =    --    GGA type
   LEXCH   =     8    internal setting for exchange type
   LIBXC   =     F    Libxc                    
   VOSKOWN =     0    Vosko Wilk Nusair interpolation
   EXXOEP  =     0    0=HF, 1=EXX-LHF (local Hartree Fock) 2=EXX OEP
   LHFCALC =     T    Hartree Fock is set to
   LSYMGRAD=     F    symmetrize gradient (conserves proper symmetry)
   PRECFOCK=normal    Normal, Fast or Accurate (Low or Medium for compatibility)
   LRHFCALC=     F    long range Hartree Fock
   LRSCOR  =     F    long range correlation only (use DFT for short range part)
   LTHOMAS =     F    Thomas Fermi screening in HF
   LMODELHF=     F    short range full HF, long range fraction AEXX
   FOCKCORR=     1    mode to apply convergence corrections
   LFOCKACE=     F    use Adeptively-Compressed-Exchange operator
   ENCUT4O =  -1.0   cutoff for four orbital integrals eV
   LMAXFOCK=     4    L truncation for augmentation on plane wave grid
   LMAXFOCKAE=  -1    L truncation for all-electron charge restoration on plane wave grid
   NMAXFOCKAE=   1    number of basis functions for all-electron charge restoration
   LFOCKAEDFT=     F  apply the AE augmentation even for DFT
   NKREDX  =     1    reduce k-point grid by
   NKREDY  =     1    reduce k-point grid by
   NKREDZ  =     1    reduce k-point grid by
   SHIFTRED=     F    shift reduced grid of Gamma
   HFKIDENT=     F    idential grid for each k-point
   ODDONLY =     F    use only odd q-grid points
   EVENONLY=     F    use only even q-grid points
   HFALPHA =   -1.0000 decay constant for conv. correction
   MCALPHA =    0.0000 extent of test-charge in conv. correction in multipole expansion
   AEXX    =    0.2500 exact exchange contribution
   HFSCREEN=    0.2000 screening length (either q_TF or 0.3 A-1)
   HFSCREENC=   0.2000 screening length for correlation (either q_TF or 0.3 A-1)
   HFRCUT  =    0.0000 spherical cutoff for potential kernel
   ALDAX   =    0.7500 LDA exchange part
   AGGAX   =    0.7500 GGA exchange part
   ALDAC   =    1.0000 LDA correlation
   AGGAC   =    1.0000 GGA correlation
   ENCUTFOCK=  -1.0 apply spherical cutoff to Coloumb kernel
   NBANDSGWLOW=     1    first orbital included in HF term
   NBLOCK_FOCK=    64    blocking factor in FOCK_ACC

 Linear response parameters
   LEPSILON=     F    determine dielectric tensor
   LRPA    =     F    only Hartree local field effects (RPA)
   LNABLA  =     F    use nabla operator in PAW spheres
   LVEL    =     F    velocity operator in full k-point grid
   CSHIFT  =0.1000    complex shift for real part using Kramers Kronig
   OMEGAMAX=  -1.0    maximum frequency
   DEG_THRESHOLD= 0.2000000E-02 threshold for treating states as degnerate
   RTIME   =   -0.100 relaxation time in fs
  (WPLASMAI=    0.000 imaginary part of plasma frequency in eV, 0.658/RTIME)
   DFIELD  = 0.0000000 0.0000000 0.0000000 field for delta impulse in time
 
  Optional k-point grid parameters
   LKPOINTS_OPT  =     F    use optional k-point grid
   KPOINTS_OPT_MODE=     1    mode for optional k-point grid
 
 Orbital magnetization related:
   ORBITALMAG=     F  switch on orbital magnetization
   LCHIMAG   =     F  perturbation theory with respect to B field
   DQ        =  0.001000  dq finite difference perturbation B field
   LLRAUG    =     F  two centre corrections for induced B field
   LBONE     =     F  B-component reconstruction in AE one-centre
   LVGVCALC  =     T  calculate vGv susceptibility
   LVGVAPPL  =     F  apply vGv susceptibility instead of pGv for G=0

 Random number generation:
   RANDOM_GENERATOR = DEFAULT
   PCG_SEED         = not used
 Solvation model:
   LSOL    =     T         switch on solvation model
   EB_K    = 35.688000     relative permittivity of the bulk solvent
   SIGMA_K =  0.600000     width of the dielectric cavity
   NC_K    =  0.002500     cutoff charge density
   TAU     =  0.000000     cavity surface tension
   LAMBDA_D_K    =  3.040000     Debye length in Angstroms
   LRHOB     =     F     write boundcharge  density
   LRHOION     =     F     write ioniccharge density



--------------------------------------------------------------------------------------------------------


 conjugate gradient relaxation of ions
   using selective dynamics as specified on POSCAR
 charge density and potential will be updated during run
 spin polarized calculation
 Conjugate gradient for all bands (Kresse, et al. variant)
 perform Loewdin sub-space diagonalisation
    ordering is kept fixed
    before iterative eigenvector-optimisation
 modified Broyden-mixing scheme, WC =      100.0
 initial mixing is a Kerker type mixing with AMIX =  0.4000 and BMIX =      1.0000
 Hartree-type preconditioning will be used
 using additional bands           23
 real space projection scheme for non local part
 use partial core corrections
 no Harris-corrections to forces 
 use gradient corrections 
 use of overlap-Matrix (Vanderbilt PP)
 Gauss-broadening in eV      SIGMA  =   0.05


--------------------------------------------------------------------------------------------------------


  energy-cutoff  :      500.00
  volume of cell :    64000.00
      direct lattice vectors                 reciprocal lattice vectors
    40.000000000  0.000000000  0.000000000     0.025000000  0.000000000  0.000000000
     0.000000000 40.000000000  0.000000000     0.000000000  0.025000000  0.000000000
     0.000000000  0.000000000 40.000000000     0.000000000  0.000000000  0.025000000

  length of vectors
    40.000000000 40.000000000 40.000000000     0.025000000  0.025000000  0.025000000


 
 old parameters found on file WAVECAR:
  energy-cutoff  :      500.00
  volume of cell :    64000.00
      direct lattice vectors                 reciprocal lattice vectors
    40.000000000  0.000000000  0.000000000     0.025000000  0.000000000  0.000000000
     0.000000000 40.000000000  0.000000000     0.000000000  0.025000000  0.000000000
     0.000000000  0.000000000 40.000000000     0.000000000  0.000000000  0.025000000

  length of vectors

 
 k-points in units of 2pi/SCALE and weight: K-Point Grid                            
   0.00000000  0.00000000  0.00000000       1.000
 
 k-points in reciprocal lattice and weights: K-Point Grid                            
   0.00000000  0.00000000  0.00000000       1.000
 
 position of ions in fractional coordinates (direct lattice) 
   0.50127932  0.46362011  0.49998137
   0.46675672  0.46356139  0.50000614
   0.45026196  0.49410486  0.50003760
   0.46711227  0.52436406  0.50004759
   0.50174228  0.52398312  0.50002167
   0.51903481  0.49367516  0.49999089
   0.55646640  0.49217147  0.49995801
   0.57602096  0.52407684  0.49993961
   0.41376820  0.49428757  0.50005904
   0.57044957  0.46503375  0.49994758
   0.39943931  0.52134466  0.50007985
   0.39918940  0.46738056  0.50005487
   0.56994630  0.53908185  0.52194640
   0.60257187  0.51828477  0.49987872
   0.56984860  0.53913042  0.47799742
   0.51504875  0.54754541  0.50002269
   0.45335405  0.54761681  0.50006962
   0.45274217  0.44047207  0.50000126
   0.51496603  0.44026911  0.49995868
 
 position of ions in cartesian coordinates  (Angst):
  20.05117298 18.54480421 19.99925468
  18.67026870 18.54245580 20.00024543
  18.01047833 19.76419449 20.00150382
  18.68449089 20.97456255 20.00190343
  20.06969127 20.95932473 20.00086671
  20.76139255 19.74700621 19.99963550
  22.25865602 19.68685867 19.99832050
  23.04083837 20.96307371 19.99758438
  16.55072801 19.77150278 20.00236173
  22.81798300 18.60134996 19.99790319
  15.97757243 20.85378637 20.00319407
  15.96757618 18.69522246 20.00219480
  22.79785209 21.56327389 20.87785581
  24.10287497 20.73139074 19.99514880
  22.79394387 21.56521695 19.11989696
  20.60194992 21.90181656 20.00090765
  18.13416206 21.90467258 20.00278475
  18.10968697 17.61888299 20.00005052
  20.59864138 17.61076435 19.99834727
 


--------------------------------------------------------------------------------------------------------


 k-point   1 :   0.0000 0.0000 0.0000  plane waves: 1624525

 maximum and minimum number of plane-waves per node :    108307   108296

 maximum number of plane-waves:   1624525
 maximum index in each direction: 
   IXMAX=   72   IYMAX=   72   IZMAX=   72
   IXMIN=  -72   IYMIN=  -72   IZMIN=  -72


 real space projection operators:
  total allocation   :       2352.43 KBytes
  max/ min on nodes  :        194.00        126.66


 parallel 3D FFT for wavefunctions:
    minimum data exchange during FFTs selected (reduces bandwidth)
 parallel 3D FFT for charge:
    minimum data exchange during FFTs selected (reduces bandwidth)


 FFT grid for exact exchange (Hartree Fock) 
  NGX =224; NGY =224; NGZ =224

 
 Radii for the augmentation spheres in the non-local exchange
 for species   1 augmentation radius   0.874 (default was   0.699)
       energy cutoff for augmentation   2000.0
 for species   2 augmentation radius   0.886 (default was   0.709)
       energy cutoff for augmentation   2000.0
 for species   3 augmentation radius   0.902 (default was   0.722)
       energy cutoff for augmentation   2000.0
 for species   4 augmentation radius   0.650 (default was   0.520)
       energy cutoff for augmentation   2000.0

 real space projection operators:
  total allocation   :        525.73 KBytes
  max/ min on nodes  :         46.34         22.71

 Maximum index for augmentation-charges in exchange           78
  SETUP_FOCK is finished

 total amount of memory used by VASP MPI-rank0   672686. kBytes
=======================================================================

   base      :      30000. kBytes
   nonlr-proj:       2044. kBytes
   fftplans  :     175546. kBytes
   grid      :     371484. kBytes
   one-center:         12. kBytes
   HF        :          9. kBytes
   wavefun   :      93591. kBytes
 
     INWAV:  cpu time     14.7280: real time     14.7972
 Broyden mixing: mesh for mixing (old mesh)
   NGX =145   NGY =145   NGZ =145
  (NGX  =588   NGY  =588   NGZ  =588)
  gives a total of ****** points

 initial charge density was supplied:
 charge density of overlapping atoms calculated
 number of electron      62.0000000 magnetization      19.0000000
 charge density for first step will be calculated from the start-wavefunctions


--------------------------------------------------------------------------------------------------------


 Maximum index for non-local projection operator          334
 Maximum index for augmentation-charges          270 (set IRDMAX)


--------------------------------------------------------------------------------------------------------


 initial charge from wavefunction
 First call to EWALD:  gamma=   0.044
 Maximum number of real-space cells 3x 3x 3
 Maximum number of reciprocal cells 3x 3x 3

    FEWALD:  cpu time      0.0045: real time      0.0045


--------------------------------------- Ionic step        1  -------------------------------------------




--------------------------------------- Iteration      1(   1)  ---------------------------------------


    POTLOK:  cpu time    377.8769: real time    377.9456
    SETDIJ:  cpu time      0.1511: real time      0.1511
    TRIAL :  cpu time    192.1096: real time    192.1263
    CORREC:  cpu time      0.0165: real time      0.0165
    CHARGE:  cpu time      3.3649: real time      3.3651
    --------------------------------------------
      LOOP:  cpu time    573.5722: real time    573.6583

 eigenvalue-minimisations  :     0
 total energy-change (2. order) :-0.1465755E+03  (-0.4722789E-04)
 number of electron      61.9999990 magnetization       0.0000000
 augmentation part        2.9609312 magnetization      -0.0000000

 Free energy of the ion-electron system (eV)
  ---------------------------------------------------
  alpha Z        PSCENC =         0.26386137
  Ewald energy   TEWEN  =      7130.35097765
  -Hartree energ DENC   =     -9434.77218196
  -exchange      EXHF   =       155.38809839
  -V(xc)+E(xc)   XCENC  =       180.01973733
  PAW double counting   =      5918.02161460    -5925.93275851
  entropy T*S    EENTRO =        -0.00000000
  eigenvalues    EBANDS =      -953.94236951
  atomic energy  EATOM  =      2797.38460908
  ---------------------------------------------------
  free energy    TOTEN  =      -146.57552495 eV

  energy without entropy =     -146.57552495  energy(sigma->0) =     -146.57552495
  exchange ACFDT corr.  =         0.00000000  see jH, gK, PRB 81, 115126


--------------------------------------------------------------------------------------------------------




--------------------------------------- Iteration      1(   2)  ---------------------------------------


    POTLOK:  cpu time    259.4309: real time    259.4531
    SETDIJ:  cpu time      0.1410: real time      0.1410
    TRIAL :  cpu time    190.6363: real time    190.6508
    CORREC:  cpu time      0.1851: real time      0.1851
    CHARGE:  cpu time      2.9730: real time      2.9732
    --------------------------------------------
      LOOP:  cpu time    453.3879: real time    453.4372

 eigenvalue-minimisations  :     0
 total energy-change (2. order) :-0.2048376E-05  (-0.6239292E-04)
 number of electron      61.9999990 magnetization       0.0000000
 augmentation part        2.9609347 magnetization      -0.0000000

 Free energy of the ion-electron system (eV)
  ---------------------------------------------------
  alpha Z        PSCENC =         0.26386137
  Ewald energy   TEWEN  =      7130.35097765
  -Hartree energ DENC   =     -9434.77607038
  -exchange      EXHF   =       155.38825957
  -V(xc)+E(xc)   XCENC  =       180.01985279
  PAW double counting   =      5917.94174088    -5925.85286065
  entropy T*S    EENTRO =        -0.00000000
  eigenvalues    EBANDS =      -953.94028282
  atomic energy  EATOM  =      2797.38460908
  ---------------------------------------------------
  free energy    TOTEN  =      -146.57552700 eV

  energy without entropy =     -146.57552700  energy(sigma->0) =     -146.57552700
  exchange ACFDT corr.  =        -0.00000000  see jH, gK, PRB 81, 115126


--------------------------------------------------------------------------------------------------------




--------------------------------------- Iteration      1(   3)  ---------------------------------------


    POTLOK:  cpu time    253.2437: real time    253.2658
    SETDIJ:  cpu time      0.1661: real time      0.1661
    TRIAL :  cpu time    189.4314: real time    189.4504
    CORREC:  cpu time      0.1581: real time      0.1581
    CHARGE:  cpu time      3.5603: real time      3.5606
    --------------------------------------------
      LOOP:  cpu time    446.5674: real time    446.6173

 eigenvalue-minimisations  :     0
 total energy-change (2. order) :-0.8949473E-05  (-0.3506121E-04)
 number of electron      61.9999990 magnetization      -0.0000000
 augmentation part        2.9609351 magnetization      -0.0000000

 Free energy of the ion-electron system (eV)
  ---------------------------------------------------
  alpha Z        PSCENC =         0.26386137
  Ewald energy   TEWEN  =      7130.35097765
  -Hartree energ DENC   =     -9434.77226041
  -exchange      EXHF   =       155.38799559
  -V(xc)+E(xc)   XCENC  =       180.01961226
  PAW double counting   =      5917.82330398    -5925.73448033
  entropy T*S    EENTRO =        -0.00000000
  eigenvalues    EBANDS =      -953.94551611
  atomic energy  EATOM  =      2797.38460908
  ---------------------------------------------------
  free energy    TOTEN  =      -146.57553595 eV

  energy without entropy =     -146.57553595  energy(sigma->0) =     -146.57553595
  exchange ACFDT corr.  =        -0.00000000  see jH, gK, PRB 81, 115126


--------------------------------------------------------------------------------------------------------




--------------------------------------- Iteration      1(   4)  ---------------------------------------


    POTLOK:  cpu time    257.2280: real time    257.2484
    SETDIJ:  cpu time      0.0735: real time      0.0734
    TRIAL :  cpu time    191.8633: real time    191.8788
    CORREC:  cpu time      0.0036: real time      0.0036
    CHARGE:  cpu time      3.4025: real time      3.4028
    --------------------------------------------
      LOOP:  cpu time    452.5834: real time    452.6287

 eigenvalue-minimisations  :     0
 total energy-change (2. order) :-0.9955670E-05  (-0.8437074E-05)
 number of electron      61.9999990 magnetization      -0.0000000
 augmentation part        2.9609354 magnetization      -0.0000000

 Free energy of the ion-electron system (eV)
  ---------------------------------------------------
  alpha Z        PSCENC =         0.26386137
  Ewald energy   TEWEN  =      7130.35097765
  -Hartree energ DENC   =     -9434.77777524
  -exchange      EXHF   =       155.38814545
  -V(xc)+E(xc)   XCENC  =       180.01974221
  PAW double counting   =      5917.76953993    -5925.68073561
  entropy T*S    EENTRO =        -0.00000000
  eigenvalues    EBANDS =      -953.94069302
  atomic energy  EATOM  =      2797.38460908
  ---------------------------------------------------
  free energy    TOTEN  =      -146.57554591 eV

  energy without entropy =     -146.57554591  energy(sigma->0) =     -146.57554591
  exchange ACFDT corr.  =        -0.00000000  see jH, gK, PRB 81, 115126


--------------------------------------------------------------------------------------------------------


  average scaling for gradient   0.9295


 average (electrostatic) potential at core
  the test charge radii are     0.6991  0.7089  0.7215  0.5201
  (the norm of the test charge is              1.0000)
       1 -55.6043       2 -55.7741       3 -56.9034       4 -55.8005       5 -55.7023
       6 -55.8672       7 -57.5367       8 -54.7905       9 -74.8431      10 -74.2457
      11 -75.4387      12 -75.4468      13 -38.0839      14 -37.8424      15 -38.0840
      16 -38.4508      17 -38.5092      18 -38.4898      19 -38.2498
 
 
 
 E-fermi :  -7.0584     XC(G=0):  -0.0285     alpha+bet : -0.0204

 Fermi energy:        -7.0584031079

 spin component 1

 k-point     1 :       0.0000    0.0000    0.0000
  band No.  band energies     occupation 
      1     -34.5719      1.00000
      2     -29.6900      1.00000
      3     -29.2436      1.00000
      4     -24.8792      1.00000
      5     -22.7732      1.00000
      6     -21.4760      1.00000
      7     -20.8348      1.00000
      8     -19.6221      1.00000
      9     -17.4688      1.00000
     10     -16.9919      1.00000
     11     -15.7995      1.00000
     12     -15.5096      1.00000
     13     -15.1570      1.00000
     14     -14.6318      1.00000
     15     -13.6123      1.00000
     16     -13.2818      1.00000
     17     -12.6969      1.00000
     18     -12.3437      1.00000
     19     -12.1910      1.00000
     20     -11.8341      1.00000
     21     -11.4773      1.00000
     22     -10.8730      1.00000
     23     -10.4779      1.00000
     24     -10.0490      1.00000
     25      -9.9321      1.00000
     26      -9.0945      1.00000
     27      -9.0550      1.00000
     28      -8.5444      1.00000
     29      -7.8393      1.00000
     30      -7.6694      1.00000
     31      -7.3492      1.00000
     32      -3.4473      0.00000
     33      -1.7667      0.00000
     34      -1.2375      0.00000
     35      -0.3276      0.00000
     36      -0.0208      0.00000
     37       0.0128      0.00000
     38       0.0589      0.00000
     39       0.0827      0.00000
     40       0.0953      0.00000
     41       0.0968      0.00000
     42       0.1164      0.00000
     43       0.1279      0.00000
     44       0.1318      0.00000
     45       0.1543      0.00000
     46       0.1851      0.00000
     47       0.1871      0.00000
     48       0.1885      0.00000
     49       0.1898      0.00000
     50       0.1905      0.00000
     51       0.1925      0.00000
     52       1.7201      0.00000
     53       1.2375      0.00000
     54       1.6299      0.00000
 Fermi energy:        -7.0584031079

 spin component 2

 k-point     1 :       0.0000    0.0000    0.0000
  band No.  band energies     occupation 
      1     -34.5719      1.00000
      2     -29.6900      1.00000
      3     -29.2436      1.00000
      4     -24.8792      1.00000
      5     -22.7732      1.00000
      6     -21.4760      1.00000
      7     -20.8348      1.00000
      8     -19.6221      1.00000
      9     -17.4688      1.00000
     10     -16.9919      1.00000
     11     -15.7995      1.00000
     12     -15.5096      1.00000
     13     -15.1570      1.00000
     14     -14.6318      1.00000
     15     -13.6123      1.00000
     16     -13.2818      1.00000
     17     -12.6969      1.00000
     18     -12.3437      1.00000
     19     -12.1910      1.00000
     20     -11.8341      1.00000
     21     -11.4773      1.00000
     22     -10.8730      1.00000
     23     -10.4779      1.00000
     24     -10.0490      1.00000
     25      -9.9321      1.00000
     26      -9.0945      1.00000
     27      -9.0550      1.00000
     28      -8.5444      1.00000
     29      -7.8393      1.00000
     30      -7.6694      1.00000
     31      -7.3492      1.00000
     32      -3.4473      0.00000
     33      -1.7667      0.00000
     34      -1.2375      0.00000
     35      -0.3276      0.00000
     36      -0.0208      0.00000
     37       0.0128      0.00000
     38       0.0589      0.00000
     39       0.0827      0.00000
     40       0.0953      0.00000
     41       0.0968      0.00000
     42       0.1164      0.00000
     43       0.1279      0.00000
     44       0.1318      0.00000
     45       0.1543      0.00000
     46       0.1852      0.00000
     47       0.1872      0.00000
     48       0.1886      0.00000
     49       0.1895      0.00000
     50       0.1911      0.00000
     51       0.1914      0.00000
     52       1.7085      0.00000
     53       1.2427      0.00000
     54       1.3538      0.00000


--------------------------------------------------------------------------------------------------------


 soft charge-density along one line, spin component           1
         0         1         2         3         4         5         6         7         8         9
 total charge-density along one line
 
 soft charge-density along one line, spin component           2
         0         1         2         3         4         5         6         7         8         9
 total charge-density along one line
 
 pseudopotential strength for first ion, spin component:           1
 10.022  13.326   0.002   0.000  -0.001  -0.007  -0.000   0.004
 13.326  17.720   0.003   0.000  -0.002  -0.009  -0.000   0.006
  0.002   0.003  -4.234   0.000  -0.001   8.253  -0.000   0.003
  0.000   0.000   0.000  -4.238  -0.000  -0.000   8.265   0.000
 -0.001  -0.002  -0.001  -0.000  -4.236   0.003   0.000   8.258
 -0.007  -0.009   8.253  -0.000   0.003 -18.206   0.000  -0.005
 -0.000  -0.000  -0.000   8.265   0.000   0.000 -18.236  -0.000
  0.004   0.006   0.003   0.000   8.258  -0.005  -0.000 -18.214
 pseudopotential strength for first ion, spin component:           2
 10.022  13.326   0.002   0.000  -0.001  -0.007  -0.000   0.004
 13.326  17.720   0.003   0.000  -0.002  -0.009  -0.000   0.006
  0.002   0.003  -4.234   0.000  -0.001   8.253  -0.000   0.003
  0.000   0.000   0.000  -4.238  -0.000  -0.000   8.265   0.000
 -0.001  -0.002  -0.001  -0.000  -4.236   0.003   0.000   8.258
 -0.007  -0.009   8.253  -0.000   0.003 -18.206   0.000  -0.005
 -0.000  -0.000  -0.000   8.265   0.000   0.000 -18.236  -0.000
  0.004   0.006   0.003   0.000   8.258  -0.005  -0.000 -18.214
 total augmentation occupancy for first ion, spin component:           1
  8.939  -4.046   0.216   0.000  -0.150   0.046   0.000  -0.031
 -4.046   1.867  -0.153  -0.000   0.104  -0.028  -0.000   0.018
  0.216  -0.153   1.840   0.000   0.023   0.168   0.000   0.008
  0.000  -0.000   0.000   1.118  -0.001   0.000   0.074  -0.000
 -0.150   0.104   0.023  -0.001   1.893   0.008  -0.000   0.182
  0.046  -0.028   0.168   0.000   0.008   0.016   0.000   0.002
  0.000  -0.000   0.000   0.074  -0.000   0.000   0.005  -0.000
 -0.031   0.018   0.008  -0.000   0.182   0.002  -0.000   0.019
 total augmentation occupancy for first ion, spin component:           2
 -0.000   0.000  -0.000  -0.000   0.000   0.000   0.000  -0.000
  0.000  -0.000   0.000   0.000  -0.000   0.000   0.000  -0.000
 -0.000   0.000  -0.000   0.000  -0.000  -0.000  -0.000   0.000
 -0.000   0.000   0.000   0.000   0.000   0.000  -0.000  -0.000
  0.000  -0.000  -0.000   0.000  -0.000   0.000  -0.000   0.000
  0.000   0.000  -0.000   0.000   0.000   0.000  -0.000   0.000
  0.000   0.000  -0.000  -0.000  -0.000  -0.000  -0.000  -0.000
 -0.000  -0.000   0.000  -0.000   0.000   0.000  -0.000   0.000


------------------------ aborting loop because EDIFF is reached ----------------------------------------


    FORLOC:  cpu time      0.3177: real time      0.3177
    FORHF :  cpu time    105.7832: real time    105.7934
    FORNL :  cpu time      4.3746: real time      4.3750
    STRESS:  cpu time     13.2117: real time     13.2129
    FORCOR:  cpu time     15.4248: real time     15.4269
    OFIELD:  cpu time      0.0195: real time      0.0195
 WARNING: Using user supplied parameters
     VDW_A1 = 0.383
     VDW_A2 = 5.685
     VDW_S8 = 2.31
     because the xc functional is not supported. Required parameters not
     defined in the INCAR file will be replaced with PBE defaults ones.


 ---------------------------------------------------------------------------------------------

         DFTD3 V3.0 Rev 1        
 IVDW         = 12
 DF unknown   
 parameters
 VDW_S6       =    1.0000
 VDW_S8       =    2.3100
 VDW_A1       =    0.3830
 VDW_A2       =    5.6850
 k1-k3        =   16.0000    1.3333   -4.0000
 VDW_RADIUS   =   50.2022 A
 VDW_CNRADIUS =   21.1671 A
 Edisp (eV)   -0.38345

 E6    (eV) :    -0.1966
 E8    (eV) :    -0.1869
 % E8        : 48.73
    FORVDW:  cpu time      0.0092: real time      0.0094

  FORCE on cell =-STRESS in cart. coord.  units (eV):
  Direction    XX          YY          ZZ          XY          YZ          ZX
  --------------------------------------------------------------------------------------
  Alpha Z     0.26386     0.26386     0.26386
  Ewald    4829.28191  2854.07880  -553.00962   -12.26649     1.55586    -3.72769
  Hartree  5198.34610  3186.97053  1049.46267    14.83332     0.94571    -2.86539
  E(xc)    -190.37382  -190.06968  -193.13771    -0.11832     0.00145    -0.00196
  Local  -10727.96263 -6676.61844 -1248.99579   -16.41344    -2.43348     6.56045
  n-local  -113.65783  -116.82824  -101.48744     0.69450    -0.00596     0.01065
  augment    19.40970    15.05829    15.94495     0.83296    -0.00149    -0.00276
  Kinetic  1062.88619  1007.92461  1104.52484    12.83256    -0.06010     0.02511
  Fock      -80.08031   -80.89294   -72.79361     0.33656    -0.00352     0.00525
  vdW        -0.20472    -0.06381    -0.00201    -0.01557    -0.00001     0.00015
  -------------------------------------------------------------------------------------
  Total      -2.09155    -0.17702     0.77015     0.71608    -0.00154     0.00382
  in kB      -0.05236    -0.00443     0.01928     0.01793    -0.00004     0.00010
  external pressure =       -0.01 kB  Pullay stress =        0.00 kB


 VOLUME and BASIS-vectors are now :
 -----------------------------------------------------------------------------
  energy-cutoff  :      500.00
  volume of cell :    64000.00
      direct lattice vectors                 reciprocal lattice vectors
    40.000000000  0.000000000  0.000000000     0.025000000  0.000000000  0.000000000
     0.000000000 40.000000000  0.000000000     0.000000000  0.025000000  0.000000000
     0.000000000  0.000000000 40.000000000     0.000000000  0.000000000  0.025000000

  length of vectors
    40.000000000 40.000000000 40.000000000     0.025000000  0.025000000  0.025000000


 FORCES acting on ions:
    Electron-Ion                     Ewald-Force                    Non-Local-Force
 -----------------------------------------------------------------------------------------------
   -.526E+02 0.195E+03 0.179E+00   0.543E+02 -.197E+03 -.180E+00   -.128E+01 0.201E+01 0.366E-02
   0.386E+02 0.204E+03 0.988E-01   -.392E+02 -.207E+03 -.998E-01   0.284E+00 0.311E+01 0.187E-02
   0.206E+02 0.769E-01 -.378E-01   -.149E+02 -.446E+00 0.342E-01   -.606E+01 0.680E-01 0.334E-02
   0.348E+02 -.204E+03 -.200E+00   -.358E+02 0.207E+03 0.202E+00   0.300E+00 -.307E+01 0.368E-03
   -.599E+02 -.193E+03 -.109E+00   0.607E+02 0.194E+03 0.108E+00   -.116E+01 -.164E+01 0.272E-02
   -.686E+02 -.758E+01 -.231E-02   0.691E+02 0.635E+01 0.244E-02   -.416E+00 0.180E+00 -.187E-02
   -.726E+02 -.802E+02 0.602E-01   0.718E+02 0.842E+02 -.607E-01   0.145E+01 -.543E+01 -.110E-02
   -.161E+03 -.142E+03 0.159E+00   0.163E+03 0.142E+03 -.164E+00   -.148E+01 -.635E+00 0.352E-02
   0.572E+02 -.490E+00 -.468E-01   -.495E+02 0.348E+00 0.423E-01   -.904E+01 0.206E-01 0.498E-02
   -.284E+03 0.307E+03 0.200E+00   0.312E+03 -.358E+03 -.220E+00   -.219E+02 0.411E+02 0.170E-01
   0.327E+03 -.373E+03 -.367E+00   -.359E+03 0.426E+03 0.409E+00   0.243E+02 -.452E+02 -.360E-01
   0.331E+03 0.370E+03 -.324E-01   -.363E+03 -.423E+03 0.260E-01   0.248E+02 0.450E+02 0.538E-02
   -.184E+02 -.576E+02 -.571E+02   0.174E+02 0.605E+02 0.615E+02   0.114E+01 -.307E+01 -.443E+01
   -.879E+02 -.900E+01 0.175E+00   0.937E+02 0.741E+01 -.188E+00   -.553E+01 0.118E+01 0.125E-01
   -.182E+02 -.577E+02 0.570E+02   0.172E+02 0.606E+02 -.615E+02   0.116E+01 -.308E+01 0.442E+01
   -.291E+02 -.870E+02 -.303E-01   0.319E+02 0.919E+02 0.311E-01   -.285E+01 -.516E+01 -.205E-03
   0.267E+02 -.909E+02 -.768E-01   -.302E+02 0.959E+02 0.821E-01   0.305E+01 -.513E+01 -.480E-02
   0.277E+02 0.907E+02 0.370E-01   -.311E+02 -.958E+02 -.379E-01   0.310E+01 0.511E+01 0.102E-02
   -.283E+02 0.886E+02 0.738E-01   0.317E+02 -.938E+02 -.791E-01   -.303E+01 0.508E+01 0.482E-02
 -----------------------------------------------------------------------------------------------
   -.944E+01 -.359E+02 -.101E-01   0.604E-13 -.853E-13 0.472E-14   0.680E+01 0.304E+02 0.661E-02
 
 
 POSITION                                       TOTAL-FORCE (eV/Angst)
 -----------------------------------------------------------------------------------
     20.05117     18.54480     19.99925         0.019071     -0.005373      0.001939
     18.67027     18.54246     20.00025         0.001233      0.029116      0.000609
     18.01048     19.76419     20.00150         0.000630     -0.027594     -0.000164
     18.68449     20.97456     20.00190         0.003073      0.007343      0.002590
     20.06969     20.95932     20.00087         0.017199     -0.031782      0.002024
     20.76139     19.74701     19.99964        -0.002050      0.014107     -0.001663
     22.25866     19.68686     19.99832        -0.018237      0.018567     -0.000872
     23.04084     20.96307     19.99758        -0.037593      0.005102     -0.000214
     16.55073     19.77150     20.00236        -0.010332      0.041581      0.000015
     22.81798     18.60135     19.99790         0.007314     -0.020758      0.000492
     15.97757     20.85379     20.00319         0.031048     -0.006152     -0.001566
     15.96758     18.69522     20.00219         0.019271     -0.009140     -0.001611
     22.79785     21.56327     20.87786        -0.014640     -0.009263      0.002133
     24.10287     20.73139     19.99515         0.014162      0.008794     -0.000190
     22.79394     21.56522     19.11990        -0.015143     -0.007986     -0.004665
     20.60195     21.90182     20.00091        -0.006369     -0.024945      0.000785
     18.13416     21.90467     20.00278         0.011263     -0.005193      0.000458
     18.10969     17.61888     20.00005        -0.005000      0.000255      0.000032
     20.59864     17.61076     19.99835        -0.014900      0.023320     -0.000131
 -----------------------------------------------------------------------------------
    total drift:                                0.014921     -0.003300     -0.004287


--------------------------------------------------------------------------------------------------------



  FREE ENERGIE OF THE ION-ELECTRON SYSTEM (eV)
  ---------------------------------------------------
  free  energy   TOTEN  =      -146.95899833 eV

  energy  without entropy=     -146.95899833  energy(sigma->0) =     -146.95899833
 


--------------------------------------------------------------------------------------------------------


    POTLOK:  cpu time    236.0732: real time    236.1089


--------------------------------------------------------------------------------------------------------




--------------------------------------------------------------------------------------------------------


    WAVPRE:  cpu time      1.1019: real time      1.1185
    FEWALD:  cpu time      0.0134: real time      0.0134

 real space projection operators:
  total allocation   :       2352.86 KBytes
  max/ min on nodes  :        194.08        126.73

    ORTHCH:  cpu time      3.2323: real time      3.2326
    POTLOK:  cpu time    311.2951: real time    311.3566
    EDDIAG:  cpu time    177.6954: real time    177.7115
    CHARGE:  cpu time      2.9890: real time      2.9892
 writing wavefunctions
     LOOP+:  cpu time   2868.9974: real time   2871.6439


--------------------------------------- Ionic step        2  -------------------------------------------




--------------------------------------- Iteration      2(   1)  ---------------------------------------


    POTLOK:  cpu time    317.6424: real time    317.6670
    SETDIJ:  cpu time      0.0733: real time      0.0733
    TRIAL :  cpu time    190.2108: real time    190.2251
    CORREC:  cpu time      0.1544: real time      0.1544
    CHARGE:  cpu time      2.9820: real time      2.9822
    --------------------------------------------
      LOOP:  cpu time    511.1207: real time    511.1598

 eigenvalue-minimisations  :     0
 total energy-change (2. order) : 0.1110637E-01  (-0.9416395E-02)
 number of electron      61.9999990 magnetization       0.0000000
 augmentation part        2.9609268 magnetization       0.0000000

 Free energy of the ion-electron system (eV)
  ---------------------------------------------------
  alpha Z        PSCENC =         0.26386137
  Ewald energy   TEWEN  =      7131.56854222
  -Hartree energ DENC   =     -9434.94484268
  -exchange      EXHF   =       155.38767939
  -V(xc)+E(xc)   XCENC  =       180.01945548
  PAW double counting   =      5920.42811956    -5928.33941550
  entropy T*S    EENTRO =        -0.00000000
  eigenvalues    EBANDS =      -954.66310919
  atomic energy  EATOM  =      2797.38460908
  ---------------------------------------------------
  free energy    TOTEN  =      -146.56442958 eV

  energy without entropy =     -146.56442958  energy(sigma->0) =     -146.56442958
  exchange ACFDT corr.  =        -0.00000000  see jH, gK, PRB 81, 115126


--------------------------------------------------------------------------------------------------------




--------------------------------------- Iteration      2(   2)  ---------------------------------------


    POTLOK:  cpu time    310.3617: real time    310.3883
    SETDIJ:  cpu time      0.0810: real time      0.0810
    TRIAL :  cpu time    189.1529: real time    189.1686
    CORREC:  cpu time      0.1860: real time      0.1860
    CHARGE:  cpu time      3.3667: real time      3.3670
    --------------------------------------------
      LOOP:  cpu time    503.1666: real time    503.2177

 eigenvalue-minimisations  :     0
 total energy-change (2. order) :-0.6352136E-02  (-0.4654332E-02)
 number of electron      61.9999990 magnetization       0.0000000
 augmentation part        2.9610712 magnetization       0.0000000

 Free energy of the ion-electron system (eV)
  ---------------------------------------------------
  alpha Z        PSCENC =         0.26386137
  Ewald energy   TEWEN  =      7131.56854222
  -Hartree energ DENC   =     -9435.70725540
  -exchange      EXHF   =       155.39182517
  -V(xc)+E(xc)   XCENC  =       180.02467504
  PAW double counting   =      5919.17685367    -5927.08815492
  entropy T*S    EENTRO =        -0.00000000
  eigenvalues    EBANDS =      -954.08864173
  atomic energy  EATOM  =      2797.38460908
  ---------------------------------------------------
  free energy    TOTEN  =      -146.57078172 eV

  energy without entropy =     -146.57078172  energy(sigma->0) =     -146.57078172
  exchange ACFDT corr.  =        -0.00000000  see jH, gK, PRB 81, 115126


--------------------------------------------------------------------------------------------------------




--------------------------------------- Iteration      2(   3)  ---------------------------------------


    POTLOK:  cpu time    283.3040: real time    283.3252
    SETDIJ:  cpu time      0.0735: real time      0.0735
    TRIAL :  cpu time    188.9566: real time    188.9810
    CORREC:  cpu time      0.1938: real time      0.1939
    CHARGE:  cpu time      3.1661: real time      3.1664
    --------------------------------------------
      LOOP:  cpu time    475.7049: real time    475.7597

 eigenvalue-minimisations  :     0
 total energy-change (2. order) :-0.3035944E-02  (-0.1454278E-02)
 number of electron      61.9999990 magnetization      -0.0000000
 augmentation part        2.9610638 magnetization       0.0000000

 Free energy of the ion-electron system (eV)
  ---------------------------------------------------
  alpha Z        PSCENC =         0.26386137
  Ewald energy   TEWEN  =      7131.56854222
  -Hartree energ DENC   =     -9436.09786137
  -exchange      EXHF   =       155.39505095
  -V(xc)+E(xc)   XCENC  =       180.02787143
  PAW double counting   =      5918.74118727    -5926.65254346
  entropy T*S    EENTRO =        -0.00000000
  eigenvalues    EBANDS =      -953.83401388
  atomic energy  EATOM  =      2797.38460908
  ---------------------------------------------------
  free energy    TOTEN  =      -146.57381766 eV

  energy without entropy =     -146.57381766  energy(sigma->0) =     -146.57381766
  exchange ACFDT corr.  =         0.00000000  see jH, gK, PRB 81, 115126


--------------------------------------------------------------------------------------------------------




--------------------------------------- Iteration      2(   4)  ---------------------------------------


    POTLOK:  cpu time    278.3595: real time    278.3901
    SETDIJ:  cpu time      0.0731: real time      0.0731
    TRIAL :  cpu time    191.3340: real time    191.3527
    CORREC:  cpu time      0.0042: real time      0.0042
    CHARGE:  cpu time      2.8106: real time      2.8109
    --------------------------------------------
      LOOP:  cpu time    472.5922: real time    472.6516

 eigenvalue-minimisations  :     0
 total energy-change (2. order) :-0.7994484E-03  (-0.3538085E-03)
 number of electron      61.9999990 magnetization      -0.0000000
 augmentation part        2.9610323 magnetization      -0.0000000

 Free energy of the ion-electron system (eV)
  ---------------------------------------------------
  alpha Z        PSCENC =         0.26386137
  Ewald energy   TEWEN  =      7131.56854222
  -Hartree energ DENC   =     -9435.99563478
  -exchange      EXHF   =       155.39220090
  -V(xc)+E(xc)   XCENC  =       180.02452722
  PAW double counting   =      5918.61701081    -5926.52837160
  entropy T*S    EENTRO =        -0.00000000
  eigenvalues    EBANDS =      -953.95902027
  atomic energy  EATOM  =      2797.38460908
  ---------------------------------------------------
  free energy    TOTEN  =      -146.57461711 eV

  energy without entropy =     -146.57461711  energy(sigma->0) =     -146.57461711
  exchange ACFDT corr.  =        -0.00000000  see jH, gK, PRB 81, 115126


--------------------------------------------------------------------------------------------------------




--------------------------------------- Iteration      2(   5)  ---------------------------------------


    POTLOK:  cpu time    269.4553: real time    269.4753
    SETDIJ:  cpu time      0.0975: real time      0.0975
    TRIAL :  cpu time    189.0264: real time    189.0406
    CORREC:  cpu time      0.1584: real time      0.1585
    CHARGE:  cpu time      3.0174: real time      3.0176
    --------------------------------------------
      LOOP:  cpu time    461.7624: real time    461.8060

 eigenvalue-minimisations  :     0
 total energy-change (2. order) :-0.1490054E-03  (-0.9684722E-04)
 number of electron      61.9999990 magnetization      -0.0000000
 augmentation part        2.9610344 magnetization      -0.0000000

 Free energy of the ion-electron system (eV)
  ---------------------------------------------------
  alpha Z        PSCENC =         0.26386137
  Ewald energy   TEWEN  =      7131.56854222
  -Hartree energ DENC   =     -9435.92507819
  -exchange      EXHF   =       155.39137496
  -V(xc)+E(xc)   XCENC  =       180.02327114
  PAW double counting   =      5918.66553212    -5926.57706128
  entropy T*S    EENTRO =        -0.00000000
  eigenvalues    EBANDS =      -954.01553894
  atomic energy  EATOM  =      2797.38460908
  ---------------------------------------------------
  free energy    TOTEN  =      -146.57476612 eV

  energy without entropy =     -146.57476612  energy(sigma->0) =     -146.57476612
  exchange ACFDT corr.  =        -0.00000000  see jH, gK, PRB 81, 115126


--------------------------------------------------------------------------------------------------------




--------------------------------------- Iteration      2(   6)  ---------------------------------------


    POTLOK:  cpu time    256.7967: real time    256.8181
    SETDIJ:  cpu time      0.0740: real time      0.0740
    TRIAL :  cpu time    189.7965: real time    189.8167
    CORREC:  cpu time      0.0305: real time      0.0305
    CHARGE:  cpu time      2.8293: real time      2.8296
    --------------------------------------------
      LOOP:  cpu time    449.5363: real time    449.5868

 eigenvalue-minimisations  :     0
 total energy-change (2. order) :-0.4090037E-04  (-0.7217378E-04)
 number of electron      61.9999990 magnetization      -0.0000000
 augmentation part        2.9610570 magnetization      -0.0000000

 Free energy of the ion-electron system (eV)
  ---------------------------------------------------
  alpha Z        PSCENC =         0.26386137
  Ewald energy   TEWEN  =      7131.56854222
  -Hartree energ DENC   =     -9435.95469648
  -exchange      EXHF   =       155.39290499
  -V(xc)+E(xc)   XCENC  =       180.02453328
  PAW double counting   =      5918.76491666    -5926.67646097
  entropy T*S    EENTRO =        -0.00000000
  eigenvalues    EBANDS =      -953.97851892
  atomic energy  EATOM  =      2797.38460908
  ---------------------------------------------------
  free energy    TOTEN  =      -146.57480702 eV

[...]

  energy without entropy =     -146.57568060  energy(sigma->0) =     -146.57568060
  exchange ACFDT corr.  =         0.00000000  see jH, gK, PRB 81, 115126


--------------------------------------------------------------------------------------------------------




--------------------------------------- Iteration     10(   3)  ---------------------------------------


    POTLOK:  cpu time    217.1292: real time    217.1483
    SETDIJ:  cpu time      0.1158: real time      0.1158
    TRIAL :  cpu time    191.6291: real time    191.6453
    CORREC:  cpu time      0.0489: real time      0.0489
    CHARGE:  cpu time      2.7827: real time      2.7830
    --------------------------------------------
      LOOP:  cpu time    411.7170: real time    411.7613

 eigenvalue-minimisations  :     0
 total energy-change (2. order) :-0.1271058E-05  (-0.1265223E-04)
 number of electron      61.9999990 magnetization       0.0000000
 augmentation part        2.9612349 magnetization       0.0000000

 Free energy of the ion-electron system (eV)
  ---------------------------------------------------
  alpha Z        PSCENC =         0.26386137
  Ewald energy   TEWEN  =      7131.89033427
  -Hartree energ DENC   =     -9436.24696910
  -exchange      EXHF   =       155.39963602
  -V(xc)+E(xc)   XCENC  =       180.03047638
  PAW double counting   =      5920.74056926    -5928.65250474
  entropy T*S    EENTRO =        -0.00000000
  eigenvalues    EBANDS =      -954.00904844
  atomic energy  EATOM  =      2797.38460908
  ---------------------------------------------------
  free energy    TOTEN  =      -146.57568187 eV

  energy without entropy =     -146.57568187  energy(sigma->0) =     -146.57568187
  exchange ACFDT corr.  =         0.00000000  see jH, gK, PRB 81, 115126


--------------------------------------------------------------------------------------------------------




--------------------------------------- Iteration     10(   4)  ---------------------------------------


    POTLOK:  cpu time    200.8104: real time    200.8340
    SETDIJ:  cpu time      0.1214: real time      0.1214
    TRIAL :  cpu time    189.7811: real time    189.7959
    CORREC:  cpu time      0.2447: real time      0.2447
    CHARGE:  cpu time      2.7947: real time      2.7949
    --------------------------------------------
      LOOP:  cpu time    393.9490: real time    393.9968

 eigenvalue-minimisations  :     0
 total energy-change (2. order) :-0.2548139E-05  (-0.3923890E-05)
 number of electron      61.9999990 magnetization       0.0000000
 augmentation part        2.9612388 magnetization       0.0000000

 Free energy of the ion-electron system (eV)
  ---------------------------------------------------
  alpha Z        PSCENC =         0.26386137
  Ewald energy   TEWEN  =      7131.89033427
  -Hartree energ DENC   =     -9436.24945390
  -exchange      EXHF   =       155.39971578
  -V(xc)+E(xc)   XCENC  =       180.03055336
  PAW double counting   =      5920.75618269    -5928.66818472
  entropy T*S    EENTRO =        -0.00000000
  eigenvalues    EBANDS =      -954.00765295
  atomic energy  EATOM  =      2797.38460908
  ---------------------------------------------------
  free energy    TOTEN  =      -146.57568442 eV

  energy without entropy =     -146.57568442  energy(sigma->0) =     -146.57568442
  exchange ACFDT corr.  =         0.00000000  see jH, gK, PRB 81, 115126


--------------------------------------------------------------------------------------------------------


  average scaling for gradient   1.0817


 average (electrostatic) potential at core
  the test charge radii are     0.6991  0.7089  0.7215  0.5201
  (the norm of the test charge is              1.0000)
       1 -55.6017       2 -55.7721       3 -56.9009       4 -55.7981       5 -55.6987
       6 -55.8641       7 -57.5357       8 -54.7916       9 -74.8449      10 -74.2423
      11 -75.4439      12 -75.4470      13 -38.0848      14 -37.8368      15 -38.0843
      16 -38.4532      17 -38.5089      18 -38.4865      19 -38.2544
 
 
 
 E-fermi :  -7.0520     XC(G=0):  -0.0285     alpha+bet : -0.0204

 Fermi energy:        -7.0520417369

 spin component 1

 k-point     1 :       0.0000    0.0000    0.0000
  band No.  band energies     occupation 
      1     -34.5733      1.00000
      2     -29.6972      1.00000
      3     -29.2365      1.00000
      4     -24.8823      1.00000
      5     -22.7772      1.00000
      6     -21.4762      1.00000
      7     -20.8367      1.00000
      8     -19.6242      1.00000
      9     -17.4710      1.00000
     10     -16.9951      1.00000
     11     -15.8026      1.00000
     12     -15.5127      1.00000
     13     -15.1591      1.00000
     14     -14.6343      1.00000
     15     -13.6121      1.00000
     16     -13.2840      1.00000
     17     -12.6975      1.00000
     18     -12.3458      1.00000
     19     -12.1892      1.00000
     20     -11.8322      1.00000
     21     -11.4761      1.00000
     22     -10.8755      1.00000
     23     -10.4752      1.00000
     24     -10.0473      1.00000
     25      -9.9311      1.00000
     26      -9.0979      1.00000
     27      -9.0527      1.00000
     28      -8.5500      1.00000
     29      -7.8418      1.00000
     30      -7.6680      1.00000
     31      -7.3491      1.00000
     32      -3.4470      0.00000
     33      -1.7680      0.00000
     34      -1.2357      0.00000
     35      -0.3276      0.00000
     36      -0.0208      0.00000
     37       0.0128      0.00000
     38       0.0589      0.00000
     39       0.0827      0.00000
     40       0.0952      0.00000
     41       0.0968      0.00000
     42       0.1164      0.00000
     43       0.1279      0.00000
     44       0.1319      0.00000
     45       0.1543      0.00000
     46       0.1851      0.00000
     47       0.1871      0.00000
     48       0.1884      0.00000
     49       0.1897      0.00000
     50       0.1903      0.00000
     51       0.1914      0.00000
     52       0.2304      0.00000
     53       0.2490      0.00000
     54       0.2575      0.00000
 Fermi energy:        -7.0520417369

 spin component 2

 k-point     1 :       0.0000    0.0000    0.0000
  band No.  band energies     occupation 
      1     -34.5733      1.00000
      2     -29.6972      1.00000
      3     -29.2365      1.00000
      4     -24.8823      1.00000
      5     -22.7772      1.00000
      6     -21.4762      1.00000
      7     -20.8367      1.00000
      8     -19.6242      1.00000
      9     -17.4710      1.00000
     10     -16.9951      1.00000
     11     -15.8026      1.00000
     12     -15.5127      1.00000
     13     -15.1591      1.00000
     14     -14.6343      1.00000
     15     -13.6121      1.00000
     16     -13.2840      1.00000
     17     -12.6975      1.00000
     18     -12.3458      1.00000
     19     -12.1892      1.00000
     20     -11.8322      1.00000
     21     -11.4761      1.00000
     22     -10.8755      1.00000
     23     -10.4752      1.00000
     24     -10.0473      1.00000
     25      -9.9311      1.00000
     26      -9.0979      1.00000
     27      -9.0527      1.00000
     28      -8.5500      1.00000
     29      -7.8418      1.00000
     30      -7.6680      1.00000
     31      -7.3491      1.00000
     32      -3.4470      0.00000
     33      -1.7680      0.00000
     34      -1.2357      0.00000
     35      -0.3276      0.00000
     36      -0.0208      0.00000
     37       0.0128      0.00000
     38       0.0589      0.00000
     39       0.0827      0.00000
     40       0.0952      0.00000
     41       0.0968      0.00000
     42       0.1164      0.00000
     43       0.1279      0.00000
     44       0.1319      0.00000
     45       0.1543      0.00000
     46       0.1852      0.00000
     47       0.1871      0.00000
     48       0.1885      0.00000
     49       0.1894      0.00000
     50       0.1911      0.00000
     51       0.1914      0.00000
     52       0.2166      0.00000
     53       0.2434      0.00000
     54       0.2559      0.00000


--------------------------------------------------------------------------------------------------------


 soft charge-density along one line, spin component           1
         0         1         2         3         4         5         6         7         8         9
 total charge-density along one line
 
 soft charge-density along one line, spin component           2
         0         1         2         3         4         5         6         7         8         9
 total charge-density along one line
 
 pseudopotential strength for first ion, spin component:           1
 10.022  13.326   0.002   0.000  -0.001  -0.007  -0.000   0.004
 13.326  17.720   0.003   0.000  -0.002  -0.009  -0.000   0.006
  0.002   0.003  -4.233   0.000  -0.001   8.253  -0.000   0.003
  0.000   0.000   0.000  -4.238  -0.000  -0.000   8.265   0.000
 -0.001  -0.002  -0.001  -0.000  -4.236   0.003   0.000   8.257
 -0.007  -0.009   8.253  -0.000   0.003 -18.206   0.000  -0.005
 -0.000  -0.000  -0.000   8.265   0.000   0.000 -18.235  -0.000
  0.004   0.006   0.003   0.000   8.257  -0.005  -0.000 -18.214
 pseudopotential strength for first ion, spin component:           2
 10.022  13.326   0.002   0.000  -0.001  -0.007  -0.000   0.004
 13.326  17.720   0.003   0.000  -0.002  -0.009  -0.000   0.006
  0.002   0.003  -4.233   0.000  -0.001   8.253  -0.000   0.003
  0.000   0.000   0.000  -4.238  -0.000  -0.000   8.265   0.000
 -0.001  -0.002  -0.001  -0.000  -4.236   0.003   0.000   8.257
 -0.007  -0.009   8.253  -0.000   0.003 -18.206   0.000  -0.005
 -0.000  -0.000  -0.000   8.265   0.000   0.000 -18.235  -0.000
  0.004   0.006   0.003   0.000   8.257  -0.005  -0.000 -18.214
 total augmentation occupancy for first ion, spin component:           1
  8.949  -4.051   0.215   0.000  -0.149   0.046   0.000  -0.030
 -4.051   1.870  -0.153  -0.000   0.103  -0.028  -0.000   0.018
  0.215  -0.153   1.842   0.000   0.023   0.168   0.000   0.008
  0.000  -0.000   0.000   1.118  -0.001   0.000   0.074  -0.000
 -0.149   0.103   0.023  -0.001   1.894   0.008  -0.000   0.183
  0.046  -0.028   0.168   0.000   0.008   0.016   0.000   0.002
  0.000  -0.000   0.000   0.074  -0.000   0.000   0.005  -0.000
 -0.030   0.018   0.008  -0.000   0.183   0.002  -0.000   0.019
 total augmentation occupancy for first ion, spin component:           2
 -0.000   0.000   0.000   0.000  -0.000   0.000   0.000  -0.000
  0.000  -0.000  -0.000  -0.000   0.000  -0.000  -0.000   0.000
  0.000  -0.000  -0.000   0.000  -0.000  -0.000  -0.000   0.000
  0.000  -0.000   0.000   0.000  -0.000  -0.000   0.000   0.000
 -0.000   0.000  -0.000  -0.000   0.000   0.000  -0.000  -0.000
  0.000  -0.000  -0.000  -0.000   0.000  -0.000  -0.000   0.000
  0.000  -0.000  -0.000   0.000  -0.000  -0.000  -0.000   0.000
 -0.000   0.000   0.000   0.000  -0.000   0.000   0.000  -0.000


------------------------ aborting loop because EDIFF is reached ----------------------------------------


    FORLOC:  cpu time      0.3213: real time      0.3213
    FORHF :  cpu time    130.2701: real time    130.2858
    FORNL :  cpu time      4.3442: real time      4.3456
    STRESS:  cpu time     13.1944: real time     13.2178
    FORCOR:  cpu time     13.8921: real time     13.8936
    OFIELD:  cpu time      0.0194: real time      0.0194

 ---------------------------------------------------------------------------------------------

         DFTD3 V3.0 Rev 1        
 Edisp (eV)   -0.38351

 E6    (eV) :    -0.1966
 E8    (eV) :    -0.1869
 % E8        : 48.73
    FORVDW:  cpu time      0.0087: real time      0.0164

  FORCE on cell =-STRESS in cart. coord.  units (eV):
  Direction    XX          YY          ZZ          XY          YZ          ZX
  --------------------------------------------------------------------------------------
  Alpha Z     0.26386     0.26386     0.26386
  Ewald    4830.03663  2854.75710  -552.90330   -12.67592     1.56523    -3.66904
  Hartree  5199.06596  3187.43734  1049.74339    14.57331     0.94978    -2.82340
  E(xc)    -190.38484  -190.08072  -193.14881    -0.11856     0.00144    -0.00189
  Local  -10729.49289 -6677.65775 -1249.40636   -15.76661    -2.44553     6.46016
  n-local  -113.67001  -116.85487  -101.49987     0.68593    -0.00669     0.01313
  augment    19.41493    15.04866    15.94226     0.83355    -0.00149    -0.00261
  Kinetic  1063.04904  1008.00156  1104.57642    12.86376    -0.05963     0.02459
  Fock      -80.08783   -80.89565   -72.79902     0.33749    -0.00351     0.00502
  vdW        -0.20433    -0.06339    -0.00201    -0.01554    -0.00001     0.00015
  -------------------------------------------------------------------------------------
  Total      -2.00947    -0.04386     0.76657     0.71741    -0.00040     0.00612
  in kB      -0.05031    -0.00110     0.01919     0.01796    -0.00001     0.00015
  external pressure =       -0.01 kB  Pullay stress =        0.00 kB


 VOLUME and BASIS-vectors are now :
 -----------------------------------------------------------------------------
  energy-cutoff  :      500.00
  volume of cell :    64000.00
      direct lattice vectors                 reciprocal lattice vectors
    40.000000000  0.000000000  0.000000000     0.025000000  0.000000000  0.000000000
     0.000000000 40.000000000  0.000000000     0.000000000  0.025000000  0.000000000
     0.000000000  0.000000000 40.000000000     0.000000000  0.000000000  0.025000000

  length of vectors
    40.000000000 40.000000000 40.000000000     0.025000000  0.025000000  0.025000000


 FORCES acting on ions:
    Electron-Ion                     Ewald-Force                    Non-Local-Force
 -----------------------------------------------------------------------------------------------
   -.525E+02 0.195E+03 0.133E+00   0.542E+02 -.197E+03 -.134E+00   -.130E+01 0.200E+01 0.225E-04
   0.385E+02 0.204E+03 0.107E+00   -.391E+02 -.207E+03 -.108E+00   0.272E+00 0.310E+01 0.213E-02
   0.207E+02 0.129E+00 -.320E-01   -.150E+02 -.487E+00 0.282E-01   -.605E+01 0.789E-01 0.444E-02
   0.348E+02 -.204E+03 -.239E+00   -.359E+02 0.207E+03 0.242E+00   0.300E+00 -.307E+01 -.363E-02
   -.598E+02 -.193E+03 -.130E+00   0.605E+02 0.194E+03 0.130E+00   -.116E+01 -.162E+01 0.354E-05
   -.686E+02 -.753E+01 0.553E-01   0.691E+02 0.628E+01 -.562E-01   -.417E+00 0.177E+00 0.118E-02
   -.729E+02 -.800E+02 0.662E-01   0.721E+02 0.840E+02 -.675E-01   0.146E+01 -.543E+01 -.541E-04
   -.161E+03 -.143E+03 0.171E+00   0.163E+03 0.142E+03 -.178E+00   -.147E+01 -.639E+00 0.380E-02
   0.577E+02 -.446E+00 -.760E-01   -.500E+02 0.260E+00 0.733E-01   -.901E+01 0.294E-01 0.234E-02
   -.284E+03 0.307E+03 0.188E+00   0.312E+03 -.358E+03 -.206E+00   -.219E+02 0.411E+02 0.152E-01
   0.327E+03 -.373E+03 -.343E+00   -.359E+03 0.426E+03 0.381E+00   0.243E+02 -.452E+02 -.320E-01
   0.331E+03 0.370E+03 -.838E-02   -.363E+03 -.423E+03 -.202E-02   0.247E+02 0.450E+02 0.948E-02
   -.184E+02 -.576E+02 -.571E+02   0.174E+02 0.605E+02 0.616E+02   0.114E+01 -.307E+01 -.443E+01
   -.879E+02 -.906E+01 0.174E+00   0.936E+02 0.748E+01 -.187E+00   -.552E+01 0.117E+01 0.123E-01
   -.182E+02 -.577E+02 0.570E+02   0.172E+02 0.606E+02 -.615E+02   0.116E+01 -.308E+01 0.442E+01
   -.291E+02 -.870E+02 -.311E-01   0.319E+02 0.920E+02 0.318E-01   -.285E+01 -.517E+01 -.654E-04
   0.267E+02 -.909E+02 -.740E-01   -.302E+02 0.959E+02 0.791E-01   0.305E+01 -.514E+01 -.415E-02
   0.277E+02 0.908E+02 0.375E-01   -.311E+02 -.958E+02 -.385E-01   0.310E+01 0.510E+01 0.107E-02
   -.283E+02 0.887E+02 0.795E-01   0.318E+02 -.939E+02 -.851E-01   -.303E+01 0.509E+01 0.565E-02
 -----------------------------------------------------------------------------------------------
   -.933E+01 -.358E+02 -.131E-01   0.195E-12 -.171E-12 -.883E-14   0.670E+01 0.304E+02 0.587E-02
 
 
 POSITION                                       TOTAL-FORCE (eV/Angst)
 -----------------------------------------------------------------------------------
     20.05158     18.54545     19.99938        -0.005828     -0.010761     -0.000856
     18.67069     18.54302     20.00025        -0.008481      0.006065      0.000818
     18.01046     19.76396     20.00152         0.001877     -0.003581      0.000972
     18.68482     20.97409     20.00205        -0.001921      0.002035     -0.001049
     20.06985     20.95805     20.00096         0.000731     -0.002775     -0.000566
     20.76180     19.74691     19.99952        -0.002774      0.002929      0.000708
     22.25819     19.68697     19.99830         0.013687     -0.010643     -0.000450
     23.03980     20.96314     19.99754        -0.002549      0.004698     -0.001311
     16.55079     19.77210     20.00235         0.012457      0.009718     -0.000738
     22.81794     18.60119     19.99794        -0.003159      0.003768      0.000808
     15.97881     20.85470     20.00311         0.013277     -0.005208     -0.000581
     15.96857     18.69514     20.00211         0.001311      0.006942     -0.000499
     22.79662     21.56270     20.87818        -0.013626     -0.005057     -0.000017
     24.10288     20.73238     19.99513        -0.012533      0.011540     -0.000118
     22.79268     21.56470     19.11942        -0.013488     -0.005602      0.000120
     20.60168     21.89998     20.00097         0.005841     -0.001670      0.000972
     18.13511     21.90442     20.00283         0.009679     -0.002082      0.001115
     18.10970     17.61946     20.00005         0.003286      0.003450      0.000176
     20.59798     17.61181     19.99834         0.002212     -0.003764      0.000498
 -----------------------------------------------------------------------------------
    total drift:                                0.004008     -0.000197     -0.007361


--------------------------------------------------------------------------------------------------------



  FREE ENERGIE OF THE ION-ELECTRON SYSTEM (eV)
  ---------------------------------------------------
  free  energy   TOTEN  =      -146.95919722 eV

  energy  without entropy=     -146.95919722  energy(sigma->0) =     -146.95919722
 
 d Force = 0.1550285E-05[ 0.220E-05, 0.902E-06]  d Energy = 0.3685642E-05-0.214E-05
 d Force =-0.1696938E-01[-0.170E-01,-0.170E-01]  d Ewald  =-0.1696938E-01 0.368E-09


--------------------------------------------------------------------------------------------------------


    POTLOK:  cpu time    196.9182: real time    196.9355


--------------------------------------------------------------------------------------------------------




--------------------------------------------------------------------------------------------------------


  
 reached required accuracy - stopping structural energy minimisation
 writing wavefunctions
     LOOP+:  cpu time   2068.0464: real time   2071.3387
    4ORBIT:  cpu time      0.0000: real time      0.0000

 total amount of memory used by VASP MPI-rank0   688976. kBytes
=======================================================================

   base      :      30000. kBytes
   nonlr-proj:      18334. kBytes
   fftplans  :     175546. kBytes
   grid      :     371484. kBytes
   one-center:         12. kBytes
   HF        :          9. kBytes
   wavefun   :      93591. kBytes
   fock_wrk  :          0. kBytes
 
  
  
 General timing and accounting informations for this job:
 ========================================================
  
                  Total CPU time used (sec):    34638.445
                            User time (sec):    20115.958
                          System time (sec):    14522.488
                         Elapsed time (sec):    34673.828
  
                   Maximum memory used (kb):     1926112.
                   Average memory used (kb):          N/A
  
                          Minor page faults:    137949380
                          Major page faults:            4
                 Voluntary context switches:        49005
