
                                 *****************
                                 * O   R   C   A *
                                 *****************

                                            #,                                       
                                            ###                                      
                                            ####                                     
                                            #####                                    
                                            ######                                   
                                           ########,                                 
                                     ,,################,,,,,                         
                               ,,#################################,,                 
                          ,,##########################################,,             
                       ,#########################################, ''#####,          
                    ,#############################################,,   '####,        
                  ,##################################################,,,,####,       
                ,###########''''           ''''###############################       
              ,#####''   ,,,,##########,,,,          '''####'''          '####       
            ,##' ,,,,###########################,,,                        '##       
           ' ,,###''''                  '''############,,,                           
         ,,##''                                '''############,,,,        ,,,,,,###''
      ,#''                                            '''#######################'''  
     '                                                          ''''####''''         
             ,#######,   #######,   ,#######,      ##                                
            ,#'     '#,  ##    ##  ,#'     '#,    #''#        ,####,   ,####,        
            ##       ##  ##   ,#'  ##            #'  '#       #'       #'  '#        
            ##       ##  #######   ##           ,######,      #####,   #    #        
            '#,     ,#'  ##    ##  '#,     ,#' ,#      #,     #,   #   #,  ,#        
             '#######'   ##     ##  '#######'  #'      '#     '####' # '####'        



                #########################################################
                #                        -***-                          #
                #          Department of theory and spectroscopy        #
                #                                                       #
                #                      Frank Neese                      #
                #                                                       #
                #     Directorship, Architecture, Infrastructure        #
                #                    SHARK, DRIVERS                     #
                #        Core code/Algorithms in most modules           #
                #                                                       #
                #        Max Planck Institute fuer Kohlenforschung      #
                #                Kaiser Wilhelm Platz 1                 #
                #                 D-45470 Muelheim/Ruhr                 #
                #                      Germany                          #
                #                                                       #
                #                  All rights reserved                  #
                #                        -***-                          #
                #########################################################


                         Program Version 6.0.0  -   RELEASE  -


 With contributions from (in alphabetic order):
   Daniel Aravena         : Magnetic Suceptibility
   Michael Atanasov       : Ab Initio Ligand Field Theory (pilot matlab implementation)
   Alexander A. Auer      : GIAO ZORA, VPT2 properties, NMR spectrum
   Ute Becker             : All parallelization in ORCA, NUMFREQ, NUMCALC
   Giovanni Bistoni       : ED, misc. LED, open-shell LED, HFLD
   Martin Brehm           : Molecular dynamics
   Dmytro Bykov           : pre 5.0 version of the SCF Hessian
   Marcos Casanova-Páez   : Triplet and SCS-CIS(D). UHF-(DLPNO)-IP/EA/STEOM-CCSD. UHF-CVS-IP/STEOM-CCSD
   Vijay G. Chilkuri      : MRCI spin determinant printing, contributions to CSF-ICE
   Pauline Colinet        : FMM embedding
   Dipayan Datta          : RHF DLPNO-CCSD density
   Achintya Kumar Dutta   : EOM-CC, STEOM-CC
   Nicolas Foglia         : Exact transition moments, OPA infrastructure, MCD improvements
   Dmitry Ganyushin       : Spin-Orbit,Spin-Spin,Magnetic field MRCI
   Miquel Garcia          : C-PCM and meta-GGA Hessian, CCSD/C-PCM, Gaussian charge scheme
   Tiago L. C. Gouveia    : GS-ROHF, GS-ROCIS
   Yang Guo               : DLPNO-NEVPT2, F12-NEVPT2, CIM, IAO-localization
   Andreas Hansen         : Spin unrestricted coupled pair/coupled cluster methods
   Ingolf Harden          : AUTO-CI MPn and infrastructure 
   Benjamin Helmich-Paris : MC-RPA, TRAH-(SCF,CASSCF), AVAS, COSX integrals, SCF dyn. polar.
   Lee Huntington         : MR-EOM, pCC
   Robert Izsak           : Overlap fitted RIJCOSX, COSX-SCS-MP3, EOM
   Riya Kayal             : Wick's Theorem for AUTO-CI, AUTO-CI UHF-CCSDT
   Emily Kempfer          : AUTO-CI, RHF CISDT and CCSDT
   Christian Kollmar      : KDIIS, OOCD, Brueckner-CCSD(T), CCSD density, CASPT2, CASPT2-K, improved NEVPT2
   Axel Koslowski         : Symmetry handling
   Simone Kossmann        : Meta GGA functionals, TD-DFT gradient, OOMP2, (MP2 Hessian; deprecated post 5.0)
   Lucas Lang             : DCDCAS
   Marvin Lechner         : AUTO-CI (C++ implementation), FIC-MRCC
   Spencer Leger          : CASSCF response
   Dagmar Lenk            : GEPOL surface, SMD, ORCA-2-JSON
   Dimitrios Liakos       : Extrapolation schemes; Compound Job, initial MDCI parallelization
   Dimitrios Manganas     : Further ROCIS development; embedding schemes. LFT, Crystal Embedding
   Dimitrios Pantazis     : SARC Basis sets
   Anastasios Papadopoulos: AUTO-CI, single reference methods and gradients
   Taras Petrenko         : pre 6.0 DFT Hessian and TD-DFT gradient, (ASA, deprecated), ECA, 1-Electron XAS/XES, NRVS
   Peter Pinski           : DLPNO-MP2, DLPNO-MP2 Gradient
   Christoph Reimann      : Effective Core Potentials
   Marius Retegan         : Local ZFS, SOC
   Christoph Riplinger    : Optimizer, TS searches, QM/MM, DLPNO-CCSD(T), (RO)-DLPNO pert. Triples
   Michael Roemelt        : Original ROCIS implementation
   Masaaki Saitow         : Open-shell DLPNO-CCSD energy and density
   Barbara Sandhoefer     : DKH picture change effects
   Kantharuban Sivalingam : CASSCF convergence/infrastructure, NEVPT2 and variants, FIC-MRCI
   Bernardo de Souza      : ESD, SOC TD-DFT
   Georgi Stoychev        : AutoAux, RI-MP2 NMR, DLPNO-MP2 response, X2C
   Van Anh Tran           : RI-MP2 g-tensors
   Willem Van den Heuvel  : Paramagnetic NMR
   Zikuan Wang            : NOTCH, Electric field optimization 
   Frank Wennmohs         : Technical directorship and infrastructure
   Hang Xu                : AUTO-CI-Response properties 


 We gratefully acknowledge several colleagues who have allowed us to
 interface, adapt or use parts of their codes:
   Stefan Grimme, W. Hujo, H. Kruse, P. Pracht,  : VdW corrections, initial TS optimization,
                  C. Bannwarth, S. Ehlert,         DFT functionals, gCP, sTDA/sTD-DF
                  L. Wittmann, M. Mueller
   Ed Valeev, F. Pavosevic, A. Kumar             : LibInt (2-el integral package), F12 methods
   Garnet Chan, S. Sharma, J. Yang, R. Olivares  : DMRG
   Ulf Ekstrom                                   : XCFun DFT Library
   Mihaly Kallay                                 : mrcc  (arbitrary order and MRCC methods)
   Frank Weinhold                                : gennbo (NPA and NBO analysis)
   Simon Mueller                                 : openCOSMO-RS
   Christopher J. Cramer and Donald G. Truhlar   : smd solvation model
   Lars Goerigk                                  : TD-DFT with DH, B97 family of functionals
   V. Asgeirsson, H. Jonsson                     : NEB implementation
   FAccTs GmbH                                   : IRC, NEB, NEB-TS, DLPNO-Multilevel, CI-OPT
                                                   MM, QMMM, 2- and 3-layer-ONIOM, Crystal-QMMM,
                                                   LR-CPCM, SF, NACMEs, symmetry and pop. for TD-DFT,
                                                   nearIR, NL-DFT gradient (VV10), updates on ESD,
                                                   ML-optimized integration grids, MBIS, APM,
                                                   GOAT, DOCKER, SOLVATOR, interface openCOSMO-RS
   S Lehtola, MJT Oliveira, MAL Marques          : LibXC Library
   Liviu Ungur et al                             : ANISO software


 Your calculation uses the libint2 library for the computation of 2-el integrals
 For citations please refer to: http://libint.valeyev.net

 Your ORCA version has been built with support for libXC version: 6.2.2
 For citations please refer to: https://libxc.gitlab.io

 This ORCA versions uses:
   CBLAS   interface :  Fast vector & matrix operations
   LAPACKE interface :  Fast linear algebra routines
   SCALAPACK package :  Parallel linear algebra routines
   Shared memory     :  Shared parallel matrices
   BLAS/LAPACK       :  OpenBLAS 0.3.27  USE64BITINT DYNAMIC_ARCH NO_AFFINITY Sandybridge SINGLE_THREADED
        Core in use  :  Sandybridge
   Copyright (c) 2011-2014, The OpenBLAS Project


NOTE: MaxCore=5000 MB was set to SCF,MP2,MDCI,CIPSI,MRCI and CIS
      => If you want to overwrite this, your respective input block should be placed after the MaxCore statement
Your calculation utilizes the atom-pairwise dispersion correction
with the Becke-Johnson damping scheme (D3BJ)


Your calculation utilizes the SMD solvation module
Please cite in your paper:
A.V. Marenich, C.J. Cramer, D.G. Truhlar J. Phys. Chem. B, 113, (2009), 6378 

Warning: RI is on but no J-basis has been assigned. Assigning Def2/J (nothing to worry about!)
================================================================================

----- Orbital basis set information -----
Your calculation utilizes the basis: aug-cc-pVTZ 
    H, B-Ne : Obtained from the ccRepo (grant-hill.group.shef.ac.uk/ccrepo) Feb. 2017
              R. A. Kendall, T. H. Dunning, Jr., R. J. Harrison, J. Chem. Phys. 96, 6796 (1992)
         He : Obtained from the ccRepo (grant-hill.group.shef.ac.uk/ccrepo) Feb. 2017
              D. E. Woon, T. H. Dunning, Jr., J. Chem. Phys. 100, 2975 (1994)
  Li-Be, Na : Obtained from the ccRepo (grant-hill.group.shef.ac.uk/ccrepo) Feb. 2017
              B. P. Prascher, D. E. Woon, K. A. Peterson, T. H. Dunning, Jr., A. K. Wilson, Theor. Chem. Acc. 128, 69 (2011)
         Mg : Obtained from the Peterson Research Group Website (tyr0.chem.wsu.edu/~kipeters) Feb. 2017
              B. P. Prascher, D. E. Woon, K. A. Peterson, T. H. Dunning, Jr., A. K. Wilson, Theor. Chem. Acc. 128, 69 (2011)
      Al-Ar : Obtained from the ccRepo (grant-hill.group.shef.ac.uk/ccrepo) Feb. 2017
              D. E. Woon, T. H. Dunning, Jr., J. Chem. Phys. 98, 1358 (1993)
      Sc-Zn : Obtained from the ccRepo (grant-hill.group.shef.ac.uk/ccrepo) Feb. 2017
              N. B. Balabanov, K. A. Peterson, J. Chem. Phys. 123, 064107 (2005)
              N. B. Balabanov, K. A. Peterson, J. Chem. Phys. 125, 074110 (2006)
      Ga-Kr : Obtained from the ccRepo (grant-hill.group.shef.ac.uk/ccrepo) Feb. 2017
              A. K. Wilson, D. E. Woon, K. A. Peterson, T. H. Dunning, Jr., J. Chem. Phys. 110, 7667 (1999)
     Ag, Au : Obtained from the Peterson Research Group Website (tyr0.chem.wsu.edu/~kipeters) Feb. 2017
              K. A. Peterson, C. Puzzarini, Theor. Chem. Acc. 114, 283 (2005)

----- AuxJ basis set information -----
Your calculation utilizes the auxiliary basis: def2/J
   F. Weigend, Phys. Chem. Chem. Phys. 8, 1057 (2006).

================================================================================
                                        WARNINGS
                       Please study these warnings very carefully!
================================================================================


WARNING: your system is open-shell and RHF/RKS was chosen
  ===> : WILL SWITCH to UHF/UKS


================================================================================
                                       INPUT FILE
================================================================================
NAME = cs_rporg_078_ox_freq_04.inp
|  1> !PBE0 freq aug-cc-pVTZ d3 TightSCF SlowConv RIJCOSX defgrid2
|  2> 
|  3> %pal
|  4> nprocs 12
|  5> end
|  6> 
|  7> %scf
|  8> MaxIter 1500
|  9> end
| 10> 
| 11> %maxcore 5000
| 12> 
| 13> !CPCM
| 14> %cpcm smd true
| 15> SMDsolvent "MeCN"
| 16> surfacetype gepol_ses
| 17> rsolv 2.19
| 18> end 
| 19> 
| 20> * xyz 1 2
| 21> C           1.33229301766793      0.00044527198073     -0.00137577048951
| 22> C           0.74342991092902      1.28667337397483     -0.00398845095629
| 23> C          -0.60945514956531      1.40268437665037     -0.00297946972195
| 24> C          -1.42196193086586      0.23954706443983     -0.00107347901934
| 25> C          -0.83720157036608     -1.04753549992445     -0.00347534271068
| 26> C           0.51994111089584     -1.15943566972122     -0.00297970177505
| 27> H           0.98136327012338     -2.13904787716329     -0.00347171059132
| 28> H          -1.45355612193092     -1.93404161957637     -0.00381760365303
| 29> O          -2.71050599582301      0.45438137505686      0.00275649650958
| 30> C          -3.62370108139036     -0.65244445471271      0.00287050775066
| 31> H          -4.61368081376191     -0.20756805571954      0.00574501686968
| 32> H          -3.48350689879627     -1.25241736768670     -0.89572385518243
| 33> H          -3.48002228412546     -1.25602510022073      0.89861934548940
| 34> H          -1.09211291541685      2.37098116389652     -0.00274736532991
| 35> H           1.37024842716595      2.16859281915883     -0.00705831658169
| 36> S           3.02330531887701     -0.23305766216015      0.00645522282199
| 37> H           3.38021920638290      1.07084826172718      0.01233117656988
| 38> *
| 39> 
| 40>                          ****END OF INPUT****
================================================================================

                       ****************************
                       * Single Point Calculation *
                       ****************************

---------------------------------
CARTESIAN COORDINATES (ANGSTROEM)
---------------------------------
  C      1.332293    0.000445   -0.001376
  C      0.743430    1.286673   -0.003988
  C     -0.609455    1.402684   -0.002979
  C     -1.421962    0.239547   -0.001073
  C     -0.837202   -1.047535   -0.003475
  C      0.519941   -1.159436   -0.002980
  H      0.981363   -2.139048   -0.003472
  H     -1.453556   -1.934042   -0.003818
  O     -2.710506    0.454381    0.002756
  C     -3.623701   -0.652444    0.002871
  H     -4.613681   -0.207568    0.005745
  H     -3.483507   -1.252417   -0.895724
  H     -3.480022   -1.256025    0.898619
  H     -1.092113    2.370981   -0.002747
  H      1.370248    2.168593   -0.007058
  S      3.023305   -0.233058    0.006455
  H      3.380219    1.070848    0.012331

----------------------------
CARTESIAN COORDINATES (A.U.)
----------------------------
  NO LB      ZA    FRAG     MASS         X           Y           Z
   0 C     6.0000    0    12.011    2.517669    0.000841   -0.002600
   1 C     6.0000    0    12.011    1.404879    2.431460   -0.007537
   2 C     6.0000    0    12.011   -1.151703    2.650689   -0.005630
   3 C     6.0000    0    12.011   -2.687119    0.452678   -0.002029
   4 C     6.0000    0    12.011   -1.582082   -1.979555   -0.006567
   5 C     6.0000    0    12.011    0.982546   -2.191016   -0.005631
   6 H     1.0000    0     1.008    1.854508   -4.042215   -0.006561
   7 H     1.0000    0     1.008   -2.746823   -3.654809   -0.007214
   8 O     8.0000    0    15.999   -5.122114    0.858656    0.005209
   9 C     6.0000    0    12.011   -6.847803   -1.232941    0.005424
  10 H     1.0000    0     1.008   -8.718593   -0.392247    0.010857
  11 H     1.0000    0     1.008   -6.582874   -2.366726   -1.692673
  12 H     1.0000    0     1.008   -6.576289   -2.373543    1.698144
  13 H     1.0000    0     1.008   -2.063794    4.480505   -0.005192
  14 H     1.0000    0     1.008    2.589394    4.098047   -0.013338
  15 S    16.0000    0    32.060    5.713219   -0.440415    0.012199
  16 H     1.0000    0     1.008    6.387689    2.023610    0.023303

--------------------------------
INTERNAL COORDINATES (ANGSTROEM)
--------------------------------
 C      0   0   0     0.000000000000     0.00000000     0.00000000
 C      1   0   0     1.414619848205     0.00000000     0.00000000
 C      2   1   0     1.357850344366   119.50034942     0.00000000
 C      3   2   1     1.418823212918   120.03498888   359.91862051
 C      4   3   2     1.413694442110   120.62990793   359.84597440
 C      5   4   3     1.361748196607   119.14717274     0.22525275
 H      6   5   4     1.082843815178   119.93513995   179.91896058
 H      5   4   3     1.079715773043   120.75681199   180.11029292
 O      4   3   2     1.306336196033   115.47058826   179.85527450
 C      9   4   3     1.434917661313   120.05881639   179.90280714
 H     10   9   4     1.085349318740   105.32638918   180.03535612
 H     10   9   4     1.089538312420   110.04777867   298.79251461
 H     10   9   4     1.089641763483   110.08541407    61.26754401
 H      3   2   1     1.081922936720   121.39561599   179.86591189
 H      2   1   3     1.081985574842   119.99775931   180.01782904
 S      1   2   3     1.707075729881   122.46141666   180.35298405
 H     16   1   2     1.351884872419    97.44745388     0.17501787

---------------------------
INTERNAL COORDINATES (A.U.)
---------------------------
 C      0   0   0     0.000000000000     0.00000000     0.00000000
 C      1   0   0     2.673244096718     0.00000000     0.00000000
 C      2   1   0     2.565965281702   119.50034942     0.00000000
 C      3   2   1     2.681187304866   120.03498888   359.91862051
 C      4   3   2     2.671495332634   120.62990793   359.84597440
 C      5   4   3     2.573331154949   119.14717274     0.22525275
 H      6   5   4     2.046278256496   119.93513995   179.91896058
 H      5   4   3     2.040367113526   120.75681199   180.11029292
 O      4   3   2     2.468617649332   115.47058826   179.85527450
 C      9   4   3     2.711601404608   120.05881639   179.90280714
 H     10   9   4     2.051012972057   105.32638918   180.03535612
 H     10   9   4     2.058929022888   110.04777867   298.79251461
 H     10   9   4     2.059124517065   110.08541407    61.26754401
 H      3   2   1     2.044538048408   121.39561599   179.86591189
 H      2   1   3     2.044656417305   119.99775931   180.01782904
 S      1   2   3     3.225905619339   122.46141666   180.35298405
 H     16   1   2     2.554692173463    97.44745388     0.17501787

---------------------
BASIS SET INFORMATION
---------------------
There are 4 groups of distinct atoms

 Group   1 Type C   : 19s6p3d2f contracted to 5s4p3d2f pattern {88111/3111/111/11}
 Group   2 Type H   : 6s3p2d contracted to 4s3p2d pattern {3111/111/11}
 Group   3 Type O   : 19s6p3d2f contracted to 5s4p3d2f pattern {88111/3111/111/11}
 Group   4 Type S   : 42s17p3d2f contracted to 6s5p3d2f pattern {131313111/77111/111/11}

Atom   0C    basis set group =>   1
Atom   1C    basis set group =>   1
Atom   2C    basis set group =>   1
Atom   3C    basis set group =>   1
Atom   4C    basis set group =>   1
Atom   5C    basis set group =>   1
Atom   6H    basis set group =>   2
Atom   7H    basis set group =>   2
Atom   8O    basis set group =>   3
Atom   9C    basis set group =>   1
Atom  10H    basis set group =>   2
Atom  11H    basis set group =>   2
Atom  12H    basis set group =>   2
Atom  13H    basis set group =>   2
Atom  14H    basis set group =>   2
Atom  15S    basis set group =>   4
Atom  16H    basis set group =>   2
---------------------------------
AUXILIARY/J BASIS SET INFORMATION
---------------------------------
There are 4 groups of distinct atoms

 Group   1 Type C   : 12s5p4d2f1g contracted to 6s4p3d1f1g pattern {711111/2111/211/2/1}
 Group   2 Type H   : 5s2p1d contracted to 3s1p1d pattern {311/2/1}
 Group   3 Type O   : 12s5p4d2f1g contracted to 6s4p3d1f1g pattern {711111/2111/211/2/1}
 Group   4 Type S   : 14s5p5d2f1g contracted to 8s4p3d1f1g pattern {71111111/2111/311/2/1}

Atom   0C    basis set group =>   1
Atom   1C    basis set group =>   1
Atom   2C    basis set group =>   1
Atom   3C    basis set group =>   1
Atom   4C    basis set group =>   1
Atom   5C    basis set group =>   1
Atom   6H    basis set group =>   2
Atom   7H    basis set group =>   2
Atom   8O    basis set group =>   3
Atom   9C    basis set group =>   1
Atom  10H    basis set group =>   2
Atom  11H    basis set group =>   2
Atom  12H    basis set group =>   2
Atom  13H    basis set group =>   2
Atom  14H    basis set group =>   2
Atom  15S    basis set group =>   4
Atom  16H    basis set group =>   2


           ************************************************************
           *        Program running with 12 parallel MPI-processes    *
           *              working on a common directory               *
           ************************************************************
------------------------------------------------------------------------------
                             ORCA STARTUP CALCULATIONS
                           -- RI-GTO INTEGRALS CHOSEN --
------------------------------------------------------------------------------
------------------------------------------------------------------------------
                   ___                                                        
                  /   \      - P O W E R E D   B Y -                         
                 /     \                                                     
                 |  |  |   _    _      __       _____    __    __             
                 |  |  |  | |  | |    /  \     |  _  \  |  |  /  |          
                  \  \/   | |  | |   /    \    | | | |  |  | /  /          
                 / \  \   | |__| |  /  /\  \   | |_| |  |  |/  /          
                |  |  |   |  __  | /  /__\  \  |    /   |      \           
                |  |  |   | |  | | |   __   |  |    \   |  |\   \          
                \     /   | |  | | |  |  |  |  | |\  \  |  | \   \       
                 \___/    |_|  |_| |__|  |__|  |_| \__\ |__|  \__/        
                                                                              
                      - O R C A' S   B I G   F R I E N D -                    
                                      &                                       
                       - I N T E G R A L  F E E D E R -                       
                                                                              
 v1 FN, 2020, v2 2021, v3 2022-2024                                           
------------------------------------------------------------------------------


----------------------
SHARK INTEGRAL PACKAGE
----------------------

Number of atoms                             ...     17
Number of basis functions                   ...    675
Number of shells                            ...    263
Maximum angular momentum                    ...      3
Integral batch strategy                     ... SHARK/LIBINT Hybrid
RI-J (if used) integral strategy            ... SPLIT-RIJ (Revised 2003 algorithm where possible)
Printlevel                                  ...      1
Contraction scheme used                     ... PARTIAL GENERAL contraction
Prescreening option                         ... SCHWARTZ
   Thresh                                   ... 2.500e-11
   Tcut                                     ... 2.500e-12
   Tpresel                                  ... 2.500e-12 
Coulomb Range Separation                    ... NOT USED
Exchange Range Separation                   ... NOT USED
Multipole approximations                    ... NOT USED
Finite Nucleus Model                        ... NOT USED
CABS basis                                  ... NOT available
Auxiliary Coulomb fitting basis             ... AVAILABLE
   # of basis functions in Aux-J            ...    531
   # of shells in Aux-J                     ...    177
   Maximum angular momentum in Aux-J        ...      4
Auxiliary J/K fitting basis                 ... NOT available
Auxiliary Correlation fitting basis         ... NOT available
Auxiliary 'external' fitting basis          ... NOT available

Checking pre-screening integrals            ... done (  0.7 sec) Dimension = 263
Save PGC pre-screening integrals            ... done (  0.7 sec) Dimension = 263
Calculate PGC overlap integrals             ... done (  0.8 sec) Dimension = 200
Calculating pre-screening integrals (ORCA)  ... done (  0.9 sec) Dimension = 200
Check shell pair data                       ... done (  0.4 sec)
Shell pair information
Shell pair cut-off parameter TPreSel        ...   2.5e-12
Total number of shell pairs                 ...     34716
Shell pairs after pre-screening             ...     28386
Total number of primitive shell pairs       ...     43708
Primitive shell pairs kept                  ...     33485
          la=0 lb=0:   6378 shell pairs
          la=1 lb=0:   7396 shell pairs
          la=1 lb=1:   1985 shell pairs
          la=2 lb=0:   4969 shell pairs
          la=2 lb=1:   2570 shell pairs
          la=2 lb=2:    883 shell pairs
          la=3 lb=0:   2189 shell pairs
          la=3 lb=1:   1107 shell pairs
          la=3 lb=2:    740 shell pairs
          la=3 lb=3:    169 shell pairs

Calculating one electron integrals          ... done (  0.0 sec)
Calculating RI/J V-Matrix + Cholesky decomp.... done (  0.1 sec)
Calculating Nuclear repulsion               ... done (  0.0 sec) ENN=    487.083345381161 Eh

Diagonalization of the overlap matrix:
Smallest eigenvalue                        ... 6.762e-07
Time for diagonalization                   ...    0.100 sec
Threshold for overlap eigenvalues          ... 1.000e-07
Number of eigenvalues below threshold      ... 0

IMPORTANT:
Smallest eigenvalue of S below the DiffSThresh (1.000e-06) while
Thresh>1e-12 and/or TCut>1e-13! In order to avoid SCF convergence issues,
Thresh will be set to at least 1e-12 and TCut to at least 1e-13.
This can be turned off by adding %SCF DiffSThresh -1 END to the input.

Time for construction of square roots      ...    0.117 sec
Total time needed                          ...    0.627 sec

-------------------
DFT GRID GENERATION
-------------------

General Integration Accuracy     IntAcc      ... 4.388
Radial Grid Type                 RadialGrid  ... OptM3 with GC (2021)
Angular Grid (max. ang.)         AngularGrid ... 4 (Lebedev-302)
Angular grid pruning method      GridPruning ... 4 (adaptive)
Weight generation scheme         WeightScheme... mBecke (2022)
Basis function cutoff            BFCut       ... 1.0000e-11
Integration weight cutoff        WCut        ... 1.0000e-14
Partially contracted basis set               ... off
Rotationally invariant grid construction     ... off
Angular grids for H and He will be reduced by one unit
Diffuse basis detected: some atoms will have their outermost
                        angular grid increased by 1.

Total number of grid points                  ...    85085
Total number of batches                      ...     1338
Average number of points per batch           ...       63
Average number of grid points per atom       ...     5005

---------------------
SHARK GRID GENERATION
---------------------

General Integration Accuracy     IntAcc      ... 4.388
Radial Grid Type                 RadialGrid  ... OptM3 with GC (2021)
Angular Grid (max. ang.)         AngularGrid ... 4 (Lebedev-302)
Angular grid pruning method      GridPruning ... 4 (adaptive)
Weight generation scheme         WeightScheme... mBecke (2022)
Basis function cutoff            BFCut       ... 1.0000e-11
Integration weight cutoff        WCut        ... 1.0000e-14
Partially contracted basis set               ... off
Rotationally invariant grid construction     ... off
Angular grids for H and He will be reduced by one unit
Diffuse basis detected: some atoms will have their outermost
                        angular grid increased by 1.
Core-polarized basis detected: some atoms will have their core
                               angular grid increased.
Steep s-basis detected: some atoms will have their radial
                        grid points doubled.

Total number of grid points                  ...   147871
Total number of batches                      ...     2320
Average number of points per batch           ...       63
Average number of grid points per atom       ...     8698

--------------------
COSX GRID GENERATION
--------------------

GRIDX 1
-------
General Integration Accuracy     IntAcc      ... 3.816
Radial Grid Type                 RadialGrid  ... OptM3 with GC (2021)
Angular Grid (max. ang.)         AngularGrid ... 1 (Lebedev-50)
Angular grid pruning method      GridPruning ... 4 (adaptive)
Weight generation scheme         WeightScheme... mBecke (2022)
Basis function cutoff            BFCut       ... 1.0000e-11
Integration weight cutoff        WCut        ... 1.0000e-14
Partially contracted basis set               ... on
Rotationally invariant grid construction     ... off
Angular grids for H and He will be reduced by one unit
Diffuse basis detected: some atoms will have their outermost
                        angular grid increased by 1.

Total number of grid points                  ...    11895
Total number of batches                      ...      104
Average number of points per batch           ...      114
Average number of grid points per atom       ...      700
UseSFitting                                  ... on

GRIDX 2
-------
General Integration Accuracy     IntAcc      ... 4.020
Radial Grid Type                 RadialGrid  ... OptM3 with GC (2021)
Angular Grid (max. ang.)         AngularGrid ... 2 (Lebedev-110)
Angular grid pruning method      GridPruning ... 4 (adaptive)
Weight generation scheme         WeightScheme... mBecke (2022)
Basis function cutoff            BFCut       ... 1.0000e-11
Integration weight cutoff        WCut        ... 1.0000e-14
Partially contracted basis set               ... on
Rotationally invariant grid construction     ... off
Angular grids for H and He will be reduced by one unit
Diffuse basis detected: some atoms will have their outermost
                        angular grid increased by 1.

Total number of grid points                  ...    25657
Total number of batches                      ...      212
Average number of points per batch           ...      121
Average number of grid points per atom       ...     1509
UseSFitting                                  ... on

GRIDX 3
-------
General Integration Accuracy     IntAcc      ... 4.338
Radial Grid Type                 RadialGrid  ... OptM3 with GC (2021)
Angular Grid (max. ang.)         AngularGrid ... 3 (Lebedev-194)
Angular grid pruning method      GridPruning ... 4 (adaptive)
Weight generation scheme         WeightScheme... mBecke (2022)
Basis function cutoff            BFCut       ... 1.0000e-11
Integration weight cutoff        WCut        ... 1.0000e-14
Partially contracted basis set               ... on
Rotationally invariant grid construction     ... off
Angular grids for H and He will be reduced by one unit
Diffuse basis detected: some atoms will have their outermost
                        angular grid increased by 1.

Total number of grid points                  ...    57728
Total number of batches                      ...      459
Average number of points per batch           ...      125
Average number of grid points per atom       ...     3396
UseSFitting                                  ... on
Initializing property integral containers    ... done (  0.9 sec)

SHARK setup successfully completed in  14.4 seconds

Maximum memory used throughout the entire STARTUP-calculation: 80.3 MB


           ************************************************************
           *        Program running with 12 parallel MPI-processes    *
           *              working on a common directory               *
           ************************************************************
-------------------------------------------------------------------------------
                                 ORCA GUESS
                   Start orbitals & Density for SCF / CASSCF
-------------------------------------------------------------------------------

------------
SCF SETTINGS
------------
Hamiltonian:
 Density Functional     Method          .... DFT(GTOs)
 Exchange Functional    Exchange        .... PBE
   PBE kappa parameter   XKappa         ....  0.804000
   PBE mue parameter    XMuePBE         ....  0.219520
 Correlation Functional Correlation     .... PBE
   PBE beta parameter  CBetaPBE         ....  0.066725
 LDA part of GGA corr.  LDAOpt          .... PW91-LDA
 Gradients option       PostSCFGGA      .... off
 Hybrid DFT is turned on
   Fraction HF Exchange ScalHFX         ....  0.250000
   Scaling of DF-GGA-X  ScalDFX         ....  0.750000
   Scaling of DF-GGA-C  ScalDFC         ....  1.000000
   Scaling of DF-LDA-C  ScalLDAC        ....  1.000000
   Perturbative correction              ....  0.000000
   NL short-range parameter             ....  6.900000
 RI-approximation to the Coulomb term is turned on
   Number of AuxJ basis functions       .... 531
   RIJ-COSX (HFX calculated with COS-X)).... on


General Settings:
 Integral files         IntName         .... cs_rporg_078_ox_freq_04
 Hartree-Fock type      HFTyp           .... UHF
 Total Charge           Charge          ....    1
 Multiplicity           Mult            ....    2
 Number of Electrons    NEL             ....   73
 Basis Dimension        Dim             ....  602
 Nuclear Repulsion      ENuc            ....    487.0833453812 Eh

Convergence Acceleration:
 AO-DIIS                CNVDIIS         .... on
   Start iteration      DIISMaxIt       ....     0
   Startup error        DIISStart       ....  0.200000
   # of expansion vecs  DIISMaxEq       ....     5
   Bias factor          DIISBfac        ....   1.050
   Max. coefficient     DIISMaxC        ....  10.000
 MO-DIIS                CNVKDIIS        .... off
 Trust-Rad. Augm. Hess. CNVTRAH         .... auto
   Auto Start mean grad. ratio tolernc. ....  1.125000
   Auto Start start iteration           ....    50
   Auto Start num. interpolation iter.  ....    10
   Max. Number of Micro iterations      ....    24
   Max. Number of Macro iterations      .... Maxiter - #DIIS iter
   Number of Davidson start vectors     ....     2
   Converg. threshold    (grad. norm)   ....   1.000e-05
   Grad. Scal. Fac. for Micro threshold ....   0.100
   Minimum threshold for Micro iter.    ....   1.000e-02
   NR start threshold (gradient norm)   ....   1.000e-04
   Initial trust radius                 ....   0.400
   Minimum AH scaling param. (alpha)    ....   1.000
   Maximum AH scaling param. (alpha)    .... 1000.000
   Quad. conv. algorithm                .... NR
   White noise on init. David. guess    .... on
   Maximum white noise                  ....   0.010
   Pseudo random numbers                .... off
   Inactive MOs                         .... canonical
   Orbital update algorithm             .... Taylor
   Preconditioner                       .... Diag
   Full preconditioner red. dimension   ....   250
 SOSCF                  CNVSOSCF        .... on
   Start iteration      SOSCFMaxIt      ....   150
   Startup grad/error   SOSCFStart      ....  0.001000
   Hessian update       SOSCFHessUp     .... L-BFGS
 Level Shifting         CNVShift        .... on
   Level shift para.    LevelShift      ....    0.2500
   Turn off err/grad.   ShiftErr        ....    0.0000
 Zerner damping         CNVZerner       .... off
 Static damping         CNVDamp         .... on
   Fraction old density DampFac         ....    0.8500
   Max. Damping (<1)    DampMax         ....    0.9800
   Min. Damping (>=0)   DampMin         ....    0.0000
   Turn off err/grad.   DampErr         ....    0.0300

SCF Procedure:
 Maximum # iterations   MaxIter         ....  1500
 SCF integral mode      SCFMode         .... Direct
   Integral package                     .... SHARK and LIBINT hybrid scheme
 Reset frequency        DirectResetFreq ....    20
 Integral Threshold     Thresh          ....  1.000e-12 Eh
 Primitive CutOff       TCut            ....  1.000e-13 Eh

Convergence Tolerance:
 Convergence Check Mode ConvCheckMode   .... Total+1el-Energy
 Convergence forced     ConvForced      .... 0
 Energy Change          TolE            ....  1.000e-08 Eh
 1-El. energy change                    ....  1.000e-05 Eh
 Orbital Gradient       TolG            ....  1.000e-05
 Orbital Rotation angle TolX            ....  1.000e-05
 DIIS Error             TolErr          ....  5.000e-07

------------------------------
INITIAL GUESS: MODEL POTENTIAL
------------------------------
Loading Hartree-Fock densities                     ... done
Calculating cut-offs                               ... done
Initializing the effective Hamiltonian             ... done
Setting up the integral package (SHARK)            ... done
Starting the Coulomb interaction                   ... done (   1.2 sec)
Making the grid                                    ... done (   1.1 sec)
Mapping shells                                     ... done
Starting the XC term evaluation                    ... done (   0.3 sec)
  promolecular density results
     # of electrons  =     73.996856382
     EX              =    -71.252783432
     EC              =     -2.552752667
     EX+EC           =    -73.805536099
Transforming the Hamiltonian                       ... done (   0.6 sec)
Diagonalizing the Hamiltonian                      ... done (   0.1 sec)
Back transforming the eigenvectors                 ... done (   1.1 sec)
Now organizing SCF variables                       ... done
                      ------------------
                      INITIAL GUESS DONE (   9.7 sec)
                      ------------------
             **** ENERGY FILE WAS UPDATED (cs_rporg_078_ox_freq_04.en.tmp) ****
Finished Guess after  17.5 sec
Maximum memory used throughout the entire GUESS-calculation: 43.6 MB


           ************************************************************
           *        Program running with 12 parallel MPI-processes    *
           *              working on a common directory               *
           ************************************************************

-------------------------------------------------------------------------------------------
                                      ORCA LEAN-SCF
                              memory conserving SCF solver
-------------------------------------------------------------------------------------------

--------------------
CPCM SOLVATION MODEL
--------------------
CPCM parameters:
  Epsilon                                         ...      35.6880
  Refrac                                          ...       1.3442
  Rsolv                                           ...       2.1900
  Surface type                                    ...    GEPOL SES
  Discretization scheme                           ... Constant num. charges
  Epsilon function type                           ...         CPCM
Solvent:                                          ... ACETONITRILE
SMD-CDS solvent descriptors:
  Soln                                            ...       1.3442
  Soln25                                          ...       1.3416
  Sola                                            ...       0.0700
  Solb                                            ...       0.3200
  Solg                                            ...      41.2500
  Solc                                            ...       0.0000
  Solh                                            ...       0.0000
Radii:
  Scheme                                          ... Element-dependent radii
  Radius for C  used is    3.4960 Bohr (=   1.8500 Ang.)
  Radius for H  used is    2.2677 Bohr (=   1.2000 Ang.)
  Radius for O  used is    4.0969 Bohr (=   2.1680 Ang.)
  Radius for S  used is    4.7054 Bohr (=   2.4900 Ang.)
Calculating surface                               ...        done! (  0.0s)
Cavity surface points                             ...          522
Cavity Volume                                     ...    1193.2829
Cavity Surface-area                               ...     649.7128
Calculating surface distance matrix               ...        done! (  0.0s)
Performing Cholesky decomposition & store         ...        done! (  0.0s)
Overall time for CPCM initialization              ...                 0.1s

----------------------------------------D-I-I-S--------------------------------------------
Iteration    Energy (Eh)           Delta-E    RMSDP     MaxDP     DIISErr   Damp  Time(sec)
-------------------------------------------------------------------------------------------
               ***  Starting incremental Fock matrix formation  ***
    1    -744.2042331982146379     0.00e+00  4.22e-04  5.57e-02  7.34e-02  0.850  37.1
Warning: op=1 Small HOMO/LUMO gap (   0.063) - skipping pre-diagonalization
         Will do a full diagonalization
    2    -744.2442693990996077    -4.00e-02  4.07e-04  4.96e-02  5.58e-02  0.850  41.2
                               ***Turning on AO-DIIS***
    3    -744.2724277245964686    -2.82e-02  3.04e-04  3.76e-02  3.98e-02  0.850  35.3
    4    -744.2908812093677398    -1.85e-02  2.46e-04  3.13e-02  3.26e-02  0.850  35.2
    5    -744.3042317770729142    -1.34e-02  2.07e-04  2.67e-02  2.76e-02  0.850  36.9
    6    -744.3146622450959740    -1.04e-02  1.17e-03  1.54e-01  2.35e-02  0.000  35.1
    7    -744.3664950413325414    -5.18e-02  7.19e-05  4.84e-03  2.64e-03  0.000  36.2
    8    -744.3666226053700257    -1.28e-04  2.55e-05  1.59e-03  1.21e-03  0.000  35.0
    9    -744.3666745063052304    -5.19e-05  2.37e-05  1.50e-03  1.03e-03  0.000  33.4
                              *** Initializing SOSCF ***
---------------------------------------S-O-S-C-F--------------------------------------
Iteration    Energy (Eh)           Delta-E    RMSDP     MaxDP     MaxGrad    Time(sec)
--------------------------------------------------------------------------------------
   10    -744.3667057854150926    -3.13e-05  1.06e-05  1.11e-03  8.70e-04    38.3
               *** Restarting incremental Fock matrix formation ***
   11    -744.3667204534611983    -1.47e-05  6.90e-05  5.70e-03  6.16e-04    33.6
   12    -744.3667335641276850    -1.31e-05  5.13e-05  3.95e-03  2.52e-04    34.0
   13    -744.3667379697529896    -4.41e-06  4.14e-05  3.53e-03  3.02e-04    36.4
   14    -744.3667403933330888    -2.42e-06  1.16e-05  8.64e-04  1.59e-04    34.1
   15    -744.3667406721450561    -2.79e-07  7.63e-06  6.25e-04  9.15e-05    33.1
   16    -744.3667409526632355    -2.81e-07  1.36e-06  8.07e-05  3.42e-05    34.9
   17    -744.3667409832970634    -3.06e-08  1.42e-06  1.15e-04  2.57e-05    34.6
   18    -744.3667409983376047    -1.50e-08  5.62e-07  3.95e-05  8.28e-06    34.1
   19    -744.3667409929427095     5.39e-09  3.58e-07  2.62e-05  6.24e-06    33.3
                 **** Energy Check signals convergence ****

               *****************************************************
               *                     SUCCESS                       *
               *           SCF CONVERGED AFTER  19 CYCLES          *
               *****************************************************

Recomputing exchange energy using gridx3       ... done (   13.941 sec)
Old exchange energy                            :    -18.028477300 Eh
New exchange energy                            :    -18.028460638 Eh
Exchange energy change after final integration :      0.000016662 Eh
Total energy after final integration           :   -744.366724331 Eh

SMD CDS free energy correction energy :                -1.71985     Kcal/mol
Total Energy after SMD CDS correction =              -744.369465080 Eh
             **** ENERGY FILE WAS UPDATED (cs_rporg_078_ox_freq_04.en.tmp) ****

----------------
TOTAL SCF ENERGY
----------------

Total Energy       :       -744.36946507967912 Eh          -20255.32291 eV

Components:
Nuclear Repulsion  :        487.08334538116139 Eh           13254.21166 eV
Electronic Energy  :      -1231.36668023712605 Eh          -33507.19084 eV
One Electron Energy:      -1971.51473435268008 Eh          -53647.64332 eV
Two Electron Energy:        740.14805411555403 Eh           20140.45247 eV
CPCM Dielectric    :         -0.08340613697817 Eh              -2.26960 eV
SMD CDS (Gcds)     :         -0.00274074888677 Eh              -0.07458 eV

Virial components:
Potential Energy   :      -1485.69855893426347 Eh          -40427.91310 eV
Kinetic Energy     :        741.32909385458424 Eh           20172.59020 eV
Virial Ratio       :          2.00410124363161

DFT components:
N(Alpha)           :       37.000020245444 electrons
N(Beta)            :       36.000014176228 electrons
N(Total)           :       73.000034421672 electrons
E(X)               :      -53.900687135138 Eh       
E(C)               :       -2.515946850427 Eh       
E(XC)              :      -56.416633985566 Eh       

CPCM Solvation Model Properties:
Surface-charge          :         -1.02459840015534
Corrected charge        :         -1.00000000000000
Outlying charge corr.   :          0.00004142581286 Eh               0.00113 eV
Free-energy (cav+disp)  :         -0.00274074888677 Eh              -0.07458 eV

---------------
SCF CONVERGENCE
---------------

  Last Energy change         ...   -5.3949e-09  Tolerance :   1.0000e-08
  Last MAX-Density change    ...    2.6209e-05  Tolerance :   1.0000e-07
  Last RMS-Density change    ...    3.5840e-07  Tolerance :   5.0000e-09
  Last DIIS Error            ...    8.6954e-04  Tolerance :   5.0000e-07
  Last Orbital Gradient      ...    6.2363e-06  Tolerance :   1.0000e-05
  Last Orbital Rotation      ...    2.4642e-05  Tolerance :   1.0000e-05


----------------------
UHF SPIN CONTAMINATION
----------------------

Warning: in a DFT calculation there is little theoretical justification to 
         calculate <S**2> as in Hartree-Fock theory. We will do it anyways
         but you should keep in mind that the values have only limited relevance

Expectation value of <S**2>     :     0.759979
Ideal value S*(S+1) for S=0.5   :     0.750000
Deviation                       :     0.009979

----------------
ORBITAL ENERGIES
----------------
                 SPIN UP ORBITALS
  NO   OCC          E(Eh)            E(eV) 
   0   1.0000     -89.124453     -2425.1997 
   1   1.0000     -19.308058      -525.3990 
   2   1.0000     -10.354175      -281.7514 
   3   1.0000     -10.329540      -281.0811 
   4   1.0000     -10.286658      -279.9142 
   5   1.0000     -10.282448      -279.7996 
   6   1.0000     -10.278133      -279.6822 
   7   1.0000     -10.272809      -279.5374 
   8   1.0000     -10.272627      -279.5324 
   9   1.0000      -8.082036      -219.9234 
  10   1.0000      -6.018027      -163.7589 
  11   1.0000      -6.016127      -163.7071 
  12   1.0000      -6.014058      -163.6508 
  13   1.0000      -1.168825       -31.8054 
  14   1.0000      -0.947462       -25.7817 
  15   1.0000      -0.871867       -23.7247 
  16   1.0000      -0.829228       -22.5644 
  17   1.0000      -0.795079       -21.6352 
  18   1.0000      -0.738458       -20.0945 
  19   1.0000      -0.680422       -18.5152 
  20   1.0000      -0.646370       -17.5886 
  21   1.0000      -0.591947       -16.1077 
  22   1.0000      -0.560677       -15.2568 
  23   1.0000      -0.532799       -14.4982 
  24   1.0000      -0.532700       -14.4955 
  25   1.0000      -0.494589       -13.4584 
  26   1.0000      -0.482837       -13.1387 
  27   1.0000      -0.471290       -12.8245 
  28   1.0000      -0.452718       -12.3191 
  29   1.0000      -0.444890       -12.1061 
  30   1.0000      -0.414229       -11.2717 
  31   1.0000      -0.408126       -11.1057 
  32   1.0000      -0.402766       -10.9598 
  33   1.0000      -0.377089       -10.2611 
  34   1.0000      -0.347025        -9.4430 
  35   1.0000      -0.320156        -8.7119 
  36   1.0000      -0.266493        -7.2516 
  37   0.0000      -0.056136        -1.5275 
  38   0.0000      -0.048988        -1.3330 
  39   0.0000      -0.017077        -0.4647 
  40   0.0000       0.001860         0.0506 
  41   0.0000       0.005835         0.1588 
  42   0.0000       0.013608         0.3703 
  43   0.0000       0.021996         0.5985 
  44   0.0000       0.027514         0.7487 
  45   0.0000       0.030434         0.8281 
  46   0.0000       0.037493         1.0202 
  47   0.0000       0.045681         1.2430 

                 SPIN DOWN ORBITALS
  NO   OCC          E(Eh)            E(eV) 
   0   1.0000     -89.122614     -2425.1496 
   1   1.0000     -19.303132      -525.2649 
   2   1.0000     -10.351303      -281.6733 
   3   1.0000     -10.325563      -280.9729 
   4   1.0000     -10.286831      -279.9189 
   5   1.0000     -10.281738      -279.7803 
   6   1.0000     -10.278107      -279.6815 
   7   1.0000     -10.272012      -279.5156 
   8   1.0000     -10.271774      -279.5092 
   9   1.0000      -8.080136      -219.8717 
  10   1.0000      -6.016954      -163.7296 
  11   1.0000      -6.013073      -163.6240 
  12   1.0000      -6.009572      -163.5288 
  13   1.0000      -1.159488       -31.5513 
  14   1.0000      -0.939837       -25.5743 
  15   1.0000      -0.863162       -23.4878 
  16   1.0000      -0.827034       -22.5047 
  17   1.0000      -0.790157       -21.5013 
  18   1.0000      -0.729596       -19.8533 
  19   1.0000      -0.675981       -18.3944 
  20   1.0000      -0.641562       -17.4578 
  21   1.0000      -0.589174       -16.0322 
  22   1.0000      -0.558673       -15.2023 
  23   1.0000      -0.529234       -14.4012 
  24   1.0000      -0.514588       -14.0027 
  25   1.0000      -0.492025       -13.3887 
  26   1.0000      -0.481801       -13.1105 
  27   1.0000      -0.468879       -12.7588 
  28   1.0000      -0.442996       -12.0545 
  29   1.0000      -0.434635       -11.8270 
  30   1.0000      -0.412433       -11.2229 
  31   1.0000      -0.397967       -10.8292 
  32   1.0000      -0.388272       -10.5654 
  33   1.0000      -0.374169       -10.1817 
  34   1.0000      -0.317137        -8.6297 
  35   1.0000      -0.313426        -8.5288 
  36   0.0000      -0.182837        -4.9753 
  37   0.0000      -0.038197        -1.0394 
  38   0.0000      -0.028169        -0.7665 
  39   0.0000      -0.015226        -0.4143 
  40   0.0000       0.003022         0.0822 
  41   0.0000       0.008312         0.2262 
  42   0.0000       0.013709         0.3730 
  43   0.0000       0.022923         0.6238 
  44   0.0000       0.028334         0.7710 
  45   0.0000       0.030824         0.8388 
  46   0.0000       0.038461         1.0466 
*Only the first 10 virtual orbitals were printed.

                    ********************************
                    * MULLIKEN POPULATION ANALYSIS *
                    ********************************

--------------------------------------------
MULLIKEN ATOMIC CHARGES AND SPIN POPULATIONS
--------------------------------------------
   0 C :    0.578024    0.191476
   1 C :   -0.668986   -0.008240
   2 C :   -0.834334    0.047202
   3 C :    1.039509    0.175053
   4 C :   -0.377865    0.030618
   5 C :   -0.805177    0.049585
   6 H :    0.608398   -0.002822
   7 H :    0.604703    0.012901
   8 O :   -0.560319    0.158440
   9 C :   -0.730213   -0.012688
  10 H :    0.280537    0.001096
  11 H :    0.338461    0.006684
  12 H :    0.338117    0.006703
  13 H :    0.686132    0.004875
  14 H :    0.559956    0.001028
  15 S :   -0.238732    0.365214
  16 H :    0.181789   -0.027124
Sum of atomic charges         :    1.0000000
Sum of atomic spin populations:    1.0000000

-----------------------------------------------------
MULLIKEN REDUCED ORBITAL CHARGES AND SPIN POPULATIONS
-----------------------------------------------------
CHARGE
  0 C s       :     3.148868  s :     3.148868
      pz      :     0.937274  p :     2.316953
      px      :     0.520378
      py      :     0.859301
      dz2     :    -0.014233  d :    -0.021931
      dxz     :    -0.039434
      dyz     :     0.011990
      dx2y2   :     0.057261
      dxy     :    -0.037515
      f0      :     0.005148  f :    -0.021913
      f+1     :    -0.000253
      f-1     :     0.000459
      f+2     :     0.004208
      f-2     :    -0.002372
      f+3     :    -0.005486
      f-3     :    -0.023616

  1 C s       :     3.764370  s :     3.764370
      pz      :     0.938301  p :     2.775086
      px      :     0.986507
      py      :     0.850278
      dz2     :    -0.007045  d :     0.142848
      dxz     :     0.033176
      dyz     :    -0.007284
      dx2y2   :     0.004876
      dxy     :     0.119127
      f0      :     0.001723  f :    -0.013318
      f+1     :     0.000920
      f-1     :     0.000750
      f+2     :     0.000728
      f-2     :     0.000893
      f+3     :    -0.002238
      f-3     :    -0.016094

  2 C s       :     3.853451  s :     3.853451
      pz      :     0.910829  p :     2.791049
      px      :     0.909599
      py      :     0.970621
      dz2     :     0.004023  d :     0.205756
      dxz     :     0.026389
      dyz     :     0.014495
      dx2y2   :     0.035288
      dxy     :     0.125560
      f0      :     0.000590  f :    -0.015922
      f+1     :    -0.000365
      f-1     :     0.000801
      f+2     :     0.001701
      f-2     :    -0.000502
      f+3     :    -0.000544
      f-3     :    -0.017603

  3 C s       :     3.063989  s :     3.063989
      pz      :     0.819849  p :     1.991295
      px      :     0.354521
      py      :     0.816926
      dz2     :    -0.017925  d :    -0.102577
      dxz     :     0.047226
      dyz     :    -0.012163
      dx2y2   :    -0.047269
      dxy     :    -0.072446
      f0      :     0.004265  f :     0.007784
      f+1     :     0.000720
      f-1     :     0.001305
      f+2     :     0.008391
      f-2     :     0.006057
      f+3     :     0.001721
      f-3     :    -0.014675

  4 C s       :     3.742192  s :     3.742192
      pz      :     0.911831  p :     2.468139
      px      :     0.660873
      py      :     0.895436
      dz2     :    -0.001050  d :     0.185127
      dxz     :    -0.006554
      dyz     :    -0.007157
      dx2y2   :     0.022736
      dxy     :     0.177152
      f0      :     0.000655  f :    -0.017593
      f+1     :     0.000028
      f-1     :    -0.000079
      f+2     :     0.001189
      f-2     :    -0.000868
      f+3     :    -0.000359
      f-3     :    -0.018159

  5 C s       :     3.934441  s :     3.934441
      pz      :     0.938561  p :     2.792009
      px      :     0.938349
      py      :     0.915100
      dz2     :    -0.008437  d :     0.090974
      dxz     :     0.009061
      dyz     :    -0.000674
      dx2y2   :     0.017975
      dxy     :     0.073049
      f0      :     0.002173  f :    -0.012247
      f+1     :     0.000826
      f-1     :     0.000698
      f+2     :     0.000659
      f-2     :     0.000670
      f+3     :    -0.001779
      f-3     :    -0.015493

  6 H s       :     0.384873  s :     0.384873
      pz      :     0.009627  p :     0.000540
      px      :     0.008139
      py      :    -0.017225
      dz2     :    -0.000096  d :     0.006189
      dxz     :     0.000842
      dyz     :     0.003798
      dx2y2   :     0.000749
      dxy     :     0.000896

  7 H s       :     0.418780  s :     0.418780
      pz      :     0.008061  p :    -0.031158
      px      :    -0.008857
      py      :    -0.030362
      dz2     :     0.000279  d :     0.007675
      dxz     :     0.002365
      dyz     :     0.002006
      dx2y2   :     0.002858
      dxy     :     0.000168

  8 O s       :     4.104172  s :     4.104172
      pz      :     1.639980  p :     4.364703
      px      :     1.205137
      py      :     1.519586
      dz2     :     0.000709  d :     0.084142
      dxz     :     0.024814
      dyz     :     0.009797
      dx2y2   :     0.020729
      dxy     :     0.028093
      f0      :     0.001021  f :     0.007301
      f+1     :     0.000122
      f-1     :     0.000037
      f+2     :     0.001097
      f-2     :     0.001026
      f+3     :     0.001409
      f-3     :     0.002589

  9 C s       :     3.521383  s :     3.521383
      pz      :     1.159260  p :     3.008157
      px      :     0.968967
      py      :     0.879930
      dz2     :     0.018763  d :     0.171244
      dxz     :     0.003719
      dyz     :     0.071425
      dx2y2   :     0.054283
      dxy     :     0.023055
      f0      :     0.003205  f :     0.029429
      f+1     :     0.001552
      f-1     :     0.003889
      f+2     :     0.000743
      f-2     :     0.006282
      f+3     :     0.000716
      f-3     :     0.013041

 10 H s       :     0.684527  s :     0.684527
      pz      :     0.011869  p :     0.033988
      px      :     0.016178
      py      :     0.005942
      dz2     :    -0.001268  d :     0.000947
      dxz     :     0.001427
      dyz     :     0.002082
      dx2y2   :     0.000349
      dxy     :    -0.001642

 11 H s       :     0.632018  s :     0.632018
      pz      :     0.011168  p :     0.024342
      px      :     0.004955
      py      :     0.008218
      dz2     :     0.002503  d :     0.005179
      dxz     :     0.001356
      dyz     :     0.000210
      dx2y2   :     0.000289
      dxy     :     0.000820

 12 H s       :     0.632255  s :     0.632255
      pz      :     0.011173  p :     0.024472
      px      :     0.005069
      py      :     0.008230
      dz2     :     0.002514  d :     0.005156
      dxz     :     0.001329
      dyz     :     0.000191
      dx2y2   :     0.000292
      dxy     :     0.000829

 13 H s       :     0.339962  s :     0.339962
      pz      :     0.013942  p :    -0.030570
      px      :    -0.013071
      py      :    -0.031440
      dz2     :    -0.000346  d :     0.004476
      dxz     :     0.001417
      dyz     :     0.002983
      dx2y2   :     0.000959
      dxy     :    -0.000537

 14 H s       :     0.441282  s :     0.441282
      pz      :     0.010840  p :    -0.007565
      px      :    -0.007356
      py      :    -0.011049
      dz2     :    -0.000464  d :     0.006326
      dxz     :     0.001390
      dyz     :     0.003402
      dx2y2   :     0.001585
      dxy     :     0.000414

 15 S s       :     6.055261  s :     6.055261
      pz      :     3.618873  p :    10.059626
      px      :     3.067855
      py      :     3.372897
      dz2     :     0.016516  d :     0.110264
      dxz     :     0.028515
      dyz     :     0.002961
      dx2y2   :     0.050004
      dxy     :     0.012267
      f0      :     0.002496  f :     0.013581
      f+1     :     0.002165
      f-1     :     0.001150
      f+2     :     0.001910
      f-2     :     0.000198
      f+3     :     0.002218
      f-3     :     0.003445

 16 H s       :     0.737155  s :     0.737155
      pz      :     0.021397  p :     0.067812
      px      :     0.014499
      py      :     0.031916
      dz2     :     0.001153  d :     0.013244
      dxz     :     0.001193
      dyz     :     0.004345
      dx2y2   :     0.003402
      dxy     :     0.003151


SPIN
  0 C s       :     0.015268  s :     0.015268
      pz      :     0.194942  p :     0.187413
      px      :    -0.007212
      py      :    -0.000317
      dz2     :    -0.000642  d :    -0.011221
      dxz     :    -0.004941
      dyz     :     0.002766
      dx2y2   :    -0.008434
      dxy     :     0.000030
      f0      :    -0.000238  f :     0.000016
      f+1     :    -0.000166
      f-1     :    -0.000138
      f+2     :     0.000803
      f-2     :     0.000559
      f+3     :     0.000055
      f-3     :    -0.000859

  1 C s       :     0.001837  s :     0.001837
      pz      :     0.005105  p :    -0.006093
      px      :    -0.008992
      py      :    -0.002205
      dz2     :     0.000674  d :    -0.003014
      dxz     :    -0.001490
      dyz     :     0.005300
      dx2y2   :     0.000895
      dxy     :    -0.008394
      f0      :    -0.000135  f :    -0.000969
      f+1     :    -0.000110
      f-1     :     0.000061
      f+2     :     0.000293
      f-2     :    -0.000569
      f+3     :    -0.000532
      f-3     :     0.000023

  2 C s       :    -0.012020  s :    -0.012020
      pz      :     0.063758  p :     0.057756
      px      :    -0.006767
      py      :     0.000765
      dz2     :    -0.001011  d :     0.002895
      dxz     :    -0.001889
      dyz     :     0.000336
      dx2y2   :     0.003709
      dxy     :     0.001749
      f0      :    -0.000240  f :    -0.001429
      f+1     :    -0.000177
      f-1     :    -0.000044
      f+2     :    -0.000045
      f-2     :    -0.000690
      f+3     :    -0.000378
      f-3     :     0.000145

  3 C s       :     0.009520  s :     0.009520
      pz      :     0.163065  p :     0.154408
      px      :    -0.006839
      py      :    -0.001817
      dz2     :    -0.000085  d :     0.011486
      dxz     :     0.008257
      dyz     :     0.000659
      dx2y2   :    -0.000776
      dxy     :     0.003431
      f0      :    -0.000274  f :    -0.000362
      f+1     :    -0.000215
      f-1     :    -0.000160
      f+2     :     0.002308
      f-2     :     0.000914
      f+3     :    -0.000544
      f-3     :    -0.002390

  4 C s       :    -0.008040  s :    -0.008040
      pz      :     0.042311  p :     0.032406
      px      :    -0.008606
      py      :    -0.001298
      dz2     :    -0.000626  d :     0.008050
      dxz     :     0.001588
      dyz     :     0.003110
      dx2y2   :     0.000670
      dxy     :     0.003309
      f0      :    -0.000236  f :    -0.001797
      f+1     :    -0.000126
      f-1     :    -0.000020
      f+2     :     0.000096
      f-2     :    -0.000734
      f+3     :    -0.000858
      f-3     :     0.000082

  5 C s       :     0.002880  s :     0.002880
      pz      :     0.044606  p :     0.045270
      px      :    -0.001273
      py      :     0.001936
      dz2     :     0.000768  d :     0.002117
      dxz     :     0.002735
      dyz     :     0.003469
      dx2y2   :    -0.002342
      dxy     :    -0.002511
      f0      :    -0.000160  f :    -0.000683
      f+1     :    -0.000177
      f-1     :     0.000023
      f+2     :     0.000557
      f-2     :    -0.000634
      f+3     :    -0.000338
      f-3     :     0.000044

  6 H s       :    -0.005865  s :    -0.005865
      pz      :     0.000944  p :     0.002627
      px      :     0.001131
      py      :     0.000552
      dz2     :     0.000096  d :     0.000417
      dxz     :    -0.000055
      dyz     :     0.000151
      dx2y2   :     0.000132
      dxy     :     0.000092

  7 H s       :     0.010119  s :     0.010119
      pz      :     0.001364  p :     0.002517
      px      :    -0.000754
      py      :     0.001907
      dz2     :     0.000088  d :     0.000265
      dxz     :    -0.000133
      dyz     :     0.000071
      dx2y2   :     0.000113
      dxy     :     0.000126

  8 O s       :     0.001938  s :     0.001938
      pz      :     0.135552  p :     0.150051
      px      :     0.006738
      py      :     0.007761
      dz2     :     0.000252  d :     0.006210
      dxz     :     0.005240
      dyz     :     0.000203
      dx2y2   :     0.000358
      dxy     :     0.000157
      f0      :     0.000013  f :     0.000241
      f+1     :    -0.000048
      f-1     :    -0.000010
      f+2     :     0.000058
      f-2     :     0.000067
      f+3     :     0.000031
      f-3     :     0.000130

  9 C s       :    -0.008314  s :    -0.008314
      pz      :    -0.000375  p :    -0.009566
      px      :    -0.003903
      py      :    -0.005288
      dz2     :    -0.000235  d :     0.004585
      dxz     :     0.000451
      dyz     :     0.004926
      dx2y2   :    -0.000816
      dxy     :     0.000260
      f0      :    -0.000080  f :     0.000607
      f+1     :     0.000041
      f-1     :     0.000036
      f+2     :    -0.000086
      f-2     :     0.000704
      f+3     :    -0.000047
      f-3     :     0.000039

 10 H s       :     0.000933  s :     0.000933
      pz      :    -0.000132  p :     0.000253
      px      :     0.000360
      py      :     0.000025
      dz2     :    -0.000011  d :    -0.000091
      dxz     :    -0.000049
      dyz     :     0.000039
      dx2y2   :    -0.000045
      dxy     :    -0.000024

 11 H s       :     0.005648  s :     0.005648
      pz      :     0.000847  p :     0.001085
      px      :     0.000123
      py      :     0.000115
      dz2     :     0.000046  d :    -0.000049
      dxz     :     0.000004
      dyz     :    -0.000035
      dx2y2   :    -0.000050
      dxy     :    -0.000014

 12 H s       :     0.005674  s :     0.005674
      pz      :     0.000833  p :     0.001076
      px      :     0.000130
      py      :     0.000112
      dz2     :     0.000047  d :    -0.000047
      dxz     :     0.000004
      dyz     :    -0.000035
      dx2y2   :    -0.000049
      dxy     :    -0.000014

 13 H s       :     0.002791  s :     0.002791
      pz      :     0.000977  p :     0.001729
      px      :    -0.000509
      py      :     0.001261
      dz2     :     0.000037  d :     0.000355
      dxz     :    -0.000036
      dyz     :     0.000175
      dx2y2   :     0.000140
      dxy     :     0.000038

 14 H s       :     0.000193  s :     0.000193
      pz      :    -0.000035  p :     0.000559
      px      :     0.000255
      py      :     0.000339
      dz2     :     0.000122  d :     0.000276
      dxz     :    -0.000100
      dyz     :     0.000060
      dx2y2   :     0.000118
      dxy     :     0.000076

 15 S s       :     0.034202  s :     0.034202
      pz      :     0.296744  p :     0.320363
      px      :     0.005389
      py      :     0.018229
      dz2     :     0.001480  d :     0.009658
      dxz     :     0.006360
      dyz     :    -0.000025
      dx2y2   :     0.000344
      dxy     :     0.001499
      f0      :     0.000222  f :     0.000991
      f+1     :    -0.000214
      f-1     :    -0.000297
      f+2     :     0.000783
      f-2     :     0.000078
      f+3     :     0.000204
      f-3     :     0.000215

 16 H s       :    -0.026819  s :    -0.026819
      pz      :     0.001286  p :    -0.000515
      px      :    -0.000985
      py      :    -0.000815
      dz2     :     0.000002  d :     0.000209
      dxz     :    -0.000035
      dyz     :     0.000494
      dx2y2   :    -0.000124
      dxy     :    -0.000128



                     *******************************
                     * LOEWDIN POPULATION ANALYSIS *
                     *******************************

-------------------------------------------
LOEWDIN ATOMIC CHARGES AND SPIN POPULATIONS
-------------------------------------------
   0 C :   -0.545629    0.166524
   1 C :    0.177184    0.044395
   2 C :    0.262726    0.063593
   3 C :   -0.348317    0.132282
   4 C :    0.263959    0.061755
   5 C :    0.163167    0.061044
   6 H :   -0.161725    0.003656
   7 H :   -0.165874    0.005928
   8 O :    0.658394    0.142470
   9 C :    0.430400    0.013993
  10 H :   -0.161124   -0.000400
  11 H :   -0.153024    0.003528
  12 H :   -0.152827    0.003520
  13 H :   -0.145717    0.006768
  14 H :   -0.164807    0.000049
  15 S :    1.508766    0.253171
  16 H :   -0.465551    0.037724

----------------------------------------------------
LOEWDIN REDUCED ORBITAL CHARGES AND SPIN POPULATIONS
----------------------------------------------------
CHARGE
  0 C s       :     2.517420  s :     2.517420
      pz      :     0.622398  p :     2.377309
      px      :     0.845925
      py      :     0.908986
      dz2     :     0.101326  d :     1.103429
      dxz     :     0.208243
      dyz     :     0.124112
      dx2y2   :     0.363811
      dxy     :     0.305937
      f0      :     0.039216  f :     0.547472
      f+1     :     0.038184
      f-1     :     0.034402
      f+2     :     0.061621
      f-2     :     0.060408
      f+3     :     0.088657
      f-3     :     0.224984

  1 C s       :     2.487314  s :     2.487314
      pz      :     0.583826  p :     2.280418
      px      :     0.868518
      py      :     0.828073
      dz2     :     0.072310  d :     0.711087
      dxz     :     0.098559
      dyz     :     0.065067
      dx2y2   :     0.199348
      dxy     :     0.275803
      f0      :     0.023099  f :     0.343997
      f+1     :     0.029354
      f-1     :     0.024261
      f+2     :     0.045201
      f-2     :     0.023014
      f+3     :     0.066075
      f-3     :     0.132994

  2 C s       :     2.485961  s :     2.485961
      pz      :     0.581642  p :     2.263068
      px      :     0.856661
      py      :     0.824765
      dz2     :     0.068304  d :     0.649343
      dxz     :     0.097285
      dyz     :     0.047969
      dx2y2   :     0.200632
      dxy     :     0.235152
      f0      :     0.022852  f :     0.338902
      f+1     :     0.031905
      f-1     :     0.022525
      f+2     :     0.035938
      f-2     :     0.030811
      f+3     :     0.068690
      f-3     :     0.126181

  3 C s       :     2.458084  s :     2.458084
      pz      :     0.550185  p :     2.170766
      px      :     0.750666
      py      :     0.869914
      dz2     :     0.101323  d :     1.081352
      dxz     :     0.188879
      dyz     :     0.124565
      dx2y2   :     0.338013
      dxy     :     0.328573
      f0      :     0.040357  f :     0.638115
      f+1     :     0.049342
      f-1     :     0.035833
      f+2     :     0.074199
      f-2     :     0.069462
      f+3     :     0.112795
      f-3     :     0.256127

  4 C s       :     2.475372  s :     2.475372
      pz      :     0.592759  p :     2.270170
      px      :     0.853377
      py      :     0.824033
      dz2     :     0.069960  d :     0.657181
      dxz     :     0.085669
      dyz     :     0.056299
      dx2y2   :     0.196360
      dxy     :     0.248893
      f0      :     0.022532  f :     0.333319
      f+1     :     0.029116
      f-1     :     0.024305
      f+2     :     0.044534
      f-2     :     0.021156
      f+3     :     0.065590
      f-3     :     0.126084

  5 C s       :     2.488826  s :     2.488826
      pz      :     0.573103  p :     2.276456
      px      :     0.871597
      py      :     0.831756
      dz2     :     0.071401  d :     0.721385
      dxz     :     0.120147
      dyz     :     0.052646
      dx2y2   :     0.227668
      dxy     :     0.249524
      f0      :     0.023760  f :     0.350166
      f+1     :     0.031297
      f-1     :     0.022506
      f+2     :     0.036120
      f-2     :     0.034059
      f+3     :     0.069271
      f-3     :     0.133153

  6 H s       :     0.644717  s :     0.644717
      pz      :     0.071191  p :     0.300119
      px      :     0.094346
      py      :     0.134582
      dz2     :     0.024127  d :     0.216889
      dxz     :     0.015884
      dyz     :     0.045928
      dx2y2   :     0.066844
      dxy     :     0.064105

  7 H s       :     0.623553  s :     0.623553
      pz      :     0.075856  p :     0.313406
      px      :     0.119005
      py      :     0.118545
      dz2     :     0.024673  d :     0.228915
      dxz     :     0.026615
      dyz     :     0.038682
      dx2y2   :     0.084588
      dxy     :     0.054357

  8 O s       :     2.967975  s :     2.967975
      pz      :     1.275042  p :     3.777854
      px      :     1.195329
      py      :     1.307483
      dz2     :     0.041959  d :     0.465219
      dxz     :     0.082628
      dyz     :     0.049918
      dx2y2   :     0.145521
      dxy     :     0.145192
      f0      :     0.011900  f :     0.130558
      f+1     :     0.011685
      f-1     :     0.004477
      f+2     :     0.013639
      f-2     :     0.015626
      f+3     :     0.029606
      f-3     :     0.043625

  9 C s       :     2.460962  s :     2.460962
      pz      :     0.818607  p :     2.208042
      px      :     0.710527
      py      :     0.678908
      dz2     :     0.097936  d :     0.606619
      dxz     :     0.041522
      dyz     :     0.159953
      dx2y2   :     0.152754
      dxy     :     0.154454
      f0      :     0.032221  f :     0.293976
      f+1     :     0.024312
      f-1     :     0.034350
      f+2     :     0.009748
      f-2     :     0.053832
      f+3     :     0.062561
      f-3     :     0.076953

 10 H s       :     0.642183  s :     0.642183
      pz      :     0.088837  p :     0.296760
      px      :     0.125837
      py      :     0.082086
      dz2     :     0.016481  d :     0.222181
      dxz     :     0.062383
      dyz     :     0.030325
      dx2y2   :     0.043530
      dxy     :     0.069462

 11 H s       :     0.626420  s :     0.626420
      pz      :     0.132873  p :     0.304443
      px      :     0.082837
      py      :     0.088732
      dz2     :     0.078351  d :     0.222162
      dxz     :     0.039131
      dyz     :     0.047089
      dx2y2   :     0.019682
      dxy     :     0.037908

 12 H s       :     0.626403  s :     0.626403
      pz      :     0.132525  p :     0.304344
      px      :     0.082862
      py      :     0.088958
      dz2     :     0.078406  d :     0.222080
      dxz     :     0.038784
      dyz     :     0.046828
      dx2y2   :     0.019851
      dxy     :     0.038212

 13 H s       :     0.642862  s :     0.642862
      pz      :     0.071280  p :     0.289018
      px      :     0.089231
      py      :     0.128507
      dz2     :     0.023328  d :     0.213837
      dxz     :     0.017051
      dyz     :     0.044327
      dx2y2   :     0.067949
      dxy     :     0.061183

 14 H s       :     0.640819  s :     0.640819
      pz      :     0.072214  p :     0.302515
      px      :     0.106789
      py      :     0.123512
      dz2     :     0.025076  d :     0.221472
      dxz     :     0.025058
      dyz     :     0.037619
      dx2y2   :     0.079855
      dxy     :     0.053864

 15 S s       :     4.941724  s :     4.941724
      pz      :     3.104707  p :     9.031386
      px      :     2.889283
      py      :     3.037397
      dz2     :     0.047822  d :     0.364631
      dxz     :     0.070645
      dyz     :     0.005363
      dx2y2   :     0.114336
      dxy     :     0.126465
      f0      :     0.012270  f :     0.153493
      f+1     :     0.018280
      f-1     :     0.007964
      f+2     :     0.019142
      f-2     :     0.003647
      f+3     :     0.036433
      f-3     :     0.055758

 16 H s       :     0.709196  s :     0.709196
      pz      :     0.122091  p :     0.451465
      px      :     0.090890
      py      :     0.238484
      dz2     :     0.027885  d :     0.304890
      dxz     :     0.008295
      dyz     :     0.097394
      dx2y2   :     0.093431
      dxy     :     0.077885


SPIN
  0 C s       :     0.003733  s :     0.003733
      pz      :     0.120472  p :     0.123328
      px      :     0.001370
      py      :     0.001486
      dz2     :    -0.000735  d :     0.013897
      dxz     :     0.014914
      dyz     :    -0.000320
      dx2y2   :     0.000291
      dxy     :    -0.000252
      f0      :     0.000752  f :     0.025566
      f+1     :    -0.000256
      f-1     :    -0.000220
      f+2     :     0.022971
      f-2     :     0.002082
      f+3     :     0.000191
      f-3     :     0.000046

  1 C s       :    -0.000324  s :    -0.000324
      pz      :     0.006632  p :     0.003634
      px      :    -0.000970
      py      :    -0.002028
      dz2     :    -0.000055  d :     0.020224
      dxz     :     0.010318
      dyz     :     0.009197
      dx2y2   :     0.000513
      dxy     :     0.000251
      f0      :     0.001060  f :     0.020861
      f+1     :    -0.000091
      f-1     :    -0.000058
      f+2     :     0.016798
      f-2     :     0.002760
      f+3     :     0.000289
      f-3     :     0.000102

  2 C s       :     0.000663  s :     0.000663
      pz      :     0.036584  p :     0.035719
      px      :    -0.000190
      py      :    -0.000675
      dz2     :    -0.000328  d :     0.012726
      dxz     :     0.008685
      dyz     :     0.004523
      dx2y2   :    -0.000275
      dxy     :     0.000121
      f0      :     0.000099  f :     0.014485
      f+1     :    -0.000118
      f-1     :    -0.000137
      f+2     :     0.008006
      f-2     :     0.006740
      f+3     :     0.000204
      f-3     :    -0.000308

  3 C s       :     0.002173  s :     0.002173
      pz      :     0.091199  p :     0.090871
      px      :    -0.000739
      py      :     0.000410
      dz2     :    -0.000411  d :     0.015810
      dxz     :     0.013571
      dyz     :     0.002223
      dx2y2   :     0.000394
      dxy     :     0.000033
      f0      :    -0.000357  f :     0.023429
      f+1     :    -0.000110
      f-1     :    -0.000183
      f+2     :     0.020469
      f-2     :     0.003129
      f+3     :     0.000316
      f-3     :     0.000165

  4 C s       :     0.000275  s :     0.000275
      pz      :     0.025137  p :     0.023485
      px      :    -0.000333
      py      :    -0.001319
      dz2     :    -0.000225  d :     0.021427
      dxz     :     0.013571
      dyz     :     0.007871
      dx2y2   :     0.000283
      dxy     :    -0.000074
      f0      :     0.000515  f :     0.016568
      f+1     :    -0.000124
      f-1     :    -0.000113
      f+2     :     0.014401
      f-2     :     0.001880
      f+3     :     0.000077
      f-3     :    -0.000067

  5 C s       :     0.000288  s :     0.000288
      pz      :     0.026539  p :     0.024498
      px      :    -0.000860
      py      :    -0.001181
      dz2     :    -0.000239  d :     0.016843
      dxz     :     0.010898
      dyz     :     0.005694
      dx2y2   :    -0.000018
      dxy     :     0.000508
      f0      :     0.000628  f :     0.019414
      f+1     :    -0.000130
      f-1     :    -0.000104
      f+2     :     0.009869
      f-2     :     0.008853
      f+3     :     0.000357
      f-3     :    -0.000058

  6 H s       :    -0.000916  s :    -0.000916
      pz      :     0.001818  p :     0.001748
      px      :    -0.000269
      py      :     0.000199
      dz2     :    -0.000025  d :     0.002823
      dxz     :    -0.000799
      dyz     :     0.003795
      dx2y2   :    -0.000094
      dxy     :    -0.000054

  7 H s       :    -0.000820  s :    -0.000820
      pz      :     0.003547  p :     0.003669
      px      :    -0.000082
      py      :     0.000204
      dz2     :    -0.000027  d :     0.003079
      dxz     :    -0.000872
      dyz     :     0.004054
      dx2y2   :    -0.000109
      dxy     :     0.000034

  8 O s       :     0.003103  s :     0.003103
      pz      :     0.114627  p :     0.118790
      px      :     0.001893
      py      :     0.002271
      dz2     :     0.000080  d :     0.015524
      dxz     :     0.013624
[...]
      1      -0.002148   0.001777   0.000834
      2       0.000002  -0.000005   0.000001
      3       0.043791  -0.028834   0.000928
      4       0.063018  -0.033375   0.001428
      5      -0.000181   0.000104  -0.000001
      6       0.015227   0.037485   0.000516
      7      -0.037216  -0.069315  -0.000660
      8       0.000019   0.000013   0.000001
      9       0.000420   0.002210  -0.001075
     10       0.000847   0.002483   0.003156
     11      -0.000004  -0.000006   0.000006
     12       0.001249  -0.000113  -0.050778
     13       0.001764   0.000021  -0.070705
     14      -0.000006  -0.000002  -0.000053
     15      -0.000071  -0.001174   0.010420
     16      -0.001102   0.002792  -0.013278
     17      -0.000011   0.000001  -0.000002
     18      -0.003750   0.013403  -0.071401
     19       0.007768  -0.028688   0.146948
     20      -0.000023  -0.000006   0.000047
     21      -0.013363   0.002120   0.563090
     22      -0.019486   0.002778   0.804005
     23      -0.000014  -0.000001   0.000357
     24       0.000085  -0.000350  -0.000019
     25      -0.000092  -0.000244  -0.000468
     26       0.000008   0.000010  -0.000001
     27      -0.000370  -0.000427   0.002156
     28       0.000047   0.000222  -0.002376
     29      -0.000000   0.000001  -0.000129
     30       0.002902   0.003198  -0.022781
     31      -0.001567  -0.001872   0.012655
     32      -0.000010  -0.000012   0.000113
     33       0.000124   0.000110  -0.004393
     34       0.000270  -0.000060   0.010497
     35       0.000010  -0.000478   0.016691
     36       0.000123   0.000109  -0.004540
     37       0.000279  -0.000052   0.009700
     38      -0.000070   0.000458  -0.015142
     39      -0.207924  -0.387871  -0.005768
     40       0.426971   0.785833   0.011244
     41      -0.000076  -0.000240  -0.000004
     42      -0.506569   0.275743  -0.010558
     43      -0.713919   0.383115  -0.014901
     44       0.002140  -0.001096   0.000045
     45      -0.000139   0.000140  -0.000070
     46       0.000012   0.000018  -0.000026
     47       0.000007  -0.000004   0.000000
     48      -0.001600   0.000654  -0.000210
     49       0.000382  -0.001070   0.000415
     50      -0.000145   0.000082  -0.000004


-----------
IR SPECTRUM
-----------

 Mode   freq       eps      Int      T**2         TX        TY        TZ
       cm**-1   L/(mol*cm) km/mol    a.u.
----------------------------------------------------------------------------
  6:     57.99   0.000144    0.73  0.000775  ( 0.000744 -0.000023 -0.027820)
  7:    135.65   0.001189    6.01  0.002734  (-0.002829 -0.000140  0.052213)
  8:    159.86   0.000357    1.80  0.000696  (-0.002163  0.000826 -0.026285)
  9:    196.14   0.001592    8.05  0.002533  (-0.049761  0.007543 -0.000213)
 10:    290.51   0.001351    6.83  0.001451  ( 0.001914 -0.000371  0.038046)
 11:    292.58   0.000264    1.33  0.000281  ( 0.014011 -0.008683 -0.003126)
 12:    337.01   0.003995   20.19  0.003699  ( 0.001117  0.000543 -0.060806)
 13:    361.51   0.000273    1.38  0.000235  (-0.013320 -0.007527 -0.001171)
 14:    406.44   0.002207   11.15  0.001694  (-0.000816  0.000436  0.041151)
 15:    502.82   0.005650   28.55  0.003506  ( 0.000114 -0.000351  0.059215)
 16:    505.49   0.001273    6.43  0.000786  (-0.027000  0.007254  0.002063)
 17:    603.58   0.000087    0.44  0.000045  (-0.002901  0.006029  0.000092)
 18:    659.19   0.023539  118.95  0.011143  (-0.104331  0.016075  0.000068)
 19:    733.01   0.000168    0.85  0.000072  (-0.000383 -0.000304 -0.008446)
 20:    785.72   0.000017    0.08  0.000007  (-0.000471  0.000301 -0.002522)
 21:    818.92   0.001776    8.98  0.000677  (-0.022616 -0.012835 -0.000733)
 22:    852.23   0.022558  114.00  0.008260  (-0.000969  0.000158  0.090880)
 23:    928.90   0.006344   32.06  0.002131  (-0.038215 -0.025896  0.000426)
 24:    986.52   0.000008    0.04  0.000002  (-0.000835  0.000310 -0.001300)
 25:    990.70   0.000031    0.15  0.000010  ( 0.000587 -0.002029 -0.002271)
 26:    997.01   0.004004   20.23  0.001253  (-0.034006  0.009841 -0.000146)
 27:   1029.37   0.025925  131.02  0.007860  (-0.076496 -0.044809 -0.000026)
 28:   1132.32   0.003643   18.41  0.001004  ( 0.000437 -0.031682  0.000124)
 29:   1151.39   0.012048   60.89  0.003265  ( 0.056525 -0.008385  0.000262)
 30:   1165.64   0.000077    0.39  0.000020  (-0.001354  0.000438 -0.004297)
 31:   1191.81   0.022107  111.72  0.005789  (-0.075746 -0.007150 -0.000216)
 32:   1200.92   0.000750    3.79  0.000195  ( 0.013951 -0.000549  0.000167)
 33:   1312.02   0.001383    6.99  0.000329  ( 0.004080  0.017674 -0.000120)
 34:   1361.16   0.017657   89.23  0.004048  ( 0.062039  0.014117 -0.000067)
 35:   1376.72   0.072804  367.92  0.016503  ( 0.128442  0.002298 -0.000054)
 36:   1447.74   0.051146  258.47  0.011025  ( 0.102059 -0.024669 -0.000298)
 37:   1465.87   0.005343   27.00  0.001137  (-0.014176 -0.000605 -0.030595)
 38:   1468.74   0.014185   71.69  0.003014  (-0.054155 -0.003989  0.008079)
 39:   1512.56   0.018715   94.58  0.003861  ( 0.058392  0.021247  0.000018)
 40:   1528.13   0.049189  248.58  0.010045  (-0.097869  0.021603 -0.000036)
 41:   1532.96   0.109793  554.85  0.022351  ( 0.149464  0.003329 -0.000056)
 42:   1675.88   0.026943  136.16  0.005017  (-0.070820 -0.001264  0.000172)
 43:   2639.42   0.027441  138.67  0.003244  ( 0.049354  0.028433  0.000340)
 44:   3068.98   0.006338   32.03  0.000645  ( 0.022740  0.011283  0.000262)
 45:   3158.56   0.001557    7.87  0.000154  ( 0.000553  0.000423  0.012382)
 46:   3196.85   0.002497   12.62  0.000244  (-0.015348  0.002864  0.000085)
 47:   3208.15   0.000291    1.47  0.000028  ( 0.000016  0.005322 -0.000030)
 48:   3213.58   0.000014    0.07  0.000001  (-0.000135 -0.001114  0.000284)
 49:   3228.92   0.000859    4.34  0.000083  ( 0.002569  0.008742  0.000016)
 50:   3244.35   0.001136    5.74  0.000109  ( 0.000032  0.010452  0.000052)

* The epsilon (eps) is given for a Dirac delta lineshape.
** The dipole moment derivative (T) already includes vibrational overlap.

The first frequency considered to be a vibration is 6
The total number of vibrations considered is 45


--------------------------
THERMOCHEMISTRY AT 298.15K
--------------------------

Temperature         ...   298.15 K
Pressure            ...     1.00 atm
Total Mass          ...   140.20 AMU
Quasi RRHO          ...     True
Cut-Off Frequency   ...     1.00 cm^-1

Throughout the following assumptions are being made:
  (1) The electronic state is orbitally nondegenerate
      but the spin degeneracy is treated
  (2) There are no thermally accessible electronically excited states
  (3) Hindered rotations indicated by low frequency modes are not
      treated as such but are treated as vibrations and this may
      cause some error
  (4) All equations used are the standard statistical mechanics
      equations for an ideal gas
  (5) All vibrations are strictly harmonic

freq.      57.99  E(vib)   ...       0.51 
freq.     135.65  E(vib)   ...       0.42 
freq.     159.86  E(vib)   ...       0.39 
freq.     196.14  E(vib)   ...       0.36 
freq.     290.51  E(vib)   ...       0.27 
freq.     292.58  E(vib)   ...       0.27 
freq.     337.01  E(vib)   ...       0.24 
freq.     361.51  E(vib)   ...       0.22 
freq.     406.44  E(vib)   ...       0.19 
freq.     502.82  E(vib)   ...       0.14 
freq.     505.49  E(vib)   ...       0.14 
freq.     603.58  E(vib)   ...       0.10 
freq.     659.19  E(vib)   ...       0.08 
freq.     733.01  E(vib)   ...       0.06 
freq.     785.72  E(vib)   ...       0.05 
freq.     818.92  E(vib)   ...       0.05 
freq.     852.23  E(vib)   ...       0.04 
freq.     928.90  E(vib)   ...       0.03 
freq.     986.52  E(vib)   ...       0.02 
freq.     990.70  E(vib)   ...       0.02 
freq.     997.01  E(vib)   ...       0.02 
freq.    1029.37  E(vib)   ...       0.02 
freq.    1132.32  E(vib)   ...       0.01 
freq.    1151.39  E(vib)   ...       0.01 
freq.    1165.64  E(vib)   ...       0.01 
freq.    1191.81  E(vib)   ...       0.01 
freq.    1200.92  E(vib)   ...       0.01 
freq.    1312.02  E(vib)   ...       0.01 
freq.    1361.16  E(vib)   ...       0.01 
freq.    1376.72  E(vib)   ...       0.01 
freq.    1447.74  E(vib)   ...       0.00 
freq.    1465.87  E(vib)   ...       0.00 
freq.    1468.74  E(vib)   ...       0.00 
freq.    1512.56  E(vib)   ...       0.00 
freq.    1528.13  E(vib)   ...       0.00 
freq.    1532.96  E(vib)   ...       0.00 
freq.    1675.88  E(vib)   ...       0.00 
freq.    2639.42  E(vib)   ...       0.00 
freq.    3068.98  E(vib)   ...       0.00 
freq.    3158.56  E(vib)   ...       0.00 
freq.    3196.85  E(vib)   ...       0.00 
freq.    3208.15  E(vib)   ...       0.00 
freq.    3213.58  E(vib)   ...       0.00 
freq.    3228.92  E(vib)   ...       0.00 
freq.    3244.35  E(vib)   ...       0.00 

------------
INNER ENERGY
------------

The inner energy is: U= E(el) + E(ZPE) + E(vib) + E(rot) + E(trans)
    E(el)   - is the total energy from the electronic structure calculation
              = E(kin-el) + E(nuc-el) + E(el-el) + E(nuc-nuc)
    E(ZPE)  - the the zero temperature vibrational energy from the frequency calculation
    E(vib)  - the the finite temperature correction to E(ZPE) due to population
              of excited vibrational states
    E(rot)  - is the rotational thermal energy
    E(trans)- is the translational thermal energy

Summary of contributions to the inner energy U:
Electronic energy                ...   -744.38558602 Eh
Zero point energy                ...      0.13239305 Eh      83.08 kcal/mol
Thermal vibrational correction   ...      0.00597220 Eh       3.75 kcal/mol
Thermal rotational correction    ...      0.00141627 Eh       0.89 kcal/mol
Thermal translational correction ...      0.00141627 Eh       0.89 kcal/mol
-----------------------------------------------------------------------
Total thermal energy                   -744.24438823 Eh


Summary of corrections to the electronic energy:
(perhaps to be used in another calculation)
Total thermal correction                  0.00880474 Eh       5.53 kcal/mol
Non-thermal (ZPE) correction              0.13239305 Eh      83.08 kcal/mol
-----------------------------------------------------------------------
Total correction                          0.14119779 Eh      88.60 kcal/mol


--------
ENTHALPY
--------

The enthalpy is H = U + kB*T
                kB is Boltzmann's constant
Total thermal energy              ...   -744.24438823 Eh 
Thermal Enthalpy correction       ...      0.00094421 Eh       0.59 kcal/mol
-----------------------------------------------------------------------
Total Enthalpy                    ...   -744.24344402 Eh


Note: Only C1 symmetry has been detected, increase convergence thresholds 
      if your molecule has a higher symmetry. Symmetry factor of 1.0 is   
      used for the rotational entropy correction. 
 

Note: Rotational entropy computed according to Herzberg 
Infrared and Raman Spectra, Chapter V,1, Van Nostrand Reinhold, 1945 
Point Group:  C1, Symmetry Number:   1  
Rotational constants in cm-1:     0.155412     0.024018     0.020886 

Vibrational entropy computed according to the QRRHO of S. Grimme
Chem.Eur.J. 2012 18 9955 using a reference frequency of 100.0 cm-1


-------
ENTROPY
-------

The entropy contributions are T*S = T*(S(el)+S(vib)+S(rot)+S(trans))
     S(el)   - electronic entropy
     S(vib)  - vibrational entropy
     S(rot)  - rotational entropy
     S(trans)- translational entropy
The entropies will be listed as multiplied by the temperature to get
units of energy

Electronic entropy                ...      0.00065446 Eh      0.41 kcal/mol
Vibrational entropy               ...      0.01000825 Eh      6.28 kcal/mol
Rotational entropy                ...      0.01397645 Eh      8.77 kcal/mol
Translational entropy             ...      0.01934980 Eh     12.14 kcal/mol
-----------------------------------------------------------------------
Final entropy term                ...      0.04398896 Eh     27.60 kcal/mol

In case the symmetry of your molecule has not been determined correctly
or in case you have a reason to use a different symmetry number we print 
out the resulting rotational entropy values for sn=1,12:

 non-linear molecules -----------------------------------
|  sn= 1 | S(rot)=       0.01397645 Eh      8.77 kcal/mol|
|  sn= 2 | S(rot)=       0.01332200 Eh      8.36 kcal/mol|
|  sn= 3 | S(rot)=       0.01293916 Eh      8.12 kcal/mol|
|  sn= 4 | S(rot)=       0.01266754 Eh      7.95 kcal/mol|
|  sn= 5 | S(rot)=       0.01245685 Eh      7.82 kcal/mol|
|  sn= 6 | S(rot)=       0.01228471 Eh      7.71 kcal/mol|
|  sn= 7 | S(rot)=       0.01213916 Eh      7.62 kcal/mol|
|  sn= 8 | S(rot)=       0.01201308 Eh      7.54 kcal/mol|
|  sn= 9 | S(rot)=       0.01190188 Eh      7.47 kcal/mol|
|  sn=10 | S(rot)=       0.01180240 Eh      7.41 kcal/mol|
|  sn=11 | S(rot)=       0.01171241 Eh      7.35 kcal/mol|
|  sn=12 | S(rot)=       0.01163025 Eh      7.30 kcal/mol|
 linear molecules ---------------------------------------
|  Dinfh | S(rot)=       0.00897851 Eh      5.63 kcal/mol|
|  Cinfv | S(rot)=       0.00963297 Eh      6.04 kcal/mol|
 --------------------------------------------------------


-------------------
GIBBS FREE ENERGY
-------------------

The Gibbs free energy is G = H - T*S

Total enthalpy                    ...   -744.24344402 Eh 
Total entropy correction          ...     -0.04398896 Eh    -27.60 kcal/mol
-----------------------------------------------------------------------
Final Gibbs free energy         ...   -744.28743298 Eh

For completeness - the Gibbs free energy minus the electronic energy
G-E(el)                           ...      0.09815304 Eh     61.59 kcal/mol


Maximum memory used throughout the entire PROP-calculation: 342.7 MB

--------------------------------
SUGGESTED CITATIONS FOR THIS RUN
--------------------------------

Below you find a list of papers that are relevant to this ORCA run
We neither can nor want to force you to cite these papers, but we appreciate if you do
You receive ORCA, which is the product of decades of hard work by many enthusiastic individuals, for free
The only thing we kindly ask in return is that you cite our papers,
We deeply appreciate it, if you show your appreciation for ORCA by not just citing the generic ORCA reference.

Please note that relegating all ORCA citations to the supporting information does *not* help us.
SI sections are not indexed - citations you put there will not count into any citation statistics
But we need these citations in order to attract the funding resources that allow us to do what we are doing

Therefore, if you are a happy ORCA user, please consider citing a few of the papers listed below in the main body of your paper

In addition to the list printed below, the program has created the file cs_rporg_078_ox_freq_04.bibtex that contains the list in bibtex format
You can import this file easily into all common literature databanks and citation aid programs


List of essential papers. We consider these as the minimum necessary citations

  1. Neese,F.
     Software update: the ORCA program system, version 5.0
     WIRES Comput. Molec. Sci., 2022 12(1)e1606
     doi.org/10.1002/wcms.1606

List of papers to cite with high priority. The work reported in these papers was absolutely
necessary for this run to complete.
Our perspective: the developers of density functionals and basis sets usually get cited in chemistry papers
Good! But without the algorithms to do something with them, the functionals or basis sets would not do anything.
Hence, in our opinion, the algorithm design and method developments papers are equally worthy of getting cited

  1. Neese,F.
     An improvement of the resolution of the identity approximation for the formation of the Coulomb matrix
     J. Comp. Chem., 2003 24(14)1740-1747
     doi.org/10.1002/jcc.10318
  2. Neese,F.; Wennmohs,F.; Hansen,A.; Becker,U.
     Efficient, approximate and parallel Hartree-Fock and hybrid DFT calculations. A 'chain-of-spheres' algorithm for the Hartree-Fock exchange
     Chem. Phys., 2009 356(1-3)98-109
     doi.org/10.1016/j.chemphys.2008.10.036
  3. Bykov,D.; Petrenko,T.; Izsak,R.; Kossmann,S.; Becker,U.; Valeev,E.; Neese,F.
     Efficient implementation of the analytic second derivatives of Hartree-Fock and hybrid DFT energies: a detailed analysis of different approximations
     Molec. Phys., 2015 113 1961-1977
     doi.org/10.1080/00268976.2015.1025114
  4. Garcia-Rates,M.; Neese,F.
     Efficient implementation of the analytical second derivatives of hartree-fock and hybrid DFT energies within the framework of the conductor-like polarizable continuum model
     J. Comput. Chem., 2019 40 1816-1828
     doi.org/10.1002/jcc.25833
  5. Garcia-Rates,M.; Neese,F.
     Effect of the Solute Cavity on the Solvation Energy and its Derivatives within the Framework of the Gaussian Charge Scheme
     J. Comput. Chem., 2020 41 922-939
     doi.org/10.1002/jcc.26139
  6. Helmich-Paris,B.; de Souza,B.; Neese,F.; Izsák,R.
     An improved chain of spheres for exchange algorithm
     J. Chem. Phys., 2021 155 104109
     doi.org/doi: 10.1063/5.0058766.
  7. Neese,F.
     The SHARK Integral Generation and Digestion System
     J. Comp. Chem., 2022  1-16
     doi.org/10.1002/jcc.26942
  8. Grimme,S.; Antony,J.; Ehrlich,S.; Krieg,H.
     A consistent and accurate ab initio parametrization of density functional dispersion correction (DFT-D) for the 94 elements H-Pu
     J. Chem. Phys., 2010 132 154104-XXXX
     doi.org/10.1063/1.3382344
  9. Grimme,S.; Ehrlich,S.; Goerigk,L.
     Effect of the damping function in dispersion corrected density functional theory
     J. Comput. Chem., 2011 32(7)1456-1465
     doi.org/10.1002/jcc.21759

List of suggested additional citations. These are papers that are important in the 'surrounding' of 
of this run, or papers that preceded the highly important papers. If you like your results we are grateful for a citation.

  1. Izsak,R.; Neese,F.
     An overlap fitted chain of spheres exchange method
     J. Chem. Phys., 2011 135 144105
     doi.org/10.1063/1.3646921
  2. Izsak,R.; Hansen,A.; Neese,F.
     The resolution of identity and chain of spheres approximations for the LPNO-CCSD singles Fock term
     Molec. Phys., 2012 110 2413-2417
     doi.org/10.1080/00268976.2012.687466
  3. Neese,F.
     The ORCA program system
     WIRES Comput. Molec. Sci., 2012 2(1)73-78
     doi.org/10.1002/wcms.81
  4. Izsak,R.; Neese,F.; Klopper,W.
     Robust fitting techniques in the chain of spheres approximation to the Fock exchange: The role of the complementary space
     J. Chem. Phys., 2013 139 
     doi.org/10.1063/1.4819264
  5. Neese,F.
     Software update: the ORCA program system, version 4.0
     WIRES Comput. Molec. Sci., 2018 8(1)1-6
     doi.org/10.1002/wcms.1327
  6. Neese,F.; Wennmohs,F.; Becker,U.; Riplinger,C.
     The ORCA quantum chemistry program package
     J. Chem. Phys., 2020 152 Art. No. L224108
     doi.org/10.1063/5.0004608

List of optional additional citations

  1. Neese,F.
     Approximate second-order SCF convergence for spin unrestricted wavefunctions
     Chem. Phys. Lett., 2000 325(1-3)93-98
     doi.org/10.1016/s0009-2614(00)00662-x

Timings for individual modules:

Sum of individual times          ...     3590.979 sec (=  59.850 min)
Startup calculation              ...       16.346 sec (=   0.272 min)   0.5 %
SCF iterations                   ...      739.868 sec (=  12.331 min)  20.6 %
Property integrals               ...      564.977 sec (=   9.416 min)  15.7 %
SCF Response                     ...     1363.308 sec (=  22.722 min)  38.0 %
Property calculations            ...      906.481 sec (=  15.108 min)  25.2 %
                             ****ORCA TERMINATED NORMALLY****
TOTAL RUN TIME: 0 days 1 hours 0 minutes 1 seconds 226 msec
