 vasp.6.4.2 20Jul23 (build Oct 03 2024 14:39:03) complex                        
  
 executed on             LinuxIFC date 2024.10.27  06:04:50
 running   60 mpi-ranks, on    1 nodes
 distrk:  each k-point on   60 cores,    1 groups
 distr:  one band on NCORE=  10 cores,    6 groups


--------------------------------------------------------------------------------------------------------


 INCAR:
   SYSTEM = 103_red
   ISTART = 1
   ICHARG = 2
   INIWAV = 1
   METAGGA = R2SCAN
   LASPH = .TRUE.
   NELM = 100
   ALGO = fast   	
   ISPIN = 2
   EDIFF = 1E-05
   ISMEAR = 0
   SIGMA = 0.05
   PREC = accurate
   ENCUT = 500
   LREAL = auto  	
   LWAVE = .TRUE.
   LCHARG = .FALSE.
   LAECHG = .FALSE.
   LVHAR = .FALSE.
   LVTOT = .FALSE.
   EDIFFG = -0.02
   IBRION = 2
   NSW = 500
   ISIF = 2
   POTIM = 0.5
   IVDW = 12
   VDW_A1 = 0.49484001
   VDW_S8 = 0.78981345
   VDW_A2 = 5.73083694
   LPLANE = .TRUE.
   NCORE = 10
   LSCALU = .FALSE.
   NSIM = 4
   LSOL = .TRUE.
   EB_K = 35.6880
   LAMBDA_D_K = 3.04
   NELECT = 35
   TAU = 0

 POTCAR:    PAW_PBE C 08Apr2002                   
 POTCAR:    PAW_PBE N 08Apr2002                   
 POTCAR:    PAW_PBE H 15Jun2001                   
 -----------------------------------------------------------------------------
|                                                                             |
|           W    W    AA    RRRRR   N    N  II  N    N   GGGG   !!!           |
|           W    W   A  A   R    R  NN   N  II  NN   N  G    G  !!!           |
|           W    W  A    A  R    R  N N  N  II  N N  N  G       !!!           |
|           W WW W  AAAAAA  RRRRR   N  N N  II  N  N N  G  GGG   !            |
|           WW  WW  A    A  R   R   N   NN  II  N   NN  G    G                |
|           W    W  A    A  R    R  N    N  II  N    N   GGGG   !!!           |
|                                                                             |
|     You use a magnetic or noncollinear calculation, but did not specify     |
|     the initial magnetic moment with the MAGMOM tag. Note that a            |
|     default of 1 will be used for all atoms. This ferromagnetic setup       |
|     may break the symmetry of the crystal, in particular it may rule        |
|     out finding an antiferromagnetic solution. Thence, we recommend         |
|     setting the initial magnetic moment manually or verifying carefully     |
|     that this magnetic setup is desired.                                    |
|                                                                             |
 -----------------------------------------------------------------------------

 POTCAR:    PAW_PBE C 08Apr2002                   
   VRHFIN =C: s2p2                                                                                  
   LEXCH  = PE                                                                                      
   EATOM  =   147.1560 eV,   10.8157 Ry                                                             
                                                                                                    
   TITEL  = PAW_PBE C 08Apr2002                                                                     
   LULTRA =        F    use ultrasoft PP ?                                                          
   IUNSCR =        1    unscreen: 0-lin 1-nonlin 2-no                                               
   RPACOR =    1.200    partial core radius                                                         
   POMASS =   12.011; ZVAL   =    4.000    mass and valenz                                          
   RCORE  =    1.500    outmost cutoff radius                                                       
   RWIGS  =    1.630; RWIGS  =    0.863    wigner-seitz radius (au A)                               
   ENMAX  =  400.000; ENMIN  =  300.000 eV                                                          
   ICORE  =        2    local potential                                                             
   LCOR   =        T    correct aug charges                                                         
   LPAW   =        T    paw PP                                                                      
   EAUG   =  644.873                                                                                
   DEXC   =    0.000                                                                                
   RMAX   =    1.529    core radius for proj-oper                                                   
   RAUG   =    1.300    factor for augmentation sphere                                              
   RDEP   =    1.501    radius for radial grids                                                     
   RDEPT  =    1.300    core radius for aug-charge                                                  
                                                                                                    
   Atomic configuration                                                                             
    4 entries                                                                                       
     n  l   j            E        occ.                                                              
     1  0  0.50      -273.3789   2.0000                                                             
     2  0  0.50       -13.7508   2.0000                                                             
     2  1  0.50        -5.2854   2.0000                                                             
     3  2  1.50        -5.4423   0.0000                                                             
   Description                                                                                      
     l       E           TYP  RCUT    TYP  RCUT                                                     
     0    -13.7508458     23  1.200                                                                 
     0     -8.2022199     23  1.200                                                                 
     1     -5.2854383     23  1.500                                                                 
     1     34.0145650     23  1.500                                                                 
     2     -5.4423304      7  1.500                                                                 
  local pseudopotential read in
  partial core-charges read in
  partial kinetic energy density read in
  atomic valenz-charges read in
  non local Contribution for L=           0  read in
    real space projection operators read in
  non local Contribution for L=           0  read in
    real space projection operators read in
  non local Contribution for L=           1  read in
    real space projection operators read in
  non local Contribution for L=           1  read in
    real space projection operators read in
    PAW grid and wavefunctions read in
 
   number of l-projection  operators is LMAX  =           4
   number of lm-projection operators is LMMAX =           8
 
 POTCAR:    PAW_PBE N 08Apr2002                   
   VRHFIN =N: s2p3                                                                                  
   LEXCH  = PE                                                                                      
   EATOM  =   264.5486 eV,   19.4438 Ry                                                             
                                                                                                    
   TITEL  = PAW_PBE N 08Apr2002                                                                     
   LULTRA =        F    use ultrasoft PP ?                                                          
   IUNSCR =        1    unscreen: 0-lin 1-nonlin 2-no                                               
   RPACOR =    1.200    partial core radius                                                         
   POMASS =   14.001; ZVAL   =    5.000    mass and valenz                                          
   RCORE  =    1.500    outmost cutoff radius                                                       
   RWIGS  =    1.400; RWIGS  =    0.741    wigner-seitz radius (au A)                               
   ENMAX  =  400.000; ENMIN  =  300.000 eV                                                          
   ICORE  =        2    local potential                                                             
   LCOR   =        T    correct aug charges                                                         
   LPAW   =        T    paw PP                                                                      
   EAUG   =  627.112                                                                                
   DEXC   =    0.000                                                                                
   RMAX   =    1.529    core radius for proj-oper                                                   
   RAUG   =    1.300    factor for augmentation sphere                                              
   RDEP   =    1.514    radius for radial grids                                                     
   RDEPT  =    1.338    core radius for aug-charge                                                  
                                                                                                    
   Atomic configuration                                                                             
    4 entries                                                                                       
     n  l   j            E        occ.                                                              
     1  0  0.50      -384.7179   2.0000                                                             
     2  0  0.50       -18.5828   2.0000                                                             
     2  1  0.50        -7.0898   3.0000                                                             
     3  2  1.50        -6.8029   0.0000                                                             
   Description                                                                                      
     l       E           TYP  RCUT    TYP  RCUT                                                     
     0    -18.5828119     23  1.200                                                                 
     0    -13.5018863     23  1.200                                                                 
     1     -7.0897853     23  1.500                                                                 
     1      9.5240782     23  1.500                                                                 
     2     -6.8029130      7  1.500                                                                 
  local pseudopotential read in
  partial core-charges read in
  partial kinetic energy density read in
  atomic valenz-charges read in
  non local Contribution for L=           0  read in
    real space projection operators read in
  non local Contribution for L=           0  read in
    real space projection operators read in
  non local Contribution for L=           1  read in
    real space projection operators read in
  non local Contribution for L=           1  read in
    real space projection operators read in
    PAW grid and wavefunctions read in
 
   number of l-projection  operators is LMAX  =           4
   number of lm-projection operators is LMMAX =           8
 
 POTCAR:    PAW_PBE H 15Jun2001                   
   VRHFIN =H: ultrasoft test                                                                        
   LEXCH  = PE                                                                                      
   EATOM  =    12.4884 eV,    0.9179 Ry                                                             
                                                                                                    
   TITEL  = PAW_PBE H 15Jun2001                                                                     
   LULTRA =        F    use ultrasoft PP ?                                                          
   IUNSCR =        0    unscreen: 0-lin 1-nonlin 2-no                                               
   RPACOR =    0.000    partial core radius                                                         
   POMASS =    1.000; ZVAL   =    1.000    mass and valenz                                          
   RCORE  =    1.100    outmost cutoff radius                                                       
   RWIGS  =    0.700; RWIGS  =    0.370    wigner-seitz radius (au A)                               
   ENMAX  =  250.000; ENMIN  =  200.000 eV                                                          
   RCLOC  =    0.701    cutoff for local pot                                                        
   LCOR   =        T    correct aug charges                                                         
   LPAW   =        T    paw PP                                                                      
   EAUG   =  400.000                                                                                
   RMAX   =    1.123    core radius for proj-oper                                                   
   RAUG   =    1.200    factor for augmentation sphere                                              
   RDEP   =    1.112    radius for radial grids                                                     
   RDEPT  =    0.926    core radius for aug-charge                                                  
                                                                                                    
   Atomic configuration                                                                             
    2 entries                                                                                       
     n  l   j            E        occ.                                                              
     1  0  0.50        -6.4927   1.0000                                                             
     2  1  0.50        -3.4015   0.0000                                                             
   Description                                                                                      
     l       E           TYP  RCUT    TYP  RCUT                                                     
     0     -6.4927494     23  1.100                                                                 
     0      6.8029130     23  1.100                                                                 
     1     -4.0817478     23  1.100                                                                 
  local pseudopotential read in
  atomic valenz-charges read in
  non local Contribution for L=           0  read in
    real space projection operators read in
  non local Contribution for L=           0  read in
    real space projection operators read in
  non local Contribution for L=           1  read in
    real space projection operators read in
    PAW grid and wavefunctions read in
 
   number of l-projection  operators is LMAX  =           3
   number of lm-projection operators is LMMAX =           5
 
 Optimization of the real space projectors (new method)

 maximal supplied QI-value         = 25.13
 optimisation between [QCUT,QGAM] = [ 11.31, 22.87] = [ 35.82,146.48] Ry 
 Optimized for a Real-space Cutoff    1.03 Angstroem

   l    n(q)    QCUT    max X(q) W(low)/X(q) W(high)/X(q)  e(spline) 
   0      7    11.310   115.676    0.20E-03    0.90E-03    0.20E-06
   0      7    11.310    87.132    0.20E-03    0.89E-03    0.19E-06
   1      6    11.310     4.429    0.16E-03    0.28E-03    0.12E-06
   1      6    11.310     2.733    0.12E-03    0.21E-03    0.99E-07
 Optimization of the real space projectors (new method)

 maximal supplied QI-value         = 25.13
 optimisation between [QCUT,QGAM] = [ 11.31, 22.87] = [ 35.82,146.48] Ry 
 Optimized for a Real-space Cutoff    1.43 Angstroem

   l    n(q)    QCUT    max X(q) W(low)/X(q) W(high)/X(q)  e(spline) 
   0     10    11.310    79.467    0.42E-04    0.81E-04    0.60E-06
   0     10    11.310    66.151    0.40E-04    0.81E-04    0.60E-06
   1      9    11.310    17.416    0.14E-03    0.88E-04    0.14E-05
   1      9    11.310    12.382    0.15E-03    0.93E-04    0.14E-05
 Optimization of the real space projectors (new method)

 maximal supplied QI-value         = 34.20
 optimisation between [QCUT,QGAM] = [ 11.29, 22.57] = [ 35.68,142.71] Ry 
 Optimized for a Real-space Cutoff    1.20 Angstroem

   l    n(q)    QCUT    max X(q) W(low)/X(q) W(high)/X(q)  e(spline) 
   0      8    11.287    19.460    0.22E-03    0.50E-03    0.19E-06
   0      8    11.287    12.209    0.21E-03    0.48E-03    0.18E-06
   1      8    11.287     4.655    0.21E-03    0.11E-04    0.26E-06
  PAW_PBE C 08Apr2002                   :
 energy of atom  1       EATOM= -147.1560
 kinetic energy error for atom=    0.0076 (will be added to EATOM!!)
  PAW_PBE N 08Apr2002                   :
 energy of atom  2       EATOM= -264.5486
 kinetic energy error for atom=    0.0138 (will be added to EATOM!!)
  PAW_PBE H 15Jun2001                   :
 energy of atom  3       EATOM=  -12.4884
 kinetic energy error for atom=    0.0020 (will be added to EATOM!!)
 
 
 POSCAR: C N H
  positions in direct lattice
  velocities in cartesian coordinates

 METAGGA = R2SCAN                                      LMAXTAU =  6    LMIXTAU =  F

 exchange correlation table for  LEXCH =        8
   RHO(1)=    0.500       N(1)  =     2000
   RHO(2)=  100.500       N(2)  =     4000
 


--------------------------------------------------------------------------------------------------------


 ion  position               nearest neighbor table
   1  0.495  0.469  0.500-  14 1.09   2 1.38   6 1.44
   2  0.529  0.469  0.501-  13 1.09   1 1.38   3 1.41
   3  0.547  0.500  0.501-  12 1.09   2 1.41   4 1.41
   4  0.529  0.531  0.501-  11 1.09   5 1.38   3 1.41
   5  0.495  0.531  0.500-  10 1.09   4 1.38   6 1.44
   6  0.477  0.500  0.499-   7 1.33   1 1.44   5 1.44
   7  0.444  0.500  0.498-   8 1.02   9 1.02   6 1.33
   8  0.431  0.522  0.498-   7 1.02
   9  0.431  0.478  0.498-   7 1.02
  10  0.481  0.554  0.500-   5 1.09
  11  0.543  0.554  0.501-   4 1.09
  12  0.574  0.500  0.502-   3 1.09
  13  0.543  0.446  0.501-   2 1.09
  14  0.481  0.446  0.500-   1 1.09
 
  LATTYP: Found a simple cubic cell.
 ALAT       =    40.0000000000
  
  Lattice vectors:
  
 A1 = (  40.0000000000,   0.0000000000,   0.0000000000)
 A2 = (   0.0000000000,  40.0000000000,   0.0000000000)
 A3 = (   0.0000000000,   0.0000000000,  40.0000000000)


Analysis of symmetry for initial positions (statically):
=====================================================================
 Subroutine PRICEL returns:
 Original cell was already a primitive cell.
 

 Routine SETGRP: Setting up the symmetry group for a 
 simple cubic supercell.


 Subroutine GETGRP returns: Found  2 space group operations
 (whereof  2 operations were pure point group operations)
 out of a pool of 48 trial point group operations.


The static configuration has the point symmetry C_1h.


Analysis of symmetry for dynamics (positions and initial velocities):
=====================================================================
 Subroutine PRICEL returns:
 Original cell was already a primitive cell.
 

 Routine SETGRP: Setting up the symmetry group for a 
 simple cubic supercell.


 Subroutine GETGRP returns: Found  2 space group operations
 (whereof  2 operations were pure point group operations)
 out of a pool of 48 trial point group operations.


The dynamic configuration has the point symmetry C_1h.


Analysis of constrained symmetry for selective dynamics:
=====================================================================
 Subroutine PRICEL returns:
 Original cell was already a primitive cell.
 

 Routine SETGRP: Setting up the symmetry group for a 
 simple cubic supercell.


 Subroutine GETGRP returns: Found  2 space group operations
 (whereof  2 operations were pure point group operations)
 out of a pool of 48 trial point group operations.


The constrained configuration has the point symmetry C_1h.


Analysis of structural, dynamic, and magnetic symmetry:
=====================================================================
 Subroutine PRICEL returns:
 Original cell was already a primitive cell.
 

 Routine SETGRP: Setting up the symmetry group for a 
 simple cubic supercell.


 Subroutine GETGRP returns: Found  2 space group operations
 (whereof  2 operations were pure point group operations)
 out of a pool of 48 trial point group operations.


The overall configuration has the point symmetry C_1h.


 Subroutine INISYM returns: Found  2 space group operations
 (whereof  2 operations are pure point group operations),
 and found     1 'primitive' translations


----------------------------------------------------------------------------------------

                                     Primitive cell                                     

  volume of cell :   64000.0000

  direct lattice vectors                    reciprocal lattice vectors
    40.000000000  0.000000000  0.000000000     0.025000000  0.000000000  0.000000000
     0.000000000 40.000000000  0.000000000     0.000000000  0.025000000  0.000000000
     0.000000000  0.000000000 40.000000000     0.000000000  0.000000000  0.025000000

  length of vectors
    40.000000000 40.000000000 40.000000000     0.025000000  0.025000000  0.025000000

  position of ions in fractional coordinates (direct lattice)
     0.494983875  0.468919239  0.500002747
     0.529396206  0.469298960  0.500998337
     0.546835557  0.499999000  0.501412477
     0.529396206  0.530700040  0.500998337
     0.494984875  0.531080761  0.500002747
     0.477043999  0.500000000  0.499355038
     0.443742620  0.500001000  0.498110306
     0.430508662  0.521767862  0.497580580
     0.430507662  0.478234138  0.497580580
     0.481017092  0.554458471  0.499603419
     0.543247733  0.554146746  0.501426557
     0.574072686  0.499999000  0.501899901
     0.543246733  0.445852254  0.501426557
     0.481015092  0.445541529  0.499603419

  ion indices of the primitive-cell ions
   primitive index   ion index
                 1           1
                 2           2
                 3           3
                 4           4
                 5           5
                 6           6
                 7           7
                 8           8
                 9           9
                10          10
                11          11
                12          12
                13          13
                14          14

----------------------------------------------------------------------------------------

 
 
 KPOINTS: K-Point Grid                            

Automatic generation of k-mesh.
 Grid dimensions read from file:
 generate k-points for:    1    1    1

 Generating k-lattice:

  Cartesian coordinates                     Fractional coordinates (reciprocal lattice)
     0.025000000  0.000000000  0.000000000     1.000000000  0.000000000  0.000000000
     0.000000000  0.025000000  0.000000000     0.000000000  1.000000000  0.000000000
     0.000000000  0.000000000  0.025000000     0.000000000  0.000000000  1.000000000

  Length of vectors
     0.025000000  0.025000000  0.025000000

  Shift w.r.t. Gamma in fractional coordinates (k-lattice)
     0.000000000  0.000000000  0.000000000

 
 Subroutine IBZKPT returns following result:
 ===========================================
 
 Found      1 irreducible k-points:
 
 Following reciprocal coordinates:
            Coordinates               Weight
  0.000000  0.000000  0.000000      1.000000
 
 Following cartesian coordinates:
            Coordinates               Weight
  0.000000  0.000000  0.000000      1.000000
 


--------------------------------------------------------------------------------------------------------




 Dimension of arrays:
   k-points           NKPTS =      1   k-points in BZ     NKDIM =      1   number of bands    NBANDS=     36
   number of dos      NEDOS =    301   number of ions     NIONS =     14
   non local maximal  LDIM  =      4   non local SUM 2l+1 LMDIM =      8
   total plane-waves  NPLWV = ******
   max r-space proj   IRMAX =   4928   max aug-charges    IRDMAX=   5085
   dimension x,y,z NGX =   294 NGY =  294 NGZ =  294
   dimension x,y,z NGXF=   588 NGYF=  588 NGZF=  588
   support grid    NGXF=   588 NGYF=  588 NGZF=  588
   ions per type =               6   1   7
   NGX,Y,Z   is equivalent  to a cutoff of  12.22, 12.22, 12.22 a.u.
   NGXF,Y,Z  is equivalent  to a cutoff of  24.44, 24.44, 24.44 a.u.

 SYSTEM =  103_red                                 
 POSCAR =  C N H                                   

 Startparameter for this run:
   NWRITE =      2    write-flag & timer
   PREC   = accura    normal or accurate (medium, high low for compatibility)
   ISTART =      1    job   : 0-new  1-cont  2-samecut
   ICHARG =      2    charge: 1-file 2-atom 10-const
   ISPIN  =      2    spin polarized calculation?
   LNONCOLLINEAR =      F non collinear calculations
   LSORBIT =      F    spin-orbit coupling
   INIWAV =      1    electr: 0-lowe 1-rand  2-diag
   LASPH  =      T    aspherical Exc in radial PAW
 Electronic Relaxation 1
   ENCUT  =  500.0 eV  36.75 Ry    6.06 a.u.  72.93 72.93 72.93*2*pi/ulx,y,z
   ENINI  =  500.0     initial cutoff
   ENAUG  =  644.9 eV  augmentation charge cutoff
   NELM   =    100;   NELMIN=  2; NELMDL=  0     # of ELM steps 
   EDIFF  = 0.1E-04   stopping-criterion for ELM
   LREAL  =      T    real-space projection
   NLSPLINE    = F    spline interpolate recip. space projectors
   LCOMPAT=      F    compatible to vasp.4.4
   GGA_COMPAT  = T    GGA compatible to vasp.4.4-vasp.4.6
   LMAXPAW     = -100 max onsite density
   LMAXMIX     =    2 max onsite mixed and CHGCAR
   VOSKOWN=      0    Vosko Wilk Nusair interpolation
   ROPT   =   -0.00025  -0.00025  -0.00025
 Ionic relaxation
   EDIFFG = -.2E-01   stopping-criterion for IOM
   NSW    =    500    number of steps for IOM
   NBLOCK =      1;   KBLOCK =    500    inner block; outer block 
   IBRION =      2    ionic relax: 0-MD 1-quasi-New 2-CG
   NFREE  =      1    steps in history (QN), initial steepest desc. (CG)
   ISIF   =      2    stress and relaxation
   IWAVPR =     11    prediction:  0-non 1-charg 2-wave 3-comb
   ISYM   =      2    0-nonsym 1-usesym 2-fastsym
   LCORR  =      T    Harris-Foulkes like correction to forces

   POTIM  = 0.5000    time-step for ionic-motion
   TEIN   =    0.0    initial temperature
   TEBEG  =    0.0;   TEEND  =   0.0 temperature during run
   SMASS  =  -3.00    Nose mass-parameter (am)
   estimated Nose-frequenzy (Omega)   =  0.10E-29 period in steps = 0.13E+47 mass=  -0.366E-25a.u.
   SCALEE = 1.0000    scale energy and forces
   NPACO  =    256;   APACO  = 10.0  distance and # of slots for P.C.
   PSTRESS=    0.0 pullay stress

  Mass of Ions in am
   POMASS =  12.01 14.00  1.00
  Ionic Valenz
   ZVAL   =   4.00  5.00  1.00
  Atomic Wigner-Seitz radii
   RWIGS  =  -1.00 -1.00 -1.00
  virtual crystal weights 
   VCA    =   1.00  1.00  1.00
   NELECT =      35.0000    total number of electrons
   NUPDOWN=      -1.0000    fix difference up-down

 DOS related values:
   EMIN   =  10.00;   EMAX   =-10.00  energy-range for DOS
   EFERMI =   0.00;   METHOD = LEGACY      
   ISMEAR =     0;   SIGMA  =   0.05  broadening in eV -4-tet -1-fermi 0-gaus

 Electronic relaxation 2 (details)
   IALGO  =     68    algorithm
   LDIAG  =      T    sub-space diagonalisation (order eigenvalues)
   LSUBROT=      F    optimize rotation matrix (better conditioning)
   TURBO    =      0    0=normal 1=particle mesh
   IRESTART =      0    0=no restart 2=restart with 2 vectors
   NREBOOT  =      0    no. of reboots
   NMIN     =      0    reboot dimension
   EREF     =   0.00    reference energy to select bands
   IMIX   =      4    mixing-type and parameters
     AMIX     =   0.40;   BMIX     =  1.00
     AMIX_MAG =   1.60;   BMIX_MAG =  1.00
     AMIN     =   0.10
     WC   =   100.;   INIMIX=   1;  MIXPRE=   1;  MAXMIX= -45

 Intra band minimization:
   WEIMIN = 0.0010     energy-eigenvalue tresh-hold
   EBREAK =  0.69E-07  absolut break condition
   DEPER  =   0.30     relativ break condition  

   TIME   =   0.40     timestep for ELM

  volume/ion in A,a.u.               =    4571.43     30849.52
  Fermi-wavevector in a.u.,A,eV,Ry     =   0.133876  0.252990  0.243856  0.017923
  Thomas-Fermi vector in A             =   0.780200
 
 Write flags
   LWAVE        =      T    write WAVECAR
   LDOWNSAMPLE  =      F    k-point downsampling of WAVECAR
   LCHARG       =      F    write CHGCAR
   LVTOT        =      F    write LOCPOT, total local potential
   LVHAR        =      F    write LOCPOT, Hartree potential only
   LELF         =      F    write electronic localiz. function (ELF)
   LORBIT       =      0    0 simple, 1 ext, 2 COOP (PROOUT), +10 PAW based schemes


 Dipole corrections
   LMONO  =      F    monopole corrections only (constant potential shift)
   LDIPOL =      F    correct potential (dipole corrections)
   IDIPOL =      0    1-x, 2-y, 3-z, 4-all directions 
   EPSILON=  1.0000000 bulk dielectric constant

 Exchange correlation treatment:
   GGA     =    --    GGA type
   LEXCH   =     8    internal setting for exchange type
   LIBXC   =     F    Libxc                    
   VOSKOWN =     0    Vosko Wilk Nusair interpolation
   LHFCALC =     F    Hartree Fock is set to
   LHFONE  =     F    Hartree Fock one center treatment
   AEXX    =    0.0000 exact exchange contribution

 Linear response parameters
   LEPSILON=     F    determine dielectric tensor
   LRPA    =     F    only Hartree local field effects (RPA)
   LNABLA  =     F    use nabla operator in PAW spheres
   LVEL    =     F    velocity operator in full k-point grid
   CSHIFT  =0.1000    complex shift for real part using Kramers Kronig
   OMEGAMAX=  -1.0    maximum frequency
   DEG_THRESHOLD= 0.2000000E-02 threshold for treating states as degnerate
   RTIME   =   -0.100 relaxation time in fs
  (WPLASMAI=    0.000 imaginary part of plasma frequency in eV, 0.658/RTIME)
   DFIELD  = 0.0000000 0.0000000 0.0000000 field for delta impulse in time
 
  Optional k-point grid parameters
   LKPOINTS_OPT  =     F    use optional k-point grid
   KPOINTS_OPT_MODE=     1    mode for optional k-point grid
 
 Orbital magnetization related:
   ORBITALMAG=     F  switch on orbital magnetization
   LCHIMAG   =     F  perturbation theory with respect to B field
   DQ        =  0.001000  dq finite difference perturbation B field
   LLRAUG    =     F  two centre corrections for induced B field
   LBONE     =     F  B-component reconstruction in AE one-centre
   LVGVCALC  =     T  calculate vGv susceptibility
   LVGVAPPL  =     F  apply vGv susceptibility instead of pGv for G=0

 Random number generation:
   RANDOM_GENERATOR = DEFAULT
   PCG_SEED         = not used
 Solvation model:
   LSOL    =     T         switch on solvation model
   EB_K    = 35.688000     relative permittivity of the bulk solvent
   SIGMA_K =  0.600000     width of the dielectric cavity
   NC_K    =  0.002500     cutoff charge density
   TAU     =  0.000000     cavity surface tension
   LAMBDA_D_K    =  3.040000     Debye length in Angstroms
   LRHOB     =     F     write boundcharge  density
   LRHOION     =     F     write ioniccharge density



--------------------------------------------------------------------------------------------------------


 conjugate gradient relaxation of ions
   using selective dynamics as specified on POSCAR
 charge density and potential will be updated during run
 spin polarized calculation
 RMM-DIIS sequential band-by-band and
  variant of blocked Davidson during initial phase
 perform sub-space diagonalisation
    before iterative eigenvector-optimisation
 modified Broyden-mixing scheme, WC =      100.0
 initial mixing is a Kerker type mixing with AMIX =  0.4000 and BMIX =      1.0000
 Hartree-type preconditioning will be used
 using additional bands           18
 real space projection scheme for non local part
 use partial core corrections
 calculate Harris-corrections to forces 
   (improved forces if not selfconsistent)
 use gradient corrections 
 use of overlap-Matrix (Vanderbilt PP)
 Gauss-broadening in eV      SIGMA  =   0.05


--------------------------------------------------------------------------------------------------------


  energy-cutoff  :      500.00
  volume of cell :    64000.00
      direct lattice vectors                 reciprocal lattice vectors
    40.000000000  0.000000000  0.000000000     0.025000000  0.000000000  0.000000000
     0.000000000 40.000000000  0.000000000     0.000000000  0.025000000  0.000000000
     0.000000000  0.000000000 40.000000000     0.000000000  0.000000000  0.025000000

  length of vectors
    40.000000000 40.000000000 40.000000000     0.025000000  0.025000000  0.025000000


 
 old parameters found on file WAVECAR:
  energy-cutoff  :      500.00
  volume of cell :    64000.00
      direct lattice vectors                 reciprocal lattice vectors
    40.000000000  0.000000000  0.000000000     0.025000000  0.000000000  0.000000000
     0.000000000 40.000000000  0.000000000     0.000000000  0.025000000  0.000000000
     0.000000000  0.000000000 40.000000000     0.000000000  0.000000000  0.025000000

  length of vectors

 
 k-points in units of 2pi/SCALE and weight: K-Point Grid                            
   0.00000000  0.00000000  0.00000000       1.000
 
 k-points in reciprocal lattice and weights: K-Point Grid                            
   0.00000000  0.00000000  0.00000000       1.000
 
 position of ions in fractional coordinates (direct lattice) 
   0.49498388  0.46891924  0.50000275
   0.52939621  0.46929896  0.50099834
   0.54683556  0.49999900  0.50141248
   0.52939621  0.53070004  0.50099834
   0.49498488  0.53108076  0.50000275
   0.47704400  0.50000000  0.49935504
   0.44374262  0.50000100  0.49811031
   0.43050866  0.52176786  0.49758058
   0.43050766  0.47823414  0.49758058
   0.48101709  0.55445847  0.49960342
   0.54324773  0.55414675  0.50142656
   0.57407269  0.49999900  0.50189990
   0.54324673  0.44585225  0.50142656
   0.48101509  0.44554153  0.49960342
 
 position of ions in cartesian coordinates  (Angst):
  19.79935502 18.75676957 20.00010987
  21.17584823 18.77195841 20.03993348
  21.87342227 19.99996000 20.05649908
  21.17584823 21.22800159 20.03993348
  19.79939502 21.24323043 20.00010987
  19.08175994 20.00000000 19.97420153
  17.74970481 20.00004000 19.92441223
  17.22034649 20.87071447 19.90322319
  17.22030649 19.12936553 19.90322319
  19.24068369 22.17833886 19.98413676
  21.72990934 22.16586985 20.05706227
  22.96290743 19.99996000 20.07599602
  21.72986934 17.83409015 20.05706227
  19.24060369 17.82166114 19.98413676
 


--------------------------------------------------------------------------------------------------------


 k-point   1 :   0.0000 0.0000 0.0000  plane waves: 1624525

 maximum and minimum number of plane-waves per node :    162473   162437

 maximum number of plane-waves:   1624525
 maximum index in each direction: 
   IXMAX=   72   IYMAX=   72   IZMAX=   72
   IXMIN=  -72   IYMIN=  -72   IZMIN=  -72


 real space projection operators:
  total allocation   :       1727.80 KBytes
  max/ min on nodes  :        182.50        162.66


 parallel 3D FFT for wavefunctions:
    minimum data exchange during FFTs selected (reduces bandwidth)
 parallel 3D FFT for charge:
    minimum data exchange during FFTs selected (reduces bandwidth)


 total amount of memory used by VASP MPI-rank0   989169. kBytes
=======================================================================

   base      :      30000. kBytes
   nonlr-proj:       1370. kBytes
   fftplans  :     192295. kBytes
   grid      :     734294. kBytes
   one-center:         12. kBytes
   wavefun   :      31198. kBytes
 
     INWAV:  cpu time      4.1404: real time      5.0238
 Broyden mixing: mesh for mixing (old mesh)
   NGX =145   NGY =145   NGZ =145
  (NGX  =588   NGY  =588   NGZ  =588)
  gives a total of ****** points

 initial charge density was supplied:
 charge density of overlapping atoms calculated
 number of electron      36.0000000 magnetization      14.0000000
 keeping initial charge density in first step


--------------------------------------------------------------------------------------------------------


 Maximum index for non-local projection operator          398
 Maximum index for augmentation-charges           79 (set IRDMAX)


--------------------------------------------------------------------------------------------------------


 First call to EWALD:  gamma=   0.044
 Maximum number of real-space cells 3x 3x 3
 Maximum number of reciprocal cells 3x 3x 3

    FEWALD:  cpu time      0.0010: real time      0.0010


--------------------------------------- Ionic step        1  -------------------------------------------




--------------------------------------- Iteration      1(   1)  ---------------------------------------


    POTLOK:  cpu time    136.0743: real time    136.7221
    SETDIJ:  cpu time      0.3075: real time      0.3086
     EDDAV:  cpu time     44.5709: real time     44.7798
       DOS:  cpu time      0.0004: real time      0.0004
    CHARGE:  cpu time     26.5505: real time     26.6709
    MIXING:  cpu time      0.1001: real time      0.1007
    --------------------------------------------
      LOOP:  cpu time    207.6037: real time    208.5824

 eigenvalue-minimisations  :   144
 total energy-change (2. order) :-0.8399643E+02  (-0.4580573E+01)
 number of electron      35.0000002 magnetization      13.4991388
 augmentation part        0.9841464 magnetization      12.5931877

 Broyden mixing:
  rms(total) = 0.22614E+01    rms(broyden)= 0.22610E+01
  rms(prec ) = 0.22807E+01
  weight for this iteration     100.00

 Free energy of the ion-electron system (eV)
  ---------------------------------------------------
  alpha Z        PSCENC =         0.09102512
  Ewald energy   TEWEN  =      3132.37418968
  -Hartree energ DENC   =     -3943.52618157
  -exchange      EXHF   =         0.00000000
  -V(xc)+E(xc)   XCENC  =       138.80214141
  PAW double counting   =       846.87580697     -862.08429816
  entropy T*S    EENTRO =        -0.00000000
  eigenvalues    EBANDS =      -625.03819465
  atomic energy  EATOM  =      1234.83038864
  Solvation  Ediel_sol  =        -6.32130262
  ---------------------------------------------------
  free energy    TOTEN  =       -83.99642518 eV

  energy without entropy =      -83.99642518  energy(sigma->0) =      -83.99642518


--------------------------------------------------------------------------------------------------------




--------------------------------------- Iteration      1(   2)  ---------------------------------------


    POTLOK:  cpu time    130.5017: real time    131.1326
    SETDIJ:  cpu time      0.3041: real time      0.3051
    EDDIAG:  cpu time     10.7413: real time     10.7908
  RMM-DIIS:  cpu time     60.5446: real time     60.8165
    ORTHCH:  cpu time      0.0818: real time      0.0823
       DOS:  cpu time      0.0004: real time      0.0004
    CHARGE:  cpu time     26.9817: real time     27.1048
    MIXING:  cpu time      0.1483: real time      0.1489
    --------------------------------------------
      LOOP:  cpu time    229.3040: real time    230.3814

 eigenvalue-minimisations  :   146
 total energy-change (2. order) : 0.3729927E+01  (-0.4456451E+01)
 number of electron      35.0000002 magnetization      12.9792265
 augmentation part        0.9746819 magnetization      12.0303799

 Broyden mixing:
  rms(total) = 0.10946E+01    rms(broyden)= 0.10946E+01
  rms(prec ) = 0.11096E+01
  weight for this iteration     100.00

 eigenvalues of (default mixing * dielectric matrix)
  average eigenvalue GAMMA=   0.9172
  0.9172

 Free energy of the ion-electron system (eV)
  ---------------------------------------------------
  alpha Z        PSCENC =         0.09102512
  Ewald energy   TEWEN  =      3132.37418968
  -Hartree energ DENC   =     -3988.32985614
  -exchange      EXHF   =         0.00000000
  -V(xc)+E(xc)   XCENC  =       145.89279740
  PAW double counting   =      1521.56652124    -1537.44098559
  entropy T*S    EENTRO =        -0.00000000
  eigenvalues    EBANDS =      -566.74526462
  atomic energy  EATOM  =      1234.83038864
  Solvation  Ediel_sol  =       -22.50531438
  ---------------------------------------------------
  free energy    TOTEN  =       -80.26649866 eV

  energy without entropy =      -80.26649866  energy(sigma->0) =      -80.26649866


--------------------------------------------------------------------------------------------------------




--------------------------------------- Iteration      1(   3)  ---------------------------------------


    POTLOK:  cpu time    129.2739: real time    129.8893
    SETDIJ:  cpu time      0.3051: real time      0.3061
    EDDIAG:  cpu time     10.6340: real time     10.6826
  RMM-DIIS:  cpu time     68.4584: real time     68.7521
    ORTHCH:  cpu time      0.0848: real time      0.0854
       DOS:  cpu time      0.0006: real time      0.0006
    CHARGE:  cpu time     26.8423: real time     26.9664
    MIXING:  cpu time      0.1491: real time      0.1498
    --------------------------------------------
      LOOP:  cpu time    235.7482: real time    236.8324

 eigenvalue-minimisations  :   170
 total energy-change (2. order) :-0.1106958E+02  (-0.1645155E+01)
 number of electron      35.0000002 magnetization      12.2738393
 augmentation part        0.9547322 magnetization      11.3193973

 Broyden mixing:
  rms(total) = 0.66291E+00    rms(broyden)= 0.66288E+00
  rms(prec ) = 0.67073E+00
  weight for this iteration     100.00

 eigenvalues of (default mixing * dielectric matrix)
  average eigenvalue GAMMA=   1.1269
  0.7765  1.4772

 Free energy of the ion-electron system (eV)
  ---------------------------------------------------
  alpha Z        PSCENC =         0.09102512
  Ewald energy   TEWEN  =      3132.37418968
  -Hartree energ DENC   =     -4015.39660968
  -exchange      EXHF   =         0.00000000
  -V(xc)+E(xc)   XCENC  =       139.19338753
  PAW double counting   =      2114.00309704    -2130.33871865
  entropy T*S    EENTRO =        -0.00000000
  eigenvalues    EBANDS =      -528.24551838
  atomic energy  EATOM  =      1234.83038864
  Solvation  Ediel_sol  =       -37.84732120
  ---------------------------------------------------
  free energy    TOTEN  =       -91.33607989 eV

  energy without entropy =      -91.33607989  energy(sigma->0) =      -91.33607989


--------------------------------------------------------------------------------------------------------




--------------------------------------- Iteration      1(   4)  ---------------------------------------


    POTLOK:  cpu time    126.9651: real time    127.5688
    SETDIJ:  cpu time      0.3062: real time      0.3073
    EDDIAG:  cpu time     10.6839: real time     10.7320
  RMM-DIIS:  cpu time     78.5800: real time     78.9200
    ORTHCH:  cpu time      0.0841: real time      0.0846
       DOS:  cpu time      0.0004: real time      0.0004
    CHARGE:  cpu time     26.9308: real time     27.0534
    MIXING:  cpu time      0.1542: real time      0.1549
    --------------------------------------------
      LOOP:  cpu time    243.7047: real time    244.8214

 eigenvalue-minimisations  :   207
 total energy-change (2. order) :-0.3848112E+01  (-0.7405289E+00)
 number of electron      35.0000002 magnetization      11.6259569
 augmentation part        0.9376709 magnetization      10.6767542

 Broyden mixing:
  rms(total) = 0.39360E+00    rms(broyden)= 0.39357E+00
  rms(prec ) = 0.39880E+00
  weight for this iteration     100.00

 eigenvalues of (default mixing * dielectric matrix)
  average eigenvalue GAMMA=   1.2563
  2.0236  1.0469  0.6984

 Free energy of the ion-electron system (eV)
  ---------------------------------------------------
  alpha Z        PSCENC =         0.09102512
  Ewald energy   TEWEN  =      3132.37418968
  -Hartree energ DENC   =     -4029.86381918
  -exchange      EXHF   =         0.00000000
  -V(xc)+E(xc)   XCENC  =       137.77167734
  PAW double counting   =      2743.95422809    -2760.40161718
  entropy T*S    EENTRO =        -0.00000000
  eigenvalues    EBANDS =      -497.31161619
  atomic energy  EATOM  =      1234.83038864
  Solvation  Ediel_sol  =       -56.62864850
  ---------------------------------------------------
  free energy    TOTEN  =       -95.18419219 eV

  energy without entropy =      -95.18419219  energy(sigma->0) =      -95.18419219


--------------------------------------------------------------------------------------------------------




--------------------------------------- Iteration      1(   5)  ---------------------------------------


    POTLOK:  cpu time    129.3524: real time    129.9606
    SETDIJ:  cpu time      0.3031: real time      0.3042
    EDDIAG:  cpu time     10.6230: real time     10.6722
  RMM-DIIS:  cpu time     80.1842: real time     80.5312
    ORTHCH:  cpu time      0.0831: real time      0.0836
       DOS:  cpu time      0.0003: real time      0.0003
    CHARGE:  cpu time     26.9545: real time     27.0770
    MIXING:  cpu time      0.1428: real time      0.1435
    --------------------------------------------
      LOOP:  cpu time    247.6434: real time    248.7726

 eigenvalue-minimisations  :   213
 total energy-change (2. order) :-0.7232968E+00  (-0.1490080E+00)
 number of electron      35.0000002 magnetization      10.7916735
 augmentation part        0.9325640 magnetization       9.8469395

 Broyden mixing:
  rms(total) = 0.24264E+00    rms(broyden)= 0.24263E+00
  rms(prec ) = 0.24762E+00
  weight for this iteration     100.00

 eigenvalues of (default mixing * dielectric matrix)
  average eigenvalue GAMMA=   1.3676
  2.4581  1.4793  0.8628  0.6703

 Free energy of the ion-electron system (eV)
  ---------------------------------------------------
  alpha Z        PSCENC =         0.09102512
  Ewald energy   TEWEN  =      3132.37418968
  -Hartree energ DENC   =     -4023.43020403
  -exchange      EXHF   =         0.00000000
  -V(xc)+E(xc)   XCENC  =       137.58483734
  PAW double counting   =      3045.47404449    -3061.89635617
  entropy T*S    EENTRO =        -0.00000000
  eigenvalues    EBANDS =      -491.03179023
  atomic energy  EATOM  =      1234.83038864
  Solvation  Ediel_sol  =       -69.90362386
  ---------------------------------------------------
  free energy    TOTEN  =       -95.90748902 eV

  energy without entropy =      -95.90748902  energy(sigma->0) =      -95.90748902


--------------------------------------------------------------------------------------------------------




--------------------------------------- Iteration      1(   6)  ---------------------------------------


    POTLOK:  cpu time    131.2032: real time    131.8259
    SETDIJ:  cpu time      0.3351: real time      0.3362
    EDDIAG:  cpu time     10.7915: real time     10.8395
  RMM-DIIS:  cpu time     78.9116: real time     79.2644
    ORTHCH:  cpu time      0.0837: real time      0.0842
       DOS:  cpu time      0.0008: real time      0.0008
    CHARGE:  cpu time     26.8831: real time     27.0060
    MIXING:  cpu time      0.1571: real time      0.1578
    --------------------------------------------
      LOOP:  cpu time    248.3660: real time    249.5147

 eigenvalue-minimisations  :   208
 total energy-change (2. order) :-0.2793652E+00  (-0.8089287E-01)
 number of electron      35.0000002 magnetization      10.2066093
 augmentation part        0.9304040 magnetization       9.2658853

 Broyden mixing:
  rms(total) = 0.14667E+00    rms(broyden)= 0.14666E+00
  rms(prec ) = 0.15110E+00
  weight for this iteration     100.00

 eigenvalues of (default mixing * dielectric matrix)
  average eigenvalue GAMMA=   1.4173
  2.9094  1.7579  1.0232  0.7558  0.6402

 Free energy of the ion-electron system (eV)
  ---------------------------------------------------
  alpha Z        PSCENC =         0.09102512
  Ewald energy   TEWEN  =      3132.37418968
  -Hartree energ DENC   =     -4010.60351037
  -exchange      EXHF   =         0.00000000
  -V(xc)+E(xc)   XCENC  =       137.57889544
  PAW double counting   =      3230.45487323    -3246.75256236
  entropy T*S    EENTRO =        -0.00000000
  eigenvalues    EBANDS =      -491.02040522
  atomic energy  EATOM  =      1234.83038864
  Solvation  Ediel_sol  =       -83.13974841
  ---------------------------------------------------
  free energy    TOTEN  =       -96.18685425 eV

  energy without entropy =      -96.18685425  energy(sigma->0) =      -96.18685425


--------------------------------------------------------------------------------------------------------




--------------------------------------- Iteration      1(   7)  ---------------------------------------


    POTLOK:  cpu time    125.5738: real time    126.1644
    SETDIJ:  cpu time      0.3035: real time      0.3045
    EDDIAG:  cpu time     10.6468: real time     10.6944
  RMM-DIIS:  cpu time     79.9574: real time     80.3084
    ORTHCH:  cpu time      0.0845: real time      0.0850
       DOS:  cpu time      0.0007: real time      0.0007
    CHARGE:  cpu time     26.9829: real time     27.1061
    MIXING:  cpu time      0.1632: real time      0.1639
    --------------------------------------------
      LOOP:  cpu time    243.7128: real time    244.8273

 eigenvalue-minimisations  :   214
 total energy-change (2. order) : 0.4949302E+00  (-0.3291150E-01)
 number of electron      35.0000002 magnetization       9.3007049
 augmentation part        0.9276662 magnetization       8.3630307

 Broyden mixing:
  rms(total) = 0.11466E+00    rms(broyden)= 0.11465E+00
  rms(prec ) = 0.11858E+00
  weight for this iteration     100.00

 eigenvalues of (default mixing * dielectric matrix)
  average eigenvalue GAMMA=   1.4013
  3.0577  1.9331  1.0135  1.0135  0.7453  0.6446

 Free energy of the ion-electron system (eV)
  ---------------------------------------------------
  alpha Z        PSCENC =         0.09102512
  Ewald energy   TEWEN  =      3132.37418968
  -Hartree energ DENC   =     -4002.25644815
  -exchange      EXHF   =         0.00000000
  -V(xc)+E(xc)   XCENC  =       138.07223491
  PAW double counting   =      3261.52315926    -3277.78233476
  entropy T*S    EENTRO =        -0.00000000
  eigenvalues    EBANDS =      -492.54288954
  atomic energy  EATOM  =      1234.83038864
  Solvation  Ediel_sol  =       -90.00124917
  ---------------------------------------------------
  free energy    TOTEN  =       -95.69192401 eV

  energy without entropy =      -95.69192401  energy(sigma->0) =      -95.69192401


--------------------------------------------------------------------------------------------------------




--------------------------------------- Iteration      1(   8)  ---------------------------------------


    POTLOK:  cpu time    125.2758: real time    125.8647
    SETDIJ:  cpu time      0.3034: real time      0.3044
    EDDIAG:  cpu time     10.6417: real time     10.6909
  RMM-DIIS:  cpu time     80.1118: real time     80.4679
    ORTHCH:  cpu time      0.0836: real time      0.0841
       DOS:  cpu time      0.0006: real time      0.0006
    CHARGE:  cpu time     26.8575: real time     26.9792
    MIXING:  cpu time      0.1324: real time      0.1332
    --------------------------------------------
      LOOP:  cpu time    243.4068: real time    244.5249

 eigenvalue-minimisations  :   213
 total energy-change (2. order) : 0.1194271E+01  (-0.2731127E-01)
 number of electron      35.0000002 magnetization       8.1766142
 augmentation part        0.9255530 magnetization       7.2431077

 Broyden mixing:
  rms(total) = 0.83243E-01    rms(broyden)= 0.83227E-01
  rms(prec ) = 0.86254E-01
  weight for this iteration     100.00

 eigenvalues of (default mixing * dielectric matrix)
  average eigenvalue GAMMA=   1.5923
  3.8038  2.4842  1.5974  1.0992  0.7974  0.7299  0.6343

 Free energy of the ion-electron system (eV)
  ---------------------------------------------------
  alpha Z        PSCENC =         0.09102512
  Ewald energy   TEWEN  =      3132.37418968
  -Hartree energ DENC   =     -3990.61442460
  -exchange      EXHF   =         0.00000000
  -V(xc)+E(xc)   XCENC  =       139.13382430
  PAW double counting   =      3244.09621156    -3260.31788960
  entropy T*S    EENTRO =        -0.00000000
  eigenvalues    EBANDS =      -495.51959218
  atomic energy  EATOM  =      1234.83038864
  Solvation  Ediel_sol  =       -98.57138603
  ---------------------------------------------------
  free energy    TOTEN  =       -94.49765311 eV

  energy without entropy =      -94.49765311  energy(sigma->0) =      -94.49765311


--------------------------------------------------------------------------------------------------------




--------------------------------------- Iteration      1(   9)  ---------------------------------------


    POTLOK:  cpu time    123.5663: real time    124.1670
    SETDIJ:  cpu time      0.3036: real time      0.3047
    EDDIAG:  cpu time     10.6492: real time     10.6973
  RMM-DIIS:  cpu time     80.3651: real time     80.7138
    ORTHCH:  cpu time      0.0836: real time      0.0841
       DOS:  cpu time      0.0003: real time      0.0003
    CHARGE:  cpu time     26.8994: real time     27.0212
    MIXING:  cpu time      0.1789: real time      0.1797
    --------------------------------------------
      LOOP:  cpu time    242.0464: real time    243.1681

 eigenvalue-minimisations  :   213
 total energy-change (2. order) : 0.1058872E+01  (-0.2266206E-01)
 number of electron      35.0000002 magnetization       7.2721045
 augmentation part        0.9251612 magnetization       6.3416457

 Broyden mixing:
  rms(total) = 0.54090E-01    rms(broyden)= 0.54081E-01
  rms(prec ) = 0.55800E-01
  weight for this iteration     100.00

 eigenvalues of (default mixing * dielectric matrix)
  average eigenvalue GAMMA=   1.6872
  4.9138  2.5963  1.8361  1.0057  1.0057  0.7908  0.6283  0.7205

 Free energy of the ion-electron system (eV)
  ---------------------------------------------------
  alpha Z        PSCENC =         0.09102512
  Ewald energy   TEWEN  =      3132.37418968
  -Hartree energ DENC   =     -3978.68818412
  -exchange      EXHF   =         0.00000000
  -V(xc)+E(xc)   XCENC  =       140.08003356
  PAW double counting   =      3230.34812227    -3246.55644661
  entropy T*S    EENTRO =        -0.00000000
  eigenvalues    EBANDS =      -497.67983166
  atomic energy  EATOM  =      1234.83038864
  Solvation  Ediel_sol  =      -108.23807792
  ---------------------------------------------------
  free energy    TOTEN  =       -93.43878104 eV

  energy without entropy =      -93.43878104  energy(sigma->0) =      -93.43878104


--------------------------------------------------------------------------------------------------------




--------------------------------------- Iteration      1(  10)  ---------------------------------------


    POTLOK:  cpu time    118.0662: real time    118.6234
    SETDIJ:  cpu time      0.3043: real time      0.3053
    EDDIAG:  cpu time     10.6505: real time     10.6984
  RMM-DIIS:  cpu time     80.6263: real time     80.9816
    ORTHCH:  cpu time      0.0837: real time      0.0842
       DOS:  cpu time      0.0005: real time      0.0005
    CHARGE:  cpu time     26.8853: real time     27.0106
    MIXING:  cpu time      0.1875: real time      0.1884
    --------------------------------------------
      LOOP:  cpu time    236.8043: real time    237.8925

 eigenvalue-minimisations  :   214
 total energy-change (2. order) : 0.8762330E+00  (-0.1409307E-01)
 number of electron      35.0000002 magnetization       6.7711202
 augmentation part        0.9252498 magnetization       5.8423928

 Broyden mixing:
  rms(total) = 0.37936E-01    rms(broyden)= 0.37931E-01
  rms(prec ) = 0.38681E-01
  weight for this iteration     100.00

 eigenvalues of (default mixing * dielectric matrix)
  average eigenvalue GAMMA=   1.7949
  6.3394  2.6442  2.0140  1.1190  0.9781  0.9781  0.6264  0.7416  0.7139

 Free energy of the ion-electron system (eV)
  ---------------------------------------------------
  alpha Z        PSCENC =         0.09102512
  Ewald energy   TEWEN  =      3132.37418968
  -Hartree energ DENC   =     -3971.85910268
  -exchange      EXHF   =         0.00000000
  -V(xc)+E(xc)   XCENC  =       140.92813312
  PAW double counting   =      3225.45224012    -3241.67264280
  entropy T*S    EENTRO =        -0.00000000
  eigenvalues    EBANDS =      -497.87069016
  atomic energy  EATOM  =      1234.83038864
  Solvation  Ediel_sol  =      -114.83608911
  ---------------------------------------------------
  free energy    TOTEN  =       -92.56254807 eV

  energy without entropy =      -92.56254807  energy(sigma->0) =      -92.56254807


--------------------------------------------------------------------------------------------------------




--------------------------------------- Iteration      1(  11)  ---------------------------------------


    POTLOK:  cpu time    115.7079: real time    116.2480
    SETDIJ:  cpu time      0.3391: real time      0.3402
    EDDIAG:  cpu time     10.8316: real time     10.8824
  RMM-DIIS:  cpu time     79.8846: real time     80.2337
    ORTHCH:  cpu time      0.0831: real time      0.0836
       DOS:  cpu time      0.0005: real time      0.0005
    CHARGE:  cpu time     27.0415: real time     27.1643
    MIXING:  cpu time      0.2013: real time      0.2022
    --------------------------------------------
      LOOP:  cpu time    234.0895: real time    235.1547

 eigenvalue-minimisations  :   214
 total energy-change (2. order) : 0.4731454E+00  (-0.5892249E-02)
 number of electron      35.0000002 magnetization       6.1609804
 augmentation part        0.9251031 magnetization       5.2335870

 Broyden mixing:
  rms(total) = 0.31045E-01    rms(broyden)= 0.31043E-01
  rms(prec ) = 0.31447E-01
  weight for this iteration     100.00

 eigenvalues of (default mixing * dielectric matrix)
  average eigenvalue GAMMA=   1.8485
  7.3823  2.7138  2.0777  1.2312  1.1226  1.1226  0.8038  0.7383  0.6606  0.6321

 Free energy of the ion-electron system (eV)
  ---------------------------------------------------
  alpha Z        PSCENC =         0.09102512
  Ewald energy   TEWEN  =      3132.37418968
  -Hartree energ DENC   =     -3968.86623980
  -exchange      EXHF   =         0.00000000
  -V(xc)+E(xc)   XCENC  =       141.39452687
  PAW double counting   =      3223.07118126    -3239.29386482
  entropy T*S    EENTRO =        -0.00000000
  eigenvalues    EBANDS =      -497.91954944
  atomic energy  EATOM  =      1234.83038864
  Solvation  Ediel_sol  =      -117.77106022
  ---------------------------------------------------
  free energy    TOTEN  =       -92.08940272 eV

  energy without entropy =      -92.08940272  energy(sigma->0) =      -92.08940272


--------------------------------------------------------------------------------------------------------




--------------------------------------- Iteration      1(  12)  ---------------------------------------


    POTLOK:  cpu time    113.5648: real time    114.1111
    SETDIJ:  cpu time      0.3035: real time      0.3045
    EDDIAG:  cpu time     10.5953: real time     10.6427
  RMM-DIIS:  cpu time     80.2719: real time     80.6324
    ORTHCH:  cpu time      0.0844: real time      0.0849
       DOS:  cpu time      0.0005: real time      0.0005
    CHARGE:  cpu time     26.8811: real time     27.0060
    MIXING:  cpu time      0.2039: real time      0.2050
    --------------------------------------------
      LOOP:  cpu time    231.9053: real time    232.9871

 eigenvalue-minimisations  :   214
 total energy-change (2. order) : 0.6150995E+00  (-0.5817325E-03)
 number of electron      35.0000002 magnetization       5.5218593
 augmentation part        0.9249460 magnetization       4.5954832

 Broyden mixing:
  rms(total) = 0.24879E-01    rms(broyden)= 0.24875E-01
  rms(prec ) = 0.25052E-01
  weight for this iteration     100.00

 eigenvalues of (default mixing * dielectric matrix)
  average eigenvalue GAMMA=   1.8974
  8.0277  2.6845  2.5159  1.5764  1.1045  1.1045  1.0789  0.7571  0.7571  0.6324
  0.6324

 Free energy of the ion-electron system (eV)
  ---------------------------------------------------
  alpha Z        PSCENC =         0.09102512
  Ewald energy   TEWEN  =      3132.37418968
  -Hartree energ DENC   =     -3966.54319100
  -exchange      EXHF   =         0.00000000
  -V(xc)+E(xc)   XCENC  =       142.00689787
  PAW double counting   =      3224.17067657    -3240.39749759
  entropy T*S    EENTRO =        -0.00000000
  eigenvalues    EBANDS =      -497.68979825
  atomic energy  EATOM  =      1234.83038864
  Solvation  Ediel_sol  =      -120.31699421
  ---------------------------------------------------
  free energy    TOTEN  =       -91.47430317 eV

  energy without entropy =      -91.47430317  energy(sigma->0) =      -91.47430317


--------------------------------------------------------------------------------------------------------




--------------------------------------- Iteration      1(  13)  ---------------------------------------


    POTLOK:  cpu time    114.4104: real time    114.9527
    SETDIJ:  cpu time      0.3049: real time      0.3059
    EDDIAG:  cpu time     10.6072: real time     10.6560
  RMM-DIIS:  cpu time     80.0776: real time     80.4260
    ORTHCH:  cpu time      0.0832: real time      0.0837
       DOS:  cpu time      0.0004: real time      0.0004
    CHARGE:  cpu time     26.8833: real time     27.0066
    MIXING:  cpu time      0.2187: real time      0.2199
    --------------------------------------------
      LOOP:  cpu time    232.5858: real time    233.6512

 eigenvalue-minimisations  :   214
 total energy-change (2. order) : 0.5404253E+00  ( 0.4224480E-02)
 number of electron      35.0000002 magnetization       4.9539772
 augmentation part        0.9245880 magnetization       4.0281855

 Broyden mixing:
  rms(total) = 0.20223E-01    rms(broyden)= 0.20222E-01
  rms(prec ) = 0.20294E-01
  weight for this iteration     100.00

 eigenvalues of (default mixing * dielectric matrix)
  average eigenvalue GAMMA=   1.9472
  8.6513  3.1631  2.6841  1.9083  1.1555  1.1555  1.0807  0.7938  0.7650  0.7650
  0.6218  0.6218

 Free energy of the ion-electron system (eV)
  ---------------------------------------------------
  alpha Z        PSCENC =         0.09102512
  Ewald energy   TEWEN  =      3132.37418968
  -Hartree energ DENC   =     -3965.02733247
  -exchange      EXHF   =         0.00000000
  -V(xc)+E(xc)   XCENC  =       142.55282115
  PAW double counting   =      3229.00378234    -3245.23593642
  entropy T*S    EENTRO =        -0.00000000
  eigenvalues    EBANDS =      -497.21357273
  atomic energy  EATOM  =      1234.83038864
  Solvation  Ediel_sol  =      -122.30924318
  ---------------------------------------------------
  free energy    TOTEN  =       -90.93387787 eV

  energy without entropy =      -90.93387787  energy(sigma->0) =      -90.93387787


--------------------------------------------------------------------------------------------------------




--------------------------------------- Iteration      1(  14)  ---------------------------------------


    POTLOK:  cpu time    111.1428: real time    111.6683
    SETDIJ:  cpu time      0.3397: real time      0.3408
    EDDIAG:  cpu time     10.6438: real time     10.6902
  RMM-DIIS:  cpu time     80.4636: real time     80.8143
    ORTHCH:  cpu time      0.0836: real time      0.0842
       DOS:  cpu time      0.0004: real time      0.0004
    CHARGE:  cpu time     26.9190: real time     27.0415
    MIXING:  cpu time      0.2278: real time      0.2292
    --------------------------------------------
      LOOP:  cpu time    229.8207: real time    230.8690

 eigenvalue-minimisations  :   214
 total energy-change (2. order) : 0.3852043E+00  ( 0.4957134E-03)
 number of electron      35.0000002 magnetization       4.3892417
 augmentation part        0.9249060 magnetization       3.4636414

 Broyden mixing:
  rms(total) = 0.17267E-01    rms(broyden)= 0.17266E-01
  rms(prec ) = 0.17291E-01
  weight for this iteration     100.00

 eigenvalues of (default mixing * dielectric matrix)
  average eigenvalue GAMMA=   1.9775
  9.1527  3.7101  2.7804  2.1745  1.0964  1.0964  1.1220  1.1220  0.8038  0.7535
  0.7013  0.6315  0.5636

 Free energy of the ion-electron system (eV)
  ---------------------------------------------------
  alpha Z        PSCENC =         0.09102512
  Ewald energy   TEWEN  =      3132.37418968
  -Hartree energ DENC   =     -3963.81607018
  -exchange      EXHF   =         0.00000000
  -V(xc)+E(xc)   XCENC  =       142.92513528
  PAW double counting   =      3229.64466735    -3245.87254284
  entropy T*S    EENTRO =        -0.00000000
  eigenvalues    EBANDS =      -497.31209388
  atomic energy  EATOM  =      1234.83038864
  Solvation  Ediel_sol  =      -123.41337279
  ---------------------------------------------------
  free energy    TOTEN  =       -90.54867362 eV

  energy without entropy =      -90.54867362  energy(sigma->0) =      -90.54867362


--------------------------------------------------------------------------------------------------------




--------------------------------------- Iteration      1(  15)  ---------------------------------------


    POTLOK:  cpu time    115.4521: real time    115.9934
    SETDIJ:  cpu time      0.3432: real time      0.3443
    EDDIAG:  cpu time     10.6258: real time     10.6732
  RMM-DIIS:  cpu time     80.1527: real time     80.4998
    ORTHCH:  cpu time      0.0821: real time      0.0826
       DOS:  cpu time      0.0006: real time      0.0006
    CHARGE:  cpu time     27.0133: real time     27.1357
    MIXING:  cpu time      0.2428: real time      0.2443
    --------------------------------------------
      LOOP:  cpu time    233.9126: real time    234.9738

 eigenvalue-minimisations  :   214
 total energy-change (2. order) : 0.3545064E+00  ( 0.3266746E-02)
 number of electron      35.0000002 magnetization       3.9651243
 augmentation part        0.9247386 magnetization       3.0399188

 Broyden mixing:
  rms(total) = 0.14358E-01    rms(broyden)= 0.14358E-01
  rms(prec ) = 0.14383E-01
  weight for this iteration     100.00

 eigenvalues of (default mixing * dielectric matrix)
  average eigenvalue GAMMA=   2.0400
  9.7570  4.7905  2.7956  2.3458  1.1688  1.1688  1.1751  1.1751  0.7995  0.7689
  0.7689  0.6551  0.6314  0.5590

 Free energy of the ion-electron system (eV)
  ---------------------------------------------------
  alpha Z        PSCENC =         0.09102512
  Ewald energy   TEWEN  =      3132.37418968
  -Hartree energ DENC   =     -3962.96968741
  -exchange      EXHF   =         0.00000000
  -V(xc)+E(xc)   XCENC  =       143.26510350
  PAW double counting   =      3233.24600148    -3249.46859318
  entropy T*S    EENTRO =        -0.00000000
  eigenvalues    EBANDS =      -497.49849645
  atomic energy  EATOM  =      1234.83038864
  Solvation  Ediel_sol  =      -124.06409857
  ---------------------------------------------------
  free energy    TOTEN  =       -90.19416719 eV

  energy without entropy =      -90.19416719  energy(sigma->0) =      -90.19416719


--------------------------------------------------------------------------------------------------------




--------------------------------------- Iteration      1(  16)  ---------------------------------------


    POTLOK:  cpu time    106.5972: real time    107.0952
    SETDIJ:  cpu time      0.3050: real time      0.3060
    EDDIAG:  cpu time     10.6569: real time     10.7045
  RMM-DIIS:  cpu time     80.4600: real time     80.8124
    ORTHCH:  cpu time      0.0834: real time      0.0840
       DOS:  cpu time      0.0004: real time      0.0005
    CHARGE:  cpu time     26.8586: real time     26.9832
    MIXING:  cpu time      0.2449: real time      0.2463
    --------------------------------------------
      LOOP:  cpu time    225.2066: real time    226.2321

 eigenvalue-minimisations  :   214
 total energy-change (2. order) : 0.2148783E+00  (-0.1786562E-02)
 number of electron      35.0000002 magnetization       3.2980998
 augmentation part        0.9247370 magnetization       2.3732039

 Broyden mixing:
  rms(total) = 0.12830E-01    rms(broyden)= 0.12829E-01
  rms(prec ) = 0.12865E-01
  weight for this iteration     100.00

 eigenvalues of (default mixing * dielectric matrix)
  average eigenvalue GAMMA=   2.0870
 10.3350  5.4732  2.9317  2.4127  1.6768  1.1472  1.1472  1.1545  1.0446  0.7510
  0.7510  0.7214  0.6212  0.6212  0.5162

 Free energy of the ion-electron system (eV)
  ---------------------------------------------------
  alpha Z        PSCENC =         0.09102512
  Ewald energy   TEWEN  =      3132.37418968
  -Hartree energ DENC   =     -3962.60673498
  -exchange      EXHF   =         0.00000000
  -V(xc)+E(xc)   XCENC  =       143.47520065
  PAW double counting   =      3234.60174465    -3250.82255490
  entropy T*S    EENTRO =        -0.00000000
  eigenvalues    EBANDS =      -497.64859048
  atomic energy  EATOM  =      1234.83038864
  Solvation  Ediel_sol  =      -124.27395725
  ---------------------------------------------------
  free energy    TOTEN  =       -89.97928886 eV

  energy without entropy =      -89.97928886  energy(sigma->0) =      -89.97928886


--------------------------------------------------------------------------------------------------------




--------------------------------------- Iteration      1(  17)  ---------------------------------------


    POTLOK:  cpu time    108.7349: real time    109.2531
    SETDIJ:  cpu time      0.3427: real time      0.3439
    EDDIAG:  cpu time     10.7673: real time     10.8151
  RMM-DIIS:  cpu time     80.6116: real time     80.9677
    ORTHCH:  cpu time      0.0845: real time      0.0850
       DOS:  cpu time      0.0005: real time      0.0005
    CHARGE:  cpu time     26.8568: real time     26.9771
    MIXING:  cpu time      0.2648: real time      0.2660
    --------------------------------------------
      LOOP:  cpu time    227.6630: real time    228.7083

 eigenvalue-minimisations  :   214
 total energy-change (2. order) : 0.3525225E+00  (-0.1491175E-02)
 number of electron      35.0000002 magnetization       2.8599972
 augmentation part        0.9249957 magnetization       1.9359160

 Broyden mixing:
  rms(total) = 0.10859E-01    rms(broyden)= 0.10858E-01
  rms(prec ) = 0.10925E-01
  weight for this iteration     100.00

 eigenvalues of (default mixing * dielectric matrix)
  average eigenvalue GAMMA=   2.1055
 10.8420  5.9697  2.8946  2.3823  2.2207  1.2043  1.2043  1.2306  0.9610  0.7850
  0.7850  0.6921  0.6838  0.6838  0.6283  0.5213

 Free energy of the ion-electron system (eV)
  ---------------------------------------------------
  alpha Z        PSCENC =         0.09102512
  Ewald energy   TEWEN  =      3132.37418968
  -Hartree energ DENC   =     -3962.40285039
  -exchange      EXHF   =         0.00000000
  -V(xc)+E(xc)   XCENC  =       143.82603808
  PAW double counting   =      3236.76845284    -3252.98806867
  entropy T*S    EENTRO =        -0.00000000
  eigenvalues    EBANDS =      -497.85034661
  atomic energy  EATOM  =      1234.83038864
  Solvation  Ediel_sol  =      -124.27559505
  ---------------------------------------------------
  free energy    TOTEN  =       -89.62676635 eV

  energy without entropy =      -89.62676635  energy(sigma->0) =      -89.62676635


--------------------------------------------------------------------------------------------------------




--------------------------------------- Iteration      1(  18)  ---------------------------------------


    POTLOK:  cpu time    110.6688: real time    111.1950
    SETDIJ:  cpu time      0.3068: real time      0.3079
    EDDIAG:  cpu time     10.7263: real time     10.7749
  RMM-DIIS:  cpu time     80.2244: real time     80.5777
    ORTHCH:  cpu time      0.0821: real time      0.0826
       DOS:  cpu time      0.0005: real time      0.0005
    CHARGE:  cpu time     26.9211: real time     27.0446
    MIXING:  cpu time      0.2852: real time      0.2867
    --------------------------------------------
      LOOP:  cpu time    229.2150: real time    230.2697

 eigenvalue-minimisations  :   214
 total energy-change (2. order) : 0.2099319E+00  (-0.7590054E-03)
 number of electron      35.0000002 magnetization       2.0860004
 augmentation part        0.9248665 magnetization       1.1623171

 Broyden mixing:
  rms(total) = 0.86240E-02    rms(broyden)= 0.86228E-02
  rms(prec ) = 0.86809E-02
  weight for this iteration     100.00

 eigenvalues of (default mixing * dielectric matrix)
  average eigenvalue GAMMA=   2.1882
 11.5265  6.6564  3.0178  3.0178  2.4040  1.3166  1.1901  1.1901  1.1247  1.0453
  0.7783  0.7783  0.7048  0.6923  0.6249  0.6249  0.5063

 Free energy of the ion-electron system (eV)
  ---------------------------------------------------
  alpha Z        PSCENC =         0.09102512
  Ewald energy   TEWEN  =      3132.37418968
  -Hartree energ DENC   =     -3962.60182216
  -exchange      EXHF   =         0.00000000
  -V(xc)+E(xc)   XCENC  =       144.04287340
  PAW double counting   =      3236.37252727    -3252.59591937
  entropy T*S    EENTRO =        -0.00000000
  eigenvalues    EBANDS =      -497.78174100
  atomic energy  EATOM  =      1234.83038864
  Solvation  Ediel_sol  =      -124.14835603
  ---------------------------------------------------
  free energy    TOTEN  =       -89.41683446 eV

  energy without entropy =      -89.41683446  energy(sigma->0) =      -89.41683446


--------------------------------------------------------------------------------------------------------




--------------------------------------- Iteration      1(  19)  ---------------------------------------


    POTLOK:  cpu time    111.9417: real time    112.4651
    SETDIJ:  cpu time      0.3040: real time      0.3050
    EDDIAG:  cpu time     10.5712: real time     10.6185
  RMM-DIIS:  cpu time     80.4297: real time     80.7823
    ORTHCH:  cpu time      0.0831: real time      0.0836
       DOS:  cpu time      0.0007: real time      0.0007
    CHARGE:  cpu time     26.9367: real time     27.0584
    MIXING:  cpu time      0.2940: real time      0.2954
    --------------------------------------------
      LOOP:  cpu time    230.5611: real time    231.6091

 eigenvalue-minimisations  :   214
 total energy-change (2. order) : 0.3643919E+00  (-0.1953121E-03)
 number of electron      35.0000002 magnetization       1.5434926
 augmentation part        0.9246595 magnetization       0.6201000

 Broyden mixing:
  rms(total) = 0.63213E-02    rms(broyden)= 0.63201E-02
  rms(prec ) = 0.63795E-02
  weight for this iteration     100.00

 eigenvalues of (default mixing * dielectric matrix)
  average eigenvalue GAMMA=   2.3802
 13.4487  8.0886  4.3076  2.6965  2.2969  1.7701  1.2135  1.2135  1.2519  0.8758
  0.8758  0.8936  0.7465  0.7465  0.6823  0.6241  0.6031  0.5083

 Free energy of the ion-electron system (eV)
  ---------------------------------------------------
  alpha Z        PSCENC =         0.09102512
  Ewald energy   TEWEN  =      3132.37418968
  -Hartree energ DENC   =     -3962.98820659
  -exchange      EXHF   =         0.00000000
  -V(xc)+E(xc)   XCENC  =       144.41179172
  PAW double counting   =      3236.85114056    -3253.07593602
  entropy T*S    EENTRO =        -0.00000000
  eigenvalues    EBANDS =      -497.76989430
  atomic energy  EATOM  =      1234.83038864
  Solvation  Ediel_sol  =      -123.77694139
  ---------------------------------------------------
  free energy    TOTEN  =       -89.05244258 eV

  energy without entropy =      -89.05244258  energy(sigma->0) =      -89.05244258


--------------------------------------------------------------------------------------------------------




--------------------------------------- Iteration      1(  20)  ---------------------------------------


    POTLOK:  cpu time    107.9074: real time    108.4197
    SETDIJ:  cpu time      0.3041: real time      0.3051
    EDDIAG:  cpu time     10.7272: real time     10.7763
  RMM-DIIS:  cpu time     80.5270: real time     80.8768
    ORTHCH:  cpu time      0.0829: real time      0.0834
       DOS:  cpu time      0.0005: real time      0.0005
    CHARGE:  cpu time     26.8556: real time     26.9771
    MIXING:  cpu time      0.2978: real time      0.2994
    --------------------------------------------
      LOOP:  cpu time    226.7026: real time    227.7383

 eigenvalue-minimisations  :   214
 total energy-change (2. order) : 0.1854232E+00  ( 0.1036294E-03)
 number of electron      35.0000002 magnetization       1.2514151
 augmentation part        0.9248550 magnetization       0.3281333

 Broyden mixing:
  rms(total) = 0.39271E-02    rms(broyden)= 0.39265E-02
  rms(prec ) = 0.39779E-02
  weight for this iteration     100.00

 eigenvalues of (default mixing * dielectric matrix)
  average eigenvalue GAMMA=   2.5537
 16.4193  8.8422  4.7557  2.5228  2.5228  2.1345  1.2143  1.2143  1.2332  1.1803
  0.8630  0.8630  0.8651  0.7399  0.7399  0.6702  0.6233  0.6069  0.5099

 Free energy of the ion-electron system (eV)
  ---------------------------------------------------
  alpha Z        PSCENC =         0.09102512
  Ewald energy   TEWEN  =      3132.37418968
  -Hartree energ DENC   =     -3963.15007861
  -exchange      EXHF   =         0.00000000
  -V(xc)+E(xc)   XCENC  =       144.59279844
  PAW double counting   =      3238.05055299    -3254.27293802
  entropy T*S    EENTRO =        -0.00000000
  eigenvalues    EBANDS =      -497.87255953
  atomic energy  EATOM  =      1234.83038864
  Solvation  Ediel_sol  =      -123.51039810
  ---------------------------------------------------
  free energy    TOTEN  =       -88.86701938 eV

  energy without entropy =      -88.86701938  energy(sigma->0) =      -88.86701938


--------------------------------------------------------------------------------------------------------




--------------------------------------- Iteration      1(  21)  ---------------------------------------


    POTLOK:  cpu time    107.8360: real time    108.3478
    SETDIJ:  cpu time      0.3036: real time      0.3047
    EDDIAG:  cpu time     10.7589: real time     10.8071
  RMM-DIIS:  cpu time     80.6800: real time     81.0307
    ORTHCH:  cpu time      0.0832: real time      0.0836
       DOS:  cpu time      0.0006: real time      0.0006
    CHARGE:  cpu time     26.9668: real time     27.0879
    MIXING:  cpu time      0.3136: real time      0.3151
    --------------------------------------------
      LOOP:  cpu time    226.9426: real time    227.9775

 eigenvalue-minimisations  :   214
 total energy-change (2. order) : 0.1114900E+00  ( 0.4527390E-03)
 number of electron      35.0000002 magnetization       1.0906422
 augmentation part        0.9248058 magnetization       0.1673165

 Broyden mixing:
  rms(total) = 0.22338E-02    rms(broyden)= 0.22335E-02
  rms(prec ) = 0.22758E-02
  weight for this iteration     100.00

 eigenvalues of (default mixing * dielectric matrix)
  average eigenvalue GAMMA=   2.7880
 21.0939  9.3451  5.1869  2.7361  2.7361  2.2113  1.5119  1.2131  1.2131  1.2273
  0.9386  0.8691  0.8691  0.7676  0.7215  0.7215  0.6551  0.6187  0.6132  0.5110

 Free energy of the ion-electron system (eV)
  ---------------------------------------------------
  alpha Z        PSCENC =         0.09102512
  Ewald energy   TEWEN  =      3132.37418968
  -Hartree energ DENC   =     -3963.43131661
  -exchange      EXHF   =         0.00000000
  -V(xc)+E(xc)   XCENC  =       144.70949564
  PAW double counting   =      3238.50786661    -3254.73044710
[...]
 number of electron      35.0000005 magnetization       0.9999194
 augmentation part        0.9343501 magnetization       0.0801525

 Broyden mixing:
  rms(total) = 0.22209E-02    rms(broyden)= 0.22169E-02
  rms(prec ) = 0.22445E-02
  weight for this iteration     100.00

 Free energy of the ion-electron system (eV)
  ---------------------------------------------------
  alpha Z        PSCENC =         0.09102512
  Ewald energy   TEWEN  =      3150.51025410
  -Hartree energ DENC   =     -3980.24094888
  -exchange      EXHF   =         0.00000000
  -V(xc)+E(xc)   XCENC  =       145.22427130
  PAW double counting   =      3301.63183456    -3317.88248142
  entropy T*S    EENTRO =        -0.00000000
  eigenvalues    EBANDS =      -499.07900747
  atomic energy  EATOM  =      1234.83038864
  Solvation  Ediel_sol  =      -123.75249877
  ---------------------------------------------------
  free energy    TOTEN  =       -88.66716282 eV

  energy without entropy =      -88.66716282  energy(sigma->0) =      -88.66716282


--------------------------------------------------------------------------------------------------------




--------------------------------------- Iteration     16(   2)  ---------------------------------------


    POTLOK:  cpu time    100.6685: real time    101.1466
    SETDIJ:  cpu time      0.3009: real time      0.3019
    EDDIAG:  cpu time     10.5584: real time     10.6050
  RMM-DIIS:  cpu time     59.9725: real time     60.2300
    ORTHCH:  cpu time      0.0853: real time      0.0858
       DOS:  cpu time      0.0003: real time      0.0003
    CHARGE:  cpu time     27.0003: real time     27.1203
    MIXING:  cpu time      0.1430: real time      0.1436
    --------------------------------------------
      LOOP:  cpu time    198.7292: real time    199.6336

 eigenvalue-minimisations  :   144
 total energy-change (2. order) :-0.1323042E-04  (-0.1348684E-04)
 number of electron      35.0000005 magnetization       0.9999235
 augmentation part        0.9343379 magnetization       0.0801466

 Broyden mixing:
  rms(total) = 0.12799E-02    rms(broyden)= 0.12794E-02
  rms(prec ) = 0.12955E-02
  weight for this iteration     100.00

 eigenvalues of (default mixing * dielectric matrix)
  average eigenvalue GAMMA=   0.9923
  0.9923

 Free energy of the ion-electron system (eV)
  ---------------------------------------------------
  alpha Z        PSCENC =         0.09102512
  Ewald energy   TEWEN  =      3150.51025410
  -Hartree energ DENC   =     -3980.25140125
  -exchange      EXHF   =         0.00000000
  -V(xc)+E(xc)   XCENC  =       145.22500663
  PAW double counting   =      3301.86869129    -3318.11941727
  entropy T*S    EENTRO =        -0.00000000
  eigenvalues    EBANDS =      -499.06901390
  atomic energy  EATOM  =      1234.83038864
  Solvation  Ediel_sol  =      -123.75270941
  ---------------------------------------------------
  free energy    TOTEN  =       -88.66717605 eV

  energy without entropy =      -88.66717605  energy(sigma->0) =      -88.66717605


--------------------------------------------------------------------------------------------------------




--------------------------------------- Iteration     16(   3)  ---------------------------------------


    POTLOK:  cpu time    104.4555: real time    104.9674
    SETDIJ:  cpu time      0.3021: real time      0.3031
    EDDIAG:  cpu time     10.6772: real time     10.7283
  RMM-DIIS:  cpu time     58.5281: real time     58.7835
    ORTHCH:  cpu time      0.0845: real time      0.0851
       DOS:  cpu time      0.0003: real time      0.0003
    --------------------------------------------
      LOOP:  cpu time    174.0477: real time    174.8676

 eigenvalue-minimisations  :   139
 total energy-change (2. order) :-0.2973192E-06  (-0.3764333E-05)
 number of electron      35.0000005 magnetization       0.9999235
 augmentation part        0.9343379 magnetization       0.0801466

 Free energy of the ion-electron system (eV)
  ---------------------------------------------------
  alpha Z        PSCENC =         0.09102512
  Ewald energy   TEWEN  =      3150.51025410
  -Hartree energ DENC   =     -3980.25462341
  -exchange      EXHF   =         0.00000000
  -V(xc)+E(xc)   XCENC  =       145.22480107
  PAW double counting   =      3302.01503226    -3318.26579287
  entropy T*S    EENTRO =        -0.00000000
  eigenvalues    EBANDS =      -499.06597622
  atomic energy  EATOM  =      1234.83038864
  Solvation  Ediel_sol  =      -123.75228504
  ---------------------------------------------------
  free energy    TOTEN  =       -88.66717634 eV

  energy without entropy =      -88.66717634  energy(sigma->0) =      -88.66717634


--------------------------------------------------------------------------------------------------------




 average (electrostatic) potential at core
  the test charge radii are     0.6991  0.7089  0.5201
  (the norm of the test charge is              1.0000)
       1 -61.9282       2 -61.7083       3 -61.8896       4 -61.7077       5 -61.9286
       6 -63.4066       7 -78.6573       8 -47.2314       9 -47.2283      10 -45.0819
      11 -44.8192      12 -44.8858      13 -44.8207      14 -45.0820
 
 
 
 E-fermi :  -6.4075     XC(G=0):  -0.0273     alpha+bet : -0.0137

 Fermi energy:        -6.4074651840

 spin component 1

 k-point     1 :       0.0000    0.0000    0.0000
  band No.  band energies     occupation 
      1     -26.1532      1.00000
      2     -23.0651      1.00000
      3     -20.5620      1.00000
      4     -20.0083      1.00000
      5     -16.8504      1.00000
      6     -16.7408      1.00000
      7     -14.5853      1.00000
      8     -14.3048      1.00000
      9     -13.2646      1.00000
     10     -11.8146      1.00000
     11     -11.6816      1.00000
     12     -11.4931      1.00000
     13     -11.4810      1.00000
     14      -9.8129      1.00000
     15      -9.4760      1.00000
     16      -9.2208      1.00000
     17      -7.6018      1.00000
     18      -6.6528      1.00000
     19      -1.7717      0.00000
     20      -1.7014      0.00000
     21      -0.0224      0.00000
     22       0.0412      0.00000
     23       0.0823      0.00000
     24       0.0837      0.00000
     25       0.0837      0.00000
     26       0.0871      0.00000
     27       0.0876      0.00000
     28       0.1421      0.00000
     29       0.1702      0.00000
     30       0.1732      0.00000
     31       0.1734      0.00000
     32       0.1778      0.00000
     33       0.1781      0.00000
     34       0.1809      0.00000
     35       0.1812      0.00000
     36       0.1818      0.00000
 Fermi energy:        -6.4074651840

 spin component 2

 k-point     1 :       0.0000    0.0000    0.0000
  band No.  band energies     occupation 
      1     -25.7479      1.00000
      2     -22.8261      1.00000
      3     -20.4523      1.00000
      4     -19.5797      1.00000
      5     -16.7855      1.00000
      6     -16.5320      1.00000
      7     -14.5395      1.00000
      8     -14.1635      1.00000
      9     -13.1290      1.00000
     10     -11.7326      1.00000
     11     -11.6157      1.00000
     12     -11.4737      1.00000
     13     -10.7593      1.00000
     14      -9.7704      1.00000
     15      -9.1850      1.00000
     16      -8.6833      1.00000
     17      -7.3214      1.00000
     18      -5.1297      0.00000
     19      -1.4418      0.00000
     20      -0.9456      0.00000
     21      -0.0212      0.00000
     22       0.0439      0.00000
     23       0.0804      0.00000
     24       0.0811      0.00000
     25       0.0813      0.00000
     26       0.0848      0.00000
     27       0.0853      0.00000
     28       0.1419      0.00000
     29       0.1700      0.00000
     30       0.1704      0.00000
     31       0.1713      0.00000
     32       0.1757      0.00000
     33       0.1759      0.00000
     34       0.1769      0.00000
     35       0.1787      0.00000
     36       0.1792      0.00000


--------------------------------------------------------------------------------------------------------


 soft charge-density along one line, spin component           1
         0         1         2         3         4         5         6         7         8         9
 total charge-density along one line
 
 soft charge-density along one line, spin component           2
         0         1         2         3         4         5         6         7         8         9
 total charge-density along one line
 
 pseudopotential strength for first ion, spin component:           1
 10.551  14.032   0.005  -0.000  -0.004  -0.013   0.000   0.005
 14.032  18.660   0.007  -0.000  -0.005  -0.017   0.000   0.006
  0.005   0.007  -4.424  -0.000  -0.003   8.583  -0.000   0.006
 -0.000  -0.000  -0.000  -4.386  -0.002  -0.000   8.505   0.003
 -0.004  -0.005  -0.003  -0.002  -4.439   0.006   0.003   8.608
 -0.013  -0.017   8.583  -0.000   0.006 -18.925   0.000  -0.008
  0.000   0.000  -0.000   8.505   0.003   0.000 -18.783  -0.005
  0.005   0.006   0.006   0.003   8.608  -0.008  -0.005 -18.962
 pseudopotential strength for first ion, spin component:           2
 10.468  13.919   0.005  -0.000  -0.003  -0.013   0.000   0.004
 13.919  18.508   0.006  -0.000  -0.004  -0.017   0.000   0.005
  0.005   0.006  -4.411   0.000  -0.003   8.557  -0.000   0.005
 -0.000  -0.000   0.000  -4.347  -0.002  -0.000   8.489   0.003
 -0.003  -0.004  -0.003  -0.002  -4.425   0.005   0.003   8.580
 -0.013  -0.017   8.557  -0.000   0.005 -18.868  -0.000  -0.006
  0.000   0.000  -0.000   8.489   0.003  -0.000 -18.822  -0.002
  0.004   0.005   0.005   0.003   8.580  -0.006  -0.002 -18.901
 total augmentation occupancy for first ion, spin component:           1
  8.684  -3.893   0.204   0.004   0.202   0.046   0.001   0.036
 -3.893   1.789  -0.166  -0.002  -0.116  -0.030  -0.000  -0.021
  0.204  -0.166   1.774  -0.001   0.012   0.167  -0.000  -0.005
  0.004  -0.002  -0.001   1.130   0.024  -0.000   0.072   0.003
  0.202  -0.116   0.012   0.024   1.915  -0.005   0.003   0.183
  0.046  -0.030   0.167  -0.000  -0.005   0.017  -0.000  -0.001
  0.001  -0.000  -0.000   0.072   0.003  -0.000   0.005   0.000
  0.036  -0.021  -0.005   0.003   0.183  -0.001   0.000   0.019
 total augmentation occupancy for first ion, spin component:           2
  0.179  -0.091   0.011  -0.001  -0.013   0.002  -0.000  -0.002
 -0.091   0.046  -0.009   0.000   0.011  -0.001   0.000   0.002
  0.011  -0.009   0.006   0.001   0.001   0.001   0.000  -0.000
 -0.001   0.000   0.001   0.281  -0.008   0.000   0.007  -0.000
 -0.013   0.011   0.001  -0.008   0.009  -0.000  -0.000   0.001
  0.002  -0.001   0.001   0.000  -0.000   0.000  -0.000  -0.000
 -0.000   0.000   0.000   0.007  -0.000  -0.000  -0.000   0.000
 -0.002   0.002  -0.000  -0.000   0.001  -0.000   0.000   0.000


------------------------ aborting loop because EDIFF is reached ----------------------------------------


    CHARGE:  cpu time      3.4680: real time      3.4836
    FORLOC:  cpu time      0.1641: real time      0.1648
    FORNL :  cpu time      3.9063: real time      3.9257
    STRESS:  cpu time    125.0062: real time    125.5960
    FORCOR:  cpu time      8.2027: real time      8.2390
    FORHAR:  cpu time      0.7604: real time      0.7637
    MIXING:  cpu time      0.1087: real time      0.1092
    OFIELD:  cpu time      0.0000: real time      0.0000

 ---------------------------------------------------------------------------------------------

         DFTD3 V3.0 Rev 1        
 Edisp (eV)   -0.10328

 E6    (eV) :    -0.0810
 E8    (eV) :    -0.0223
 % E8        : 21.58
    FORVDW:  cpu time      0.0040: real time      0.0041

  FORCE on cell =-STRESS in cart. coord.  units (eV):
  Direction    XX          YY          ZZ          XY          YZ          ZX
  --------------------------------------------------------------------------------------
  Alpha Z     0.09103     0.09103     0.09103
  Ewald    1942.18223  1427.84335  -219.51629    -0.01343    -0.00112    68.34561
  Hartree  1884.13569  1511.50224   584.60192    -0.00039    -0.00002    41.11507
  E(xc)    -131.57031  -131.52098  -133.43782     0.00006     0.00000     0.05581
  Local   -4151.32650 -3269.53124  -769.89066     0.01118     0.00087  -106.90761
  n-local   -51.49284   -52.75635   -46.13671    -0.00060     0.00035    -0.15708
  augment    -1.04907    -0.94304    -0.29523     0.00002     0.00000    -0.02533
  Kinetic   510.71978   516.77420   581.97017     0.00146     0.00009    -2.28786
  Fock        0.00000     0.00000     0.00000     0.00000     0.00000     0.00000
  vdW        -0.02982    -0.01580    -0.00003     0.00000     0.00000    -0.00097
  -------------------------------------------------------------------------------------
  Total       1.66018     1.44341    -2.61362     0.00000     0.00000     0.13764
  in kB       0.04156     0.03613    -0.06543     0.00000     0.00000     0.00345
  external pressure =        0.00 kB  Pullay stress =        0.00 kB


 VOLUME and BASIS-vectors are now :
 -----------------------------------------------------------------------------
  energy-cutoff  :      500.00
  volume of cell :    64000.00
      direct lattice vectors                 reciprocal lattice vectors
    40.000000000  0.000000000  0.000000000     0.025000000  0.000000000  0.000000000
     0.000000000 40.000000000  0.000000000     0.000000000  0.025000000  0.000000000
     0.000000000  0.000000000 40.000000000     0.000000000  0.000000000  0.025000000

  length of vectors
    40.000000000 40.000000000 40.000000000     0.025000000  0.025000000  0.025000000


 FORCES acting on ions
    electron-ion (+dipol)            ewald-force                    non-local-force                 convergence-correction
 -----------------------------------------------------------------------------------------------
   0.527E+02 0.172E+03 0.928E+00   -.507E+02 -.175E+03 -.840E+00   -.539E-01 0.308E+01 -.194E-01   -.394E-02 0.417E-03 0.143E-02
   -.115E+03 0.158E+03 -.390E+01   0.117E+03 -.160E+03 0.398E+01   -.134E+01 0.192E+01 -.473E-01   0.315E-02 0.847E-03 0.741E-03
   -.192E+03 0.111E-01 -.537E+01   0.195E+03 0.245E-02 0.543E+01   -.196E+01 0.339E-20 -.371E-01   0.127E-02 0.462E-06 -.728E-03
   -.115E+03 -.158E+03 -.390E+01   0.117E+03 0.160E+03 0.398E+01   -.134E+01 -.192E+01 -.473E-01   0.315E-02 -.846E-03 0.740E-03
   0.527E+02 -.172E+03 0.928E+00   -.507E+02 0.175E+03 -.840E+00   -.539E-01 -.308E+01 -.194E-01   -.394E-02 -.417E-03 0.143E-02
   0.422E+02 0.141E-03 0.892E+00   -.342E+02 -.645E-03 -.609E+00   -.569E+01 -.203E-19 -.201E+00   -.209E-02 0.130E-05 0.108E-02
   0.254E+03 -.343E-01 0.882E+01   -.257E+03 0.376E-02 -.883E+01   0.532E+01 0.542E-19 0.136E+00   -.548E-02 -.543E-06 -.473E-04
   0.705E+02 -.677E+02 0.268E+01   -.742E+02 0.740E+02 -.282E+01   0.427E+01 -.686E+01 0.170E+00   -.201E-03 -.908E-03 -.196E-04
   0.705E+02 0.677E+02 0.268E+01   -.742E+02 -.740E+02 -.282E+01   0.427E+01 0.686E+01 0.170E+00   -.201E-03 0.909E-03 -.196E-04
   0.343E+02 -.781E+02 0.818E+00   -.368E+02 0.836E+02 -.880E+00   0.314E+01 -.541E+01 0.827E-01   0.360E-04 -.162E-03 0.274E-03
   -.445E+02 -.715E+02 -.140E+01   0.478E+02 0.767E+02 0.151E+01   -.317E+01 -.536E+01 -.973E-01   0.340E-03 -.222E-03 0.112E-03
   -.836E+02 0.387E-02 -.196E+01   0.898E+02 -.256E-03 0.211E+01   -.627E+01 -.339E-20 -.137E+00   -.108E-03 0.173E-06 -.441E-03
   -.445E+02 0.715E+02 -.140E+01   0.478E+02 -.767E+02 0.151E+01   -.317E+01 0.536E+01 -.973E-01   0.340E-03 0.222E-03 0.112E-03
   0.343E+02 0.781E+02 0.818E+00   -.368E+02 -.836E+02 -.880E+00   0.314E+01 0.541E+01 0.827E-01   0.361E-04 0.161E-03 0.274E-03
 -----------------------------------------------------------------------------------------------
   0.289E+01 -.866E-02 0.617E-01   -.568E-13 -.284E-13 -.189E-14   -.290E+01 0.000E+00 -.614E-01   -.764E-02 0.178E-05 0.493E-02
 
 
 POSITION                                       TOTAL-FORCE (eV/Angst)
 -----------------------------------------------------------------------------------
     19.79911     18.76048     19.99855         0.000373      0.004379     -0.002781
     21.16879     18.77626     20.03930         0.018882     -0.005286     -0.002499
     21.86539     19.99996     20.05638         0.009904     -0.000000      0.004359
     21.16879     21.22370     20.03930         0.018882      0.005286     -0.002499
     19.79915     21.23952     19.99855         0.000373     -0.004379     -0.002781
     19.08558     20.00000     19.97328         0.003174     -0.000000     -0.002147
     17.76186     20.00004     19.92531         0.002123      0.000000      0.000910
     17.23870     20.86724     19.90449        -0.004307     -0.004204      0.002055
     17.23866     19.13284     19.90449        -0.004307      0.004204      0.002055
     19.24248     22.16743     19.98364        -0.008656      0.002282     -0.003089
     21.72061     22.15497     20.05626        -0.006122     -0.003769     -0.000276
     22.94790     19.99996     20.08059        -0.015541      0.000000      0.010059
     21.72057     17.84499     20.05626        -0.006122      0.003769     -0.000276
     19.24240     17.83257     19.98364        -0.008656     -0.002282     -0.003089
 -----------------------------------------------------------------------------------
    total drift:                               -0.018975     -0.008656      0.005207


--------------------------------------------------------------------------------------------------------



  FREE ENERGIE OF THE ION-ELECTRON SYSTEM (eV)
  ---------------------------------------------------
  free  energy   TOTEN  =       -88.77045433 eV

  energy  without entropy=      -88.77045433  energy(sigma->0) =      -88.77045433
 
 d Force = 0.4252233E-04[-0.409E-05, 0.891E-04]  d Energy = 0.2477377E-04 0.177E-04
 d Force =-0.2414840E+00[-0.242E+00,-0.241E+00]  d Ewald  =-0.2414840E+00-0.104E-07


--------------------------------------------------------------------------------------------------------


    POTLOK:  cpu time    100.8243: real time    101.2989


--------------------------------------------------------------------------------------------------------


 Conjugate gradient step on ions:
 trial-energy change:   -0.000025  1 .order   -0.000043   -0.000089    0.000004
  (g-gl).g = 0.163E-03      g.g   = 0.166E-03  gl.gl    = 0.252E-03
 g(Force)  = 0.166E-03   g(Stress)= 0.000E+00 ortho     = 0.606E-05
 gamma     =   0.64628
 trial     =   0.52523
 opt step  =   0.50221  (harmonic =   0.50221) maximal distance =0.00078871
 next E    =   -88.770472   (d E  =  -0.00004)


--------------------------------------------------------------------------------------------------------


  
 reached required accuracy - stopping structural energy minimisation
 writing wavefunctions
     LOOP+:  cpu time    812.0670: real time    817.0147
    4ORBIT:  cpu time      0.0000: real time      0.0000

 total amount of memory used by VASP MPI-rank0   989169. kBytes
=======================================================================

   base      :      30000. kBytes
   nonlr-proj:       1370. kBytes
   fftplans  :     192295. kBytes
   grid      :     734294. kBytes
   one-center:         12. kBytes
   wavefun   :      31198. kBytes
 
  
  
 General timing and accounting informations for this job:
 ========================================================
  
                  Total CPU time used (sec):    38937.656
                            User time (sec):    35843.042
                          System time (sec):     3094.613
                         Elapsed time (sec):    39123.154
  
                   Maximum memory used (kb):     6867816.
                   Average memory used (kb):          N/A
  
                          Minor page faults:    140166073
                          Major page faults:           34
                 Voluntary context switches:        10737
