
                                 *****************
                                 * O   R   C   A *
                                 *****************

                                            #,                                       
                                            ###                                      
                                            ####                                     
                                            #####                                    
                                            ######                                   
                                           ########,                                 
                                     ,,################,,,,,                         
                               ,,#################################,,                 
                          ,,##########################################,,             
                       ,#########################################, ''#####,          
                    ,#############################################,,   '####,        
                  ,##################################################,,,,####,       
                ,###########''''           ''''###############################       
              ,#####''   ,,,,##########,,,,          '''####'''          '####       
            ,##' ,,,,###########################,,,                        '##       
           ' ,,###''''                  '''############,,,                           
         ,,##''                                '''############,,,,        ,,,,,,###''
      ,#''                                            '''#######################'''  
     '                                                          ''''####''''         
             ,#######,   #######,   ,#######,      ##                                
            ,#'     '#,  ##    ##  ,#'     '#,    #''#        ,####,   ,####,        
            ##       ##  ##   ,#'  ##            #'  '#       #'       #'  '#        
            ##       ##  #######   ##           ,######,      #####,   #    #        
            '#,     ,#'  ##    ##  '#,     ,#' ,#      #,     #,   #   #,  ,#        
             '#######'   ##     ##  '#######'  #'      '#     '####' # '####'        



                #########################################################
                #                        -***-                          #
                #          Department of theory and spectroscopy        #
                #                                                       #
                #                      Frank Neese                      #
                #                                                       #
                #     Directorship, Architecture, Infrastructure        #
                #                    SHARK, DRIVERS                     #
                #        Core code/Algorithms in most modules           #
                #                                                       #
                #        Max Planck Institute fuer Kohlenforschung      #
                #                Kaiser Wilhelm Platz 1                 #
                #                 D-45470 Muelheim/Ruhr                 #
                #                      Germany                          #
                #                                                       #
                #                  All rights reserved                  #
                #                        -***-                          #
                #########################################################


                         Program Version 6.0.0  -   RELEASE  -


 With contributions from (in alphabetic order):
   Daniel Aravena         : Magnetic Suceptibility
   Michael Atanasov       : Ab Initio Ligand Field Theory (pilot matlab implementation)
   Alexander A. Auer      : GIAO ZORA, VPT2 properties, NMR spectrum
   Ute Becker             : All parallelization in ORCA, NUMFREQ, NUMCALC
   Giovanni Bistoni       : ED, misc. LED, open-shell LED, HFLD
   Martin Brehm           : Molecular dynamics
   Dmytro Bykov           : pre 5.0 version of the SCF Hessian
   Marcos Casanova-Páez   : Triplet and SCS-CIS(D). UHF-(DLPNO)-IP/EA/STEOM-CCSD. UHF-CVS-IP/STEOM-CCSD
   Vijay G. Chilkuri      : MRCI spin determinant printing, contributions to CSF-ICE
   Pauline Colinet        : FMM embedding
   Dipayan Datta          : RHF DLPNO-CCSD density
   Achintya Kumar Dutta   : EOM-CC, STEOM-CC
   Nicolas Foglia         : Exact transition moments, OPA infrastructure, MCD improvements
   Dmitry Ganyushin       : Spin-Orbit,Spin-Spin,Magnetic field MRCI
   Miquel Garcia          : C-PCM and meta-GGA Hessian, CCSD/C-PCM, Gaussian charge scheme
   Tiago L. C. Gouveia    : GS-ROHF, GS-ROCIS
   Yang Guo               : DLPNO-NEVPT2, F12-NEVPT2, CIM, IAO-localization
   Andreas Hansen         : Spin unrestricted coupled pair/coupled cluster methods
   Ingolf Harden          : AUTO-CI MPn and infrastructure 
   Benjamin Helmich-Paris : MC-RPA, TRAH-(SCF,CASSCF), AVAS, COSX integrals, SCF dyn. polar.
   Lee Huntington         : MR-EOM, pCC
   Robert Izsak           : Overlap fitted RIJCOSX, COSX-SCS-MP3, EOM
   Riya Kayal             : Wick's Theorem for AUTO-CI, AUTO-CI UHF-CCSDT
   Emily Kempfer          : AUTO-CI, RHF CISDT and CCSDT
   Christian Kollmar      : KDIIS, OOCD, Brueckner-CCSD(T), CCSD density, CASPT2, CASPT2-K, improved NEVPT2
   Axel Koslowski         : Symmetry handling
   Simone Kossmann        : Meta GGA functionals, TD-DFT gradient, OOMP2, (MP2 Hessian; deprecated post 5.0)
   Lucas Lang             : DCDCAS
   Marvin Lechner         : AUTO-CI (C++ implementation), FIC-MRCC
   Spencer Leger          : CASSCF response
   Dagmar Lenk            : GEPOL surface, SMD, ORCA-2-JSON
   Dimitrios Liakos       : Extrapolation schemes; Compound Job, initial MDCI parallelization
   Dimitrios Manganas     : Further ROCIS development; embedding schemes. LFT, Crystal Embedding
   Dimitrios Pantazis     : SARC Basis sets
   Anastasios Papadopoulos: AUTO-CI, single reference methods and gradients
   Taras Petrenko         : pre 6.0 DFT Hessian and TD-DFT gradient, (ASA, deprecated), ECA, 1-Electron XAS/XES, NRVS
   Peter Pinski           : DLPNO-MP2, DLPNO-MP2 Gradient
   Christoph Reimann      : Effective Core Potentials
   Marius Retegan         : Local ZFS, SOC
   Christoph Riplinger    : Optimizer, TS searches, QM/MM, DLPNO-CCSD(T), (RO)-DLPNO pert. Triples
   Michael Roemelt        : Original ROCIS implementation
   Masaaki Saitow         : Open-shell DLPNO-CCSD energy and density
   Barbara Sandhoefer     : DKH picture change effects
   Kantharuban Sivalingam : CASSCF convergence/infrastructure, NEVPT2 and variants, FIC-MRCI
   Bernardo de Souza      : ESD, SOC TD-DFT
   Georgi Stoychev        : AutoAux, RI-MP2 NMR, DLPNO-MP2 response, X2C
   Van Anh Tran           : RI-MP2 g-tensors
   Willem Van den Heuvel  : Paramagnetic NMR
   Zikuan Wang            : NOTCH, Electric field optimization 
   Frank Wennmohs         : Technical directorship and infrastructure
   Hang Xu                : AUTO-CI-Response properties 


 We gratefully acknowledge several colleagues who have allowed us to
 interface, adapt or use parts of their codes:
   Stefan Grimme, W. Hujo, H. Kruse, P. Pracht,  : VdW corrections, initial TS optimization,
                  C. Bannwarth, S. Ehlert,         DFT functionals, gCP, sTDA/sTD-DF
                  L. Wittmann, M. Mueller
   Ed Valeev, F. Pavosevic, A. Kumar             : LibInt (2-el integral package), F12 methods
   Garnet Chan, S. Sharma, J. Yang, R. Olivares  : DMRG
   Ulf Ekstrom                                   : XCFun DFT Library
   Mihaly Kallay                                 : mrcc  (arbitrary order and MRCC methods)
   Frank Weinhold                                : gennbo (NPA and NBO analysis)
   Simon Mueller                                 : openCOSMO-RS
   Christopher J. Cramer and Donald G. Truhlar   : smd solvation model
   Lars Goerigk                                  : TD-DFT with DH, B97 family of functionals
   V. Asgeirsson, H. Jonsson                     : NEB implementation
   FAccTs GmbH                                   : IRC, NEB, NEB-TS, DLPNO-Multilevel, CI-OPT
                                                   MM, QMMM, 2- and 3-layer-ONIOM, Crystal-QMMM,
                                                   LR-CPCM, SF, NACMEs, symmetry and pop. for TD-DFT,
                                                   nearIR, NL-DFT gradient (VV10), updates on ESD,
                                                   ML-optimized integration grids, MBIS, APM,
                                                   GOAT, DOCKER, SOLVATOR, interface openCOSMO-RS
   S Lehtola, MJT Oliveira, MAL Marques          : LibXC Library
   Liviu Ungur et al                             : ANISO software


 Your calculation uses the libint2 library for the computation of 2-el integrals
 For citations please refer to: http://libint.valeyev.net

 Your ORCA version has been built with support for libXC version: 6.2.2
 For citations please refer to: https://libxc.gitlab.io

 This ORCA versions uses:
   CBLAS   interface :  Fast vector & matrix operations
   LAPACKE interface :  Fast linear algebra routines
   SCALAPACK package :  Parallel linear algebra routines
   Shared memory     :  Shared parallel matrices
   BLAS/LAPACK       :  OpenBLAS 0.3.27  USE64BITINT DYNAMIC_ARCH NO_AFFINITY Sandybridge SINGLE_THREADED
        Core in use  :  Sandybridge
   Copyright (c) 2011-2014, The OpenBLAS Project


NOTE: MaxCore=5000 MB was set to SCF,MP2,MDCI,CIPSI,MRCI and CIS
      => If you want to overwrite this, your respective input block should be placed after the MaxCore statement
Your calculation utilizes the atom-pairwise dispersion correction
with the Becke-Johnson damping scheme (D3BJ)


Your calculation utilizes the SMD solvation module
Please cite in your paper:
A.V. Marenich, C.J. Cramer, D.G. Truhlar J. Phys. Chem. B, 113, (2009), 6378 

Warning: RI is on but no J-basis has been assigned. Assigning Def2/J (nothing to worry about!)
================================================================================

----- Orbital basis set information -----
Your calculation utilizes the basis: def2-SV(P)
   F. Weigend and R. Ahlrichs, Phys. Chem. Chem. Phys. 7, 3297 (2005).

----- AuxJ basis set information -----
Your calculation utilizes the auxiliary basis: def2/J
   F. Weigend, Phys. Chem. Chem. Phys. 8, 1057 (2006).

================================================================================
                                        WARNINGS
                       Please study these warnings very carefully!
================================================================================


WARNING: your system is open-shell and RHF/RKS was chosen
  ===> : WILL SWITCH to UHF/UKS


================================================================================
                                       INPUT FILE
================================================================================
NAME = cs_rporg_140_ox_freq_03.inp
|  1> !PBE0 freq def2-SV(p) d3 TightSCF SlowConv RIJCOSX defgrid2
|  2> 
|  3> %pal
|  4> nprocs 12
|  5> end
|  6> 
|  7> %scf
|  8> MaxIter 1500
|  9> end
| 10> 
| 11> %maxcore 5000
| 12> 
| 13> !CPCM
| 14> %cpcm smd true
| 15> SMDsolvent "MeCN"
| 16> surfacetype gepol_ses
| 17> rsolv 2.19
| 18> end 
| 19> 
| 20> * xyz 1 2
| 21> C           0.95754470739541     -1.32189789267079      0.00156759341445
| 22> C           2.30668086272369     -1.05177329444134     -0.00204885035746
| 23> C           2.74835642092471      0.28687445358455     -0.00228734166262
| 24> C           1.83658782250486      1.36109131615935      0.00089143663716
| 25> C           0.48526291686463      1.10833693955532      0.00341205405267
| 26> C           0.02083358781704     -0.24596480661330      0.00361128488158
| 27> C          -1.35704921756010     -0.55374984794336      0.00352936744045
| 28> N          -2.23947863364352      0.42797844004526     -0.00064407869463
| 29> O          -3.46448031815371     -0.02724466096486     -0.00536320698577
| 30> H          -4.05879222945111      0.75997522712910     -0.00739434482383
| 31> H          -1.69966940746775     -1.59695770762662      0.00517152839865
| 32> H          -0.24228179455787      1.92231994731139      0.00573964445467
| 33> H           2.20754169753390      2.38851790575346      0.00079996656408
| 34> H           3.82198636247346      0.49526449399696     -0.00503750875427
| 35> H           3.03608872039141     -1.86491327155796     -0.00454474676270
| 36> H           0.58856140220496     -2.35048124171715      0.00278780219756
| 37> *
| 38> 
| 39>                          ****END OF INPUT****
================================================================================

                       ****************************
                       * Single Point Calculation *
                       ****************************

---------------------------------
CARTESIAN COORDINATES (ANGSTROEM)
---------------------------------
  C      0.957545   -1.321898    0.001568
  C      2.306681   -1.051773   -0.002049
  C      2.748356    0.286874   -0.002287
  C      1.836588    1.361091    0.000891
  C      0.485263    1.108337    0.003412
  C      0.020834   -0.245965    0.003611
  C     -1.357049   -0.553750    0.003529
  N     -2.239479    0.427978   -0.000644
  O     -3.464480   -0.027245   -0.005363
  H     -4.058792    0.759975   -0.007394
  H     -1.699669   -1.596958    0.005172
  H     -0.242282    1.922320    0.005740
  H      2.207542    2.388518    0.000800
  H      3.821986    0.495264   -0.005038
  H      3.036089   -1.864913   -0.004545
  H      0.588561   -2.350481    0.002788

----------------------------
CARTESIAN COORDINATES (A.U.)
----------------------------
  NO LB      ZA    FRAG     MASS         X           Y           Z
   0 C     6.0000    0    12.011    1.809497   -2.498025    0.002962
   1 C     6.0000    0    12.011    4.358995   -1.987563   -0.003872
   2 C     6.0000    0    12.011    5.193641    0.542114   -0.004322
   3 C     6.0000    0    12.011    3.470648    2.572090    0.001685
   4 C     6.0000    0    12.011    0.917014    2.094453    0.006448
   5 C     6.0000    0    12.011    0.039370   -0.464806    0.006824
   6 C     6.0000    0    12.011   -2.564451   -1.046436    0.006670
   7 N     7.0000    0    14.007   -4.232001    0.808762   -0.001217
   8 O     8.0000    0    15.999   -6.546919   -0.051485   -0.010135
   9 H     1.0000    0     1.008   -7.670006    1.436145   -0.013973
  10 H     1.0000    0     1.008   -3.211910   -3.017813    0.009773
  11 H     1.0000    0     1.008   -0.457846    3.632658    0.010846
  12 H     1.0000    0     1.008    4.171649    4.513645    0.001512
  13 H     1.0000    0     1.008    7.222508    0.935914   -0.009520
  14 H     1.0000    0     1.008    5.737376   -3.524175   -0.008588
  15 H     1.0000    0     1.008    1.112220   -4.441766    0.005268

--------------------------------
INTERNAL COORDINATES (ANGSTROEM)
--------------------------------
 C      0   0   0     0.000000000000     0.00000000     0.00000000
 C      1   0   0     1.375917418615     0.00000000     0.00000000
 C      2   1   0     1.409629436726   119.58186304     0.00000000
 C      3   2   1     1.408997498059   121.41624305     0.00000000
 C      4   3   2     1.374761844469   119.72960750   359.95684459
 C      1   2   3     1.426556659895   119.72097158     0.06579618
 C      6   1   2     1.411840169329   118.45115533   179.82519370
 N      7   6   1     1.320033909966   119.35898222   180.30113098
 O      8   7   6     1.306858626217   111.56574710   179.75103679
 H      9   8   7     0.986370075398   106.66570948   179.94820983
 H      7   6   1     1.098031843678   120.77341160     0.19686973
 H      5   4   3     1.091739466041   121.19643402   180.00967108
 H      4   3   2     1.092342520811   119.82394258   179.98931992
 H      3   2   1     1.093670527971   119.24424228   179.99203046
 H      2   1   3     1.092354646949   120.57105634   179.98874899
 H      1   2   3     1.092764326996   121.05654398   180.05833449

---------------------------
INTERNAL COORDINATES (A.U.)
---------------------------
 C      0   0   0     0.000000000000     0.00000000     0.00000000
 C      1   0   0     2.600107104074     0.00000000     0.00000000
 C      2   1   0     2.663813585726   119.58186304     0.00000000
 C      3   2   1     2.662619394711   121.41624305     0.00000000
 C      4   3   2     2.597923385411   119.72960750   359.95684459
 C      1   2   3     2.695801401722   119.72097158     0.06579618
 C      6   1   2     2.667991264901   118.45115533   179.82519370
 N      7   6   1     2.494502577324   119.35898222   180.30113098
 O      8   7   6     2.469604899303   111.56574710   179.75103679
 H      9   8   7     1.863969309198   106.66570948   179.94820983
 H      7   6   1     2.074979470875   120.77341160     0.19686973
 H      5   4   3     2.063088600411   121.19643402   180.00967108
 H      4   3   2     2.064228208769   119.82394258   179.98931992
 H      3   2   1     2.066737778606   119.24424228   179.99203046
 H      2   1   3     2.064251123850   120.57105634   179.98874899
 H      1   2   3     2.065025306940   121.05654398   180.05833449

---------------------
BASIS SET INFORMATION
---------------------
There are 4 groups of distinct atoms

 Group   1 Type C   : 7s4p1d contracted to 3s2p1d pattern {511/31/1}
 Group   2 Type N   : 7s4p1d contracted to 3s2p1d pattern {511/31/1}
 Group   3 Type O   : 7s4p1d contracted to 3s2p1d pattern {511/31/1}
 Group   4 Type H   : 4s contracted to 2s pattern {31}

Atom   0C    basis set group =>   1
Atom   1C    basis set group =>   1
Atom   2C    basis set group =>   1
Atom   3C    basis set group =>   1
Atom   4C    basis set group =>   1
Atom   5C    basis set group =>   1
Atom   6C    basis set group =>   1
Atom   7N    basis set group =>   2
Atom   8O    basis set group =>   3
Atom   9H    basis set group =>   4
Atom  10H    basis set group =>   4
Atom  11H    basis set group =>   4
Atom  12H    basis set group =>   4
Atom  13H    basis set group =>   4
Atom  14H    basis set group =>   4
Atom  15H    basis set group =>   4
---------------------------------
AUXILIARY/J BASIS SET INFORMATION
---------------------------------
There are 4 groups of distinct atoms

 Group   1 Type C   : 12s5p4d2f1g contracted to 6s4p3d1f1g pattern {711111/2111/211/2/1}
 Group   2 Type N   : 12s5p4d2f1g contracted to 6s4p3d1f1g pattern {711111/2111/211/2/1}
 Group   3 Type O   : 12s5p4d2f1g contracted to 6s4p3d1f1g pattern {711111/2111/211/2/1}
 Group   4 Type H   : 5s2p1d contracted to 3s1p1d pattern {311/2/1}

Atom   0C    basis set group =>   1
Atom   1C    basis set group =>   1
Atom   2C    basis set group =>   1
Atom   3C    basis set group =>   1
Atom   4C    basis set group =>   1
Atom   5C    basis set group =>   1
Atom   6C    basis set group =>   1
Atom   7N    basis set group =>   2
Atom   8O    basis set group =>   3
Atom   9H    basis set group =>   4
Atom  10H    basis set group =>   4
Atom  11H    basis set group =>   4
Atom  12H    basis set group =>   4
Atom  13H    basis set group =>   4
Atom  14H    basis set group =>   4
Atom  15H    basis set group =>   4


           ************************************************************
           *        Program running with 12 parallel MPI-processes    *
           *              working on a common directory               *
           ************************************************************
------------------------------------------------------------------------------
                             ORCA STARTUP CALCULATIONS
                           -- RI-GTO INTEGRALS CHOSEN --
------------------------------------------------------------------------------
------------------------------------------------------------------------------
                   ___                                                        
                  /   \      - P O W E R E D   B Y -                         
                 /     \                                                     
                 |  |  |   _    _      __       _____    __    __             
                 |  |  |  | |  | |    /  \     |  _  \  |  |  /  |          
                  \  \/   | |  | |   /    \    | | | |  |  | /  /          
                 / \  \   | |__| |  /  /\  \   | |_| |  |  |/  /          
                |  |  |   |  __  | /  /__\  \  |    /   |      \           
                |  |  |   | |  | | |   __   |  |    \   |  |\   \          
                \     /   | |  | | |  |  |  |  | |\  \  |  | \   \       
                 \___/    |_|  |_| |__|  |__|  |_| \__\ |__|  \__/        
                                                                              
                      - O R C A' S   B I G   F R I E N D -                    
                                      &                                       
                       - I N T E G R A L  F E E D E R -                       
                                                                              
 v1 FN, 2020, v2 2021, v3 2022-2024                                           
------------------------------------------------------------------------------


----------------------
SHARK INTEGRAL PACKAGE
----------------------

Number of atoms                             ...     16
Number of basis functions                   ...    140
Number of shells                            ...     68
Maximum angular momentum                    ...      2
Integral batch strategy                     ... SHARK/LIBINT Hybrid
RI-J (if used) integral strategy            ... SPLIT-RIJ (Revised 2003 algorithm where possible)
Printlevel                                  ...      1
Contraction scheme used                     ... SEGMENTED contraction
Prescreening option                         ... SCHWARTZ
   Thresh                                   ... 2.500e-11
   Tcut                                     ... 2.500e-12
   Tpresel                                  ... 2.500e-12 
Coulomb Range Separation                    ... NOT USED
Exchange Range Separation                   ... NOT USED
Multipole approximations                    ... NOT USED
Finite Nucleus Model                        ... NOT USED
CABS basis                                  ... NOT available
Auxiliary Coulomb fitting basis             ... AVAILABLE
   # of basis functions in Aux-J            ...    518
   # of shells in Aux-J                     ...    170
   Maximum angular momentum in Aux-J        ...      4
Auxiliary J/K fitting basis                 ... NOT available
Auxiliary Correlation fitting basis         ... NOT available
Auxiliary 'external' fitting basis          ... NOT available

Checking pre-screening integrals            ... done (  0.1 sec) Dimension = 68
Check shell pair data                       ... done (  0.1 sec)
Shell pair information
Shell pair cut-off parameter TPreSel        ...   2.5e-12
Total number of shell pairs                 ...      2346
Shell pairs after pre-screening             ...      2169
Total number of primitive shell pairs       ...      9454
Primitive shell pairs kept                  ...      6270
          la=0 lb=0:    782 shell pairs
          la=1 lb=0:    701 shell pairs
          la=1 lb=1:    168 shell pairs
          la=2 lb=0:    326 shell pairs
          la=2 lb=1:    153 shell pairs
          la=2 lb=2:     39 shell pairs

Calculating one electron integrals          ... done (  0.0 sec)
Calculating RI/J V-Matrix + Cholesky decomp.... done (  0.1 sec)
Calculating Nuclear repulsion               ... done (  0.0 sec) ENN=    394.665114109719 Eh

Diagonalization of the overlap matrix:
Smallest eigenvalue                        ... 3.177e-04
Time for diagonalization                   ...    0.004 sec
Threshold for overlap eigenvalues          ... 1.000e-07
Number of eigenvalues below threshold      ... 0
Time for construction of square roots      ...    0.016 sec
Total time needed                          ...    0.082 sec

-------------------
DFT GRID GENERATION
-------------------

General Integration Accuracy     IntAcc      ... 4.388
Radial Grid Type                 RadialGrid  ... OptM3 with GC (2021)
Angular Grid (max. ang.)         AngularGrid ... 4 (Lebedev-302)
Angular grid pruning method      GridPruning ... 4 (adaptive)
Weight generation scheme         WeightScheme... mBecke (2022)
Basis function cutoff            BFCut       ... 1.0000e-11
Integration weight cutoff        WCut        ... 1.0000e-14
Partially contracted basis set               ... off
Rotationally invariant grid construction     ... off
Angular grids for H and He will be reduced by one unit

Total number of grid points                  ...    76827
Total number of batches                      ...     1208
Average number of points per batch           ...       63
Average number of grid points per atom       ...     4802

--------------------
COSX GRID GENERATION
--------------------

GRIDX 1
-------
General Integration Accuracy     IntAcc      ... 3.816
Radial Grid Type                 RadialGrid  ... OptM3 with GC (2021)
Angular Grid (max. ang.)         AngularGrid ... 1 (Lebedev-50)
Angular grid pruning method      GridPruning ... 4 (adaptive)
Weight generation scheme         WeightScheme... mBecke (2022)
Basis function cutoff            BFCut       ... 1.0000e-11
Integration weight cutoff        WCut        ... 1.0000e-14
Partially contracted basis set               ... on
Rotationally invariant grid construction     ... off
Angular grids for H and He will be reduced by one unit

Total number of grid points                  ...     9821
Total number of batches                      ...       84
Average number of points per batch           ...      116
Average number of grid points per atom       ...      614
UseSFitting                                  ... on

GRIDX 2
-------
General Integration Accuracy     IntAcc      ... 4.020
Radial Grid Type                 RadialGrid  ... OptM3 with GC (2021)
Angular Grid (max. ang.)         AngularGrid ... 2 (Lebedev-110)
Angular grid pruning method      GridPruning ... 4 (adaptive)
Weight generation scheme         WeightScheme... mBecke (2022)
Basis function cutoff            BFCut       ... 1.0000e-11
Integration weight cutoff        WCut        ... 1.0000e-14
Partially contracted basis set               ... on
Rotationally invariant grid construction     ... off
Angular grids for H and He will be reduced by one unit

Total number of grid points                  ...    21631
Total number of batches                      ...      176
Average number of points per batch           ...      122
Average number of grid points per atom       ...     1352
UseSFitting                                  ... on

GRIDX 3
-------
General Integration Accuracy     IntAcc      ... 4.338
Radial Grid Type                 RadialGrid  ... OptM3 with GC (2021)
Angular Grid (max. ang.)         AngularGrid ... 3 (Lebedev-194)
Angular grid pruning method      GridPruning ... 4 (adaptive)
Weight generation scheme         WeightScheme... mBecke (2022)
Basis function cutoff            BFCut       ... 1.0000e-11
Integration weight cutoff        WCut        ... 1.0000e-14
Partially contracted basis set               ... on
Rotationally invariant grid construction     ... off
Angular grids for H and He will be reduced by one unit

Total number of grid points                  ...    47557
Total number of batches                      ...      379
Average number of points per batch           ...      125
Average number of grid points per atom       ...     2972
UseSFitting                                  ... on
Initializing property integral containers    ... done (  0.2 sec)

SHARK setup successfully completed in   3.0 seconds

Maximum memory used throughout the entire STARTUP-calculation: 19.3 MB


           ************************************************************
           *        Program running with 12 parallel MPI-processes    *
           *              working on a common directory               *
           ************************************************************
-------------------------------------------------------------------------------
                                 ORCA GUESS
                   Start orbitals & Density for SCF / CASSCF
-------------------------------------------------------------------------------

------------
SCF SETTINGS
------------
Hamiltonian:
 Density Functional     Method          .... DFT(GTOs)
 Exchange Functional    Exchange        .... PBE
   PBE kappa parameter   XKappa         ....  0.804000
   PBE mue parameter    XMuePBE         ....  0.219520
 Correlation Functional Correlation     .... PBE
   PBE beta parameter  CBetaPBE         ....  0.066725
 LDA part of GGA corr.  LDAOpt          .... PW91-LDA
 Gradients option       PostSCFGGA      .... off
 Hybrid DFT is turned on
   Fraction HF Exchange ScalHFX         ....  0.250000
   Scaling of DF-GGA-X  ScalDFX         ....  0.750000
   Scaling of DF-GGA-C  ScalDFC         ....  1.000000
   Scaling of DF-LDA-C  ScalLDAC        ....  1.000000
   Perturbative correction              ....  0.000000
   NL short-range parameter             ....  6.900000
 RI-approximation to the Coulomb term is turned on
   Number of AuxJ basis functions       .... 518
   RIJ-COSX (HFX calculated with COS-X)).... on


General Settings:
 Integral files         IntName         .... cs_rporg_140_ox_freq_03
 Hartree-Fock type      HFTyp           .... UHF
 Total Charge           Charge          ....    1
 Multiplicity           Mult            ....    2
 Number of Electrons    NEL             ....   63
 Basis Dimension        Dim             ....  140
 Nuclear Repulsion      ENuc            ....    394.6651141097 Eh

Convergence Acceleration:
 AO-DIIS                CNVDIIS         .... on
   Start iteration      DIISMaxIt       ....     0
   Startup error        DIISStart       ....  0.200000
   # of expansion vecs  DIISMaxEq       ....     5
   Bias factor          DIISBfac        ....   1.050
   Max. coefficient     DIISMaxC        ....  10.000
 MO-DIIS                CNVKDIIS        .... off
 Trust-Rad. Augm. Hess. CNVTRAH         .... auto
   Auto Start mean grad. ratio tolernc. ....  1.125000
   Auto Start start iteration           ....    50
   Auto Start num. interpolation iter.  ....    10
   Max. Number of Micro iterations      ....    24
   Max. Number of Macro iterations      .... Maxiter - #DIIS iter
   Number of Davidson start vectors     ....     2
   Converg. threshold    (grad. norm)   ....   1.000e-05
   Grad. Scal. Fac. for Micro threshold ....   0.100
   Minimum threshold for Micro iter.    ....   1.000e-02
   NR start threshold (gradient norm)   ....   1.000e-04
   Initial trust radius                 ....   0.400
   Minimum AH scaling param. (alpha)    ....   1.000
   Maximum AH scaling param. (alpha)    .... 1000.000
   Quad. conv. algorithm                .... NR
   White noise on init. David. guess    .... on
   Maximum white noise                  ....   0.010
   Pseudo random numbers                .... off
   Inactive MOs                         .... canonical
   Orbital update algorithm             .... Taylor
   Preconditioner                       .... Diag
   Full preconditioner red. dimension   ....   250
 SOSCF                  CNVSOSCF        .... on
   Start iteration      SOSCFMaxIt      ....   150
   Startup grad/error   SOSCFStart      ....  0.001000
   Hessian update       SOSCFHessUp     .... L-BFGS
 Level Shifting         CNVShift        .... on
   Level shift para.    LevelShift      ....    0.2500
   Turn off err/grad.   ShiftErr        ....    0.0000
 Zerner damping         CNVZerner       .... off
 Static damping         CNVDamp         .... on
   Fraction old density DampFac         ....    0.8500
   Max. Damping (<1)    DampMax         ....    0.9800
   Min. Damping (>=0)   DampMin         ....    0.0000
   Turn off err/grad.   DampErr         ....    0.0300

SCF Procedure:
 Maximum # iterations   MaxIter         ....  1500
 SCF integral mode      SCFMode         .... Direct
   Integral package                     .... SHARK and LIBINT hybrid scheme
 Reset frequency        DirectResetFreq ....    20
 Integral Threshold     Thresh          ....  2.500e-11 Eh
 Primitive CutOff       TCut            ....  2.500e-12 Eh

Convergence Tolerance:
 Convergence Check Mode ConvCheckMode   .... Total+1el-Energy
 Convergence forced     ConvForced      .... 0
 Energy Change          TolE            ....  1.000e-08 Eh
 1-El. energy change                    ....  1.000e-05 Eh
 Orbital Gradient       TolG            ....  1.000e-05
 Orbital Rotation angle TolX            ....  1.000e-05
 DIIS Error             TolErr          ....  5.000e-07

------------------------------
INITIAL GUESS: MODEL POTENTIAL
------------------------------
Loading Hartree-Fock densities                     ... done
Calculating cut-offs                               ... done
Initializing the effective Hamiltonian             ... done
Setting up the integral package (SHARK)            ... done
Starting the Coulomb interaction                   ... done (   0.2 sec)
Making the grid                                    ... done (   0.3 sec)
Mapping shells                                     ... done
Starting the XC term evaluation                    ... done (   1.0 sec)
  promolecular density results
     # of electrons  =     63.993313355
     EX              =    -52.513461968
     EC              =     -2.121871365
     EX+EC           =    -54.635333333
Transforming the Hamiltonian                       ... done (   0.1 sec)
Diagonalizing the Hamiltonian                      ... done (   0.0 sec)
Back transforming the eigenvectors                 ... done (   0.2 sec)
Now organizing SCF variables                       ... done
                      ------------------
                      INITIAL GUESS DONE (   2.9 sec)
                      ------------------
             **** ENERGY FILE WAS UPDATED (cs_rporg_140_ox_freq_03.en.tmp) ****
Finished Guess after   5.7 sec
Maximum memory used throughout the entire GUESS-calculation: 10.6 MB


           ************************************************************
           *        Program running with 12 parallel MPI-processes    *
           *              working on a common directory               *
           ************************************************************

-------------------------------------------------------------------------------------------
                                      ORCA LEAN-SCF
                              memory conserving SCF solver
-------------------------------------------------------------------------------------------

--------------------
CPCM SOLVATION MODEL
--------------------
CPCM parameters:
  Epsilon                                         ...      35.6880
  Refrac                                          ...       1.3442
  Rsolv                                           ...       2.1900
  Surface type                                    ...    GEPOL SES
  Discretization scheme                           ... Constant num. charges
  Epsilon function type                           ...         CPCM
Solvent:                                          ... ACETONITRILE
SMD-CDS solvent descriptors:
  Soln                                            ...       1.3442
  Soln25                                          ...       1.3416
  Sola                                            ...       0.0700
  Solb                                            ...       0.3200
  Solg                                            ...      41.2500
  Solc                                            ...       0.0000
  Solh                                            ...       0.0000
Radii:
  Scheme                                          ... Element-dependent radii
  Radius for C  used is    3.4960 Bohr (=   1.8500 Ang.)
  Radius for N  used is    3.5716 Bohr (=   1.8900 Ang.)
  Radius for O  used is    4.0969 Bohr (=   2.1680 Ang.)
  Radius for H  used is    2.2677 Bohr (=   1.2000 Ang.)
Calculating surface                               ...        done! (  0.0s)
Cavity surface points                             ...          499
Cavity Volume                                     ...    1000.6985
Cavity Surface-area                               ...     580.7964
Calculating surface distance matrix               ...        done! (  0.0s)
Performing Cholesky decomposition & store         ...        done! (  0.0s)
Overall time for CPCM initialization              ...                 0.1s

----------------------------------------D-I-I-S--------------------------------------------
Iteration    Energy (Eh)           Delta-E    RMSDP     MaxDP     DIISErr   Damp  Time(sec)
-------------------------------------------------------------------------------------------
               ***  Starting incremental Fock matrix formation  ***
    1    -399.7919078117633376     0.00e+00  6.64e-04  1.12e-02  4.74e-02  0.850   6.8
Warning: op=1 Small HOMO/LUMO gap (   0.048) - skipping pre-diagonalization
         Will do a full diagonalization
    2    -399.8122252595759960    -2.03e-02  6.61e-04  1.04e-02  3.78e-02  0.850   7.5
                               ***Turning on AO-DIIS***
    3    -399.8273846167497254    -1.52e-02  4.44e-04  5.49e-03  2.79e-02  0.850   8.8
    4    -399.8378723463300162    -1.05e-02  2.29e-03  2.87e-02  2.25e-02  0.000   7.3
    5    -399.8828856918506176    -4.50e-02  2.59e-04  5.88e-03  4.71e-03  0.000   7.4
    6    -399.8836072370983743    -7.22e-04  1.17e-04  3.61e-03  3.97e-03  0.000   6.8
    7    -399.8838027150022185    -1.95e-04  9.34e-05  3.58e-03  3.14e-03  0.000   6.0
    8    -399.8839278464080849    -1.25e-04  6.45e-05  2.57e-03  1.50e-03  0.000   7.5
                              *** Initializing SOSCF ***
---------------------------------------S-O-S-C-F--------------------------------------
Iteration    Energy (Eh)           Delta-E    RMSDP     MaxDP     MaxGrad    Time(sec)
--------------------------------------------------------------------------------------
    9    -399.8839872670254749    -5.94e-05  4.90e-05  1.82e-03  9.27e-04     9.1
               *** Restarting incremental Fock matrix formation ***
   10    -399.8841068748608336    -1.20e-04  3.87e-05  1.23e-03  7.82e-04     4.5
   11    -399.8841188104818798    -1.19e-05  6.25e-05  2.05e-03  5.52e-04     5.6
   12    -399.8841215964415028    -2.79e-06  2.31e-05  5.04e-04  6.57e-04     5.3
   13    -399.8841255770472003    -3.98e-06  5.41e-06  1.36e-04  5.39e-05     6.6
   14    -399.8841256211499626    -4.41e-08  2.94e-06  8.87e-05  7.82e-05     5.1
   15    -399.8841257322526985    -1.11e-07  1.57e-06  5.08e-05  1.84e-05     5.0
   16    -399.8841257380518641    -5.80e-09  9.28e-07  2.97e-05  1.46e-05     5.1
                 **** Energy Check signals convergence ****

               *****************************************************
               *                     SUCCESS                       *
               *           SCF CONVERGED AFTER  16 CYCLES          *
               *****************************************************

Recomputing exchange energy using gridx3       ... done (    1.097 sec)
Old exchange energy                            :    -13.280245704 Eh
New exchange energy                            :    -13.280266581 Eh
Exchange energy change after final integration :     -0.000020877 Eh
Total energy after final integration           :   -399.884146615 Eh

SMD CDS free energy correction energy :                -1.30378     Kcal/mol
Total Energy after SMD CDS correction =              -399.886224326 Eh
             **** ENERGY FILE WAS UPDATED (cs_rporg_140_ox_freq_03.en.tmp) ****

----------------
TOTAL SCF ENERGY
----------------

Total Energy       :       -399.88622432613118 Eh          -10881.45737 eV

Components:
Nuclear Repulsion  :        394.66511410971924 Eh           10739.38373 eV
Electronic Energy  :       -794.46507460110558 Eh          -21618.49374 eV
One Electron Energy:      -1311.09983630032411 Eh          -35676.84032 eV
Two Electron Energy:        516.63476169921853 Eh           14058.34658 eV
CPCM Dielectric    :         -0.08416524666552 Eh              -2.29025 eV
SMD CDS (Gcds)     :         -0.00207771146097 Eh              -0.05654 eV

Virial components:
Potential Energy   :       -796.39728456277749 Eh          -21671.07185 eV
Kinetic Energy     :        396.51106023664636 Eh           10789.61448 eV
Virial Ratio       :          2.00851215622452

DFT components:
N(Alpha)           :       31.999972708074 electrons
N(Beta)            :       30.999974505395 electrons
N(Total)           :       62.999947213469 electrons
E(X)               :      -39.782515150346 Eh       
E(C)               :       -2.096967811259 Eh       
E(XC)              :      -41.879482961605 Eh       

CPCM Solvation Model Properties:
Surface-charge          :         -1.02130543978113
Corrected charge        :         -1.00000000000000
Outlying charge corr.   :          0.00003277791319 Eh               0.00089 eV
Free-energy (cav+disp)  :         -0.00207771146097 Eh              -0.05654 eV

---------------
SCF CONVERGENCE
---------------

  Last Energy change         ...    5.7992e-09  Tolerance :   1.0000e-08
  Last MAX-Density change    ...    2.9717e-05  Tolerance :   1.0000e-07
  Last RMS-Density change    ...    9.2839e-07  Tolerance :   5.0000e-09
  Last DIIS Error            ...    9.2721e-04  Tolerance :   5.0000e-07
  Last Orbital Gradient      ...    1.4560e-05  Tolerance :   1.0000e-05
  Last Orbital Rotation      ...    6.1788e-05  Tolerance :   1.0000e-05


----------------------
UHF SPIN CONTAMINATION
----------------------

Warning: in a DFT calculation there is little theoretical justification to 
         calculate <S**2> as in Hartree-Fock theory. We will do it anyways
         but you should keep in mind that the values have only limited relevance

Expectation value of <S**2>     :     0.778298
Ideal value S*(S+1) for S=0.5   :     0.750000
Deviation                       :     0.028298

----------------
ORBITAL ENERGIES
----------------
                 SPIN UP ORBITALS
  NO   OCC          E(Eh)            E(eV) 
   0   1.0000     -19.341099      -526.2981 
   1   1.0000     -14.522392      -395.1744 
   2   1.0000     -10.329841      -281.0893 
   3   1.0000     -10.314051      -280.6596 
   4   1.0000     -10.297998      -280.2228 
   5   1.0000     -10.289186      -279.9830 
   6   1.0000     -10.288318      -279.9594 
   7   1.0000     -10.274704      -279.5889 
   8   1.0000     -10.272780      -279.5366 
   9   1.0000      -1.224463       -33.3193 
  10   1.0000      -0.958518       -26.0826 
  11   1.0000      -0.915367       -24.9084 
  12   1.0000      -0.823110       -22.3980 
  13   1.0000      -0.809361       -22.0238 
  14   1.0000      -0.715089       -19.4586 
  15   1.0000      -0.669402       -18.2154 
  16   1.0000      -0.638915       -17.3858 
  17   1.0000      -0.605502       -16.4765 
  18   1.0000      -0.580007       -15.7828 
  19   1.0000      -0.542516       -14.7626 
  20   1.0000      -0.539081       -14.6691 
  21   1.0000      -0.512989       -13.9591 
  22   1.0000      -0.493689       -13.4340 
  23   1.0000      -0.475868       -12.9490 
  24   1.0000      -0.470588       -12.8054 
  25   1.0000      -0.444542       -12.0966 
  26   1.0000      -0.406479       -11.0609 
  27   1.0000      -0.394555       -10.7364 
  28   1.0000      -0.371297       -10.1035 
  29   1.0000      -0.354193        -9.6381 
  30   1.0000      -0.313785        -8.5385 
  31   1.0000      -0.299726        -8.1559 
  32   0.0000      -0.112003        -3.0478 
  33   0.0000      -0.040544        -1.1033 
  34   0.0000      -0.002520        -0.0686 
  35   0.0000       0.053899         1.4667 
  36   0.0000       0.071982         1.9587 
  37   0.0000       0.090786         2.4704 
  38   0.0000       0.119575         3.2538 
  39   0.0000       0.122900         3.3443 
  40   0.0000       0.130548         3.5524 
  41   0.0000       0.146540         3.9876 
  42   0.0000       0.167907         4.5690 

                 SPIN DOWN ORBITALS
  NO   OCC          E(Eh)            E(eV) 
   0   1.0000     -19.334105      -526.1077 
   1   1.0000     -14.515006      -394.9734 
   2   1.0000     -10.330369      -281.1036 
   3   1.0000     -10.311325      -280.5854 
   4   1.0000     -10.293518      -280.1009 
   5   1.0000     -10.287296      -279.9315 
   6   1.0000     -10.287059      -279.9251 
   7   1.0000     -10.275399      -279.6078 
   8   1.0000     -10.273879      -279.5665 
   9   1.0000      -1.210214       -32.9316 
  10   1.0000      -0.947871       -25.7929 
  11   1.0000      -0.906052       -24.6549 
  12   1.0000      -0.814067       -22.1519 
  13   1.0000      -0.806641       -21.9498 
  14   1.0000      -0.709732       -19.3128 
  15   1.0000      -0.666191       -18.1280 
  16   1.0000      -0.634173       -17.2567 
  17   1.0000      -0.599637       -16.3170 
  18   1.0000      -0.576986       -15.7006 
  19   1.0000      -0.538595       -14.6559 
  20   1.0000      -0.510515       -13.8918 
  21   1.0000      -0.496665       -13.5149 
  22   1.0000      -0.491193       -13.3660 
  23   1.0000      -0.475213       -12.9312 
  24   1.0000      -0.468220       -12.7409 
  25   1.0000      -0.423631       -11.5276 
  26   1.0000      -0.405489       -11.0339 
  27   1.0000      -0.392561       -10.6821 
  28   1.0000      -0.346308        -9.4235 
  29   1.0000      -0.339190        -9.2298 
  30   1.0000      -0.309894        -8.4326 
  31   0.0000      -0.206622        -5.6225 
  32   0.0000      -0.078801        -2.1443 
  33   0.0000      -0.031270        -0.8509 
  34   0.0000       0.017907         0.4873 
  35   0.0000       0.056652         1.5416 
  36   0.0000       0.072822         1.9816 
  37   0.0000       0.091059         2.4778 
  38   0.0000       0.120866         3.2889 
  39   0.0000       0.132156         3.5961 
  40   0.0000       0.137085         3.7303 
  41   0.0000       0.149219         4.0605 
*Only the first 10 virtual orbitals were printed.

                    ********************************
                    * MULLIKEN POPULATION ANALYSIS *
                    ********************************

--------------------------------------------
MULLIKEN ATOMIC CHARGES AND SPIN POPULATIONS
--------------------------------------------
   0 C :   -0.054998    0.083732
   1 C :   -0.082484   -0.061388
   2 C :   -0.012423    0.313186
   3 C :   -0.084780   -0.092886
   4 C :   -0.047703    0.120715
   5 C :    0.039840    0.183185
   6 C :    0.028218   -0.048671
   7 N :    0.019979    0.321109
   8 O :   -0.262192    0.211354
   9 H :    0.419301   -0.008088
  10 H :    0.188519    0.000714
  11 H :    0.166569   -0.007082
  12 H :    0.165329    0.002803
  13 H :    0.179442   -0.015240
  14 H :    0.167043    0.001435
  15 H :    0.170340   -0.004880
Sum of atomic charges         :    1.0000000
Sum of atomic spin populations:    1.0000000

-----------------------------------------------------
MULLIKEN REDUCED ORBITAL CHARGES AND SPIN POPULATIONS
-----------------------------------------------------
CHARGE
  0 C s       :     3.259398  s :     3.259398
      pz      :     0.885434  p :     2.759332
      px      :     0.956479
      py      :     0.917419
      dz2     :     0.003397  d :     0.036267
      dxz     :     0.005918
      dyz     :     0.002444
      dx2y2   :     0.011305
      dxy     :     0.013203

  1 C s       :     3.220871  s :     3.220871
      pz      :     0.938335  p :     2.825524
      px      :     0.950249
      py      :     0.936940
      dz2     :     0.003327  d :     0.036089
      dxz     :     0.004187
      dyz     :     0.003254
      dx2y2   :     0.010907
      dxy     :     0.014413

  2 C s       :     3.226185  s :     3.226185
      pz      :     0.796445  p :     2.748733
      px      :     0.974409
      py      :     0.977879
      dz2     :     0.003311  d :     0.037505
      dxz     :     0.002565
      dyz     :     0.006368
      dx2y2   :     0.014251
      dxy     :     0.011010

  3 C s       :     3.219930  s :     3.219930
      pz      :     0.948698  p :     2.828798
      px      :     0.952698
      py      :     0.927403
      dz2     :     0.003333  d :     0.036052
      dxz     :     0.004562
      dyz     :     0.002797
      dx2y2   :     0.012716
      dxy     :     0.012644

  4 C s       :     3.260333  s :     3.260333
      pz      :     0.872649  p :     2.751114
      px      :     0.935454
      py      :     0.943011
      dz2     :     0.003384  d :     0.036256
      dxz     :     0.005153
      dyz     :     0.003245
      dx2y2   :     0.010296
      dxy     :     0.014177

  5 C s       :     3.015122  s :     3.015122
      pz      :     0.916023  p :     2.902274
      px      :     0.974632
      py      :     1.011620
      dz2     :     0.003154  d :     0.042764
      dxz     :     0.005276
      dyz     :     0.006818
      dx2y2   :     0.014411
      dxy     :     0.013105

  6 C s       :     3.231187  s :     3.231187
      pz      :     0.838178  p :     2.689651
      px      :     0.915948
      py      :     0.935525
      dz2     :     0.004350  d :     0.050943
      dxz     :     0.007485
      dyz     :     0.004957
      dx2y2   :     0.016576
      dxy     :     0.017575

  7 N s       :     3.612085  s :     3.612085
      pz      :     1.028979  p :     3.316994
      px      :     0.835248
      py      :     1.452768
      dz2     :     0.005844  d :     0.050942
      dxz     :     0.010660
      dyz     :     0.005151
      dx2y2   :     0.011982
      dxy     :     0.017306

  8 O s       :     3.804689  s :     3.804689
      pz      :     1.689705  p :     4.432704
      px      :     1.166664
      py      :     1.576335
      dz2     :     0.003565  d :     0.024798
      dxz     :     0.003236
      dyz     :     0.001479
      dx2y2   :     0.005311
      dxy     :     0.011207

  9 H s       :     0.580699  s :     0.580699

 10 H s       :     0.811481  s :     0.811481

 11 H s       :     0.833431  s :     0.833431

 12 H s       :     0.834671  s :     0.834671

 13 H s       :     0.820558  s :     0.820558

 14 H s       :     0.832957  s :     0.832957

 15 H s       :     0.829660  s :     0.829660


SPIN
  0 C s       :     0.006869  s :     0.006869
      pz      :     0.078484  p :     0.076493
      px      :     0.001683
      py      :    -0.003674
      dz2     :    -0.000293  d :     0.000369
      dxz     :     0.000210
      dyz     :     0.000489
      dx2y2   :    -0.000061
      dxy     :     0.000025

  1 C s       :    -0.013322  s :    -0.013322
      pz      :    -0.031433  p :    -0.050020
      px      :    -0.006366
      py      :    -0.012221
      dz2     :     0.000047  d :     0.001953
      dxz     :     0.000653
      dyz     :     0.001226
      dx2y2   :     0.000006
      dxy     :     0.000021

  2 C s       :     0.042308  s :     0.042308
      pz      :     0.251636  p :     0.271959
      px      :     0.011801
      py      :     0.008522
      dz2     :    -0.000863  d :    -0.001081
      dxz     :    -0.000079
      dyz     :    -0.000139
      dx2y2   :    -0.000002
      dxy     :     0.000003

  3 C s       :    -0.018499  s :    -0.018499
      pz      :    -0.054900  p :    -0.076635
      px      :    -0.010781
      py      :    -0.010953
      dz2     :     0.000118  d :     0.002248
      dxz     :     0.001638
      dyz     :     0.000464
      dx2y2   :    -0.000002
      dxy     :     0.000030

  4 C s       :     0.013892  s :     0.013892
      pz      :     0.107108  p :     0.106732
      px      :     0.003965
      py      :    -0.004341
      dz2     :    -0.000401  d :     0.000091
      dxz     :    -0.000351
      dyz     :     0.000870
      dx2y2   :     0.000004
      dxy     :    -0.000031

  5 C s       :     0.020718  s :     0.020718
      pz      :     0.158014  p :     0.161908
      px      :     0.003542
      py      :     0.000353
      dz2     :    -0.000534  d :     0.000559
      dxz     :     0.000375
      dyz     :     0.000654
      dx2y2   :    -0.000015
      dxy     :     0.000079

  6 C s       :    -0.007029  s :    -0.007029
      pz      :    -0.030320  p :    -0.046414
      px      :    -0.011220
      py      :    -0.004875
      dz2     :    -0.000044  d :     0.004772
      dxz     :     0.003208
      dyz     :     0.001689
      dx2y2   :    -0.000212
      dxy     :     0.000130

  7 N s       :     0.017573  s :     0.017573
      pz      :     0.302906  p :     0.302272
      px      :     0.000592
      py      :    -0.001226
      dz2     :    -0.000107  d :     0.001264
      dxz     :     0.000988
      dyz     :     0.000410
      dx2y2   :    -0.000065
      dxy     :     0.000037

  8 O s       :     0.005270  s :     0.005270
      pz      :     0.205995  p :     0.206120
      px      :    -0.001802
      py      :     0.001927
      dz2     :    -0.000102  d :    -0.000035
      dxz     :     0.000331
      dyz     :    -0.000145
      dx2y2   :    -0.000067
      dxy     :    -0.000052

  9 H s       :    -0.008088  s :    -0.008088

 10 H s       :     0.000714  s :     0.000714

 11 H s       :    -0.007082  s :    -0.007082

 12 H s       :     0.002803  s :     0.002803

 13 H s       :    -0.015240  s :    -0.015240

 14 H s       :     0.001435  s :     0.001435

 15 H s       :    -0.004880  s :    -0.004880



                     *******************************
                     * LOEWDIN POPULATION ANALYSIS *
                     *******************************

-------------------------------------------
LOEWDIN ATOMIC CHARGES AND SPIN POPULATIONS
-------------------------------------------
   0 C :   -0.042538    0.080923
   1 C :   -0.095799   -0.024685
   2 C :    0.007664    0.250715
   3 C :   -0.102515   -0.046884
   4 C :   -0.038735    0.109387
   5 C :   -0.000621    0.150783
   6 C :   -0.012434   -0.017245
   7 N :    0.043328    0.296823
   8 O :   -0.122852    0.218382
   9 H :    0.351593   -0.006137
  10 H :    0.167336   -0.000127
  11 H :    0.166682   -0.003717
  12 H :    0.167098    0.001298
  13 H :    0.171568   -0.007518
  14 H :    0.167898    0.000637
  15 H :    0.172328   -0.002635

----------------------------------------------------
LOEWDIN REDUCED ORBITAL CHARGES AND SPIN POPULATIONS
----------------------------------------------------
CHARGE
  0 C s       :     2.908147  s :     2.908147
      pz      :     0.885049  p :     3.045612
      px      :     1.080669
      py      :     1.079894
      dz2     :     0.007035  d :     0.088779
      dxz     :     0.011531
      dyz     :     0.003911
      dx2y2   :     0.030861
      dxy     :     0.035443

  1 C s       :     2.903040  s :     2.903040
      pz      :     0.932647  p :     3.103179
      px      :     1.090754
      py      :     1.079777
      dz2     :     0.007173  d :     0.089581
      dxz     :     0.007738
      dyz     :     0.005822
      dx2y2   :     0.031161
      dxy     :     0.037687

  2 C s       :     2.922405  s :     2.922405
      pz      :     0.790640  p :     2.980841
      px      :     1.102063
      py      :     1.088138
      dz2     :     0.006801  d :     0.089090
      dxz     :     0.003743
      dyz     :     0.012662
      dx2y2   :     0.036191
      dxy     :     0.029692

  3 C s       :     2.901619  s :     2.901619
      pz      :     0.941882  p :     3.111043
      px      :     1.082287
      py      :     1.086875
      dz2     :     0.007201  d :     0.089853
      dxz     :     0.009181
      dyz     :     0.004211
      dx2y2   :     0.034488
      dxy     :     0.034772

  4 C s       :     2.909056  s :     2.909056
      pz      :     0.873400  p :     3.041067
      px      :     1.102238
      py      :     1.065429
      dz2     :     0.007016  d :     0.088612
      dxz     :     0.009314
      dyz     :     0.006132
      dx2y2   :     0.029215
      dxy     :     0.036935

  5 C s       :     2.857308  s :     2.857308
      pz      :     0.887732  p :     3.033710
      px      :     1.056879
      py      :     1.089099
      dz2     :     0.007774  d :     0.109603
      dxz     :     0.009739
      dyz     :     0.013199
      dx2y2   :     0.040805
      dxy     :     0.038085

  6 C s       :     2.929326  s :     2.929326
      pz      :     0.840643  p :     2.962130
      px      :     1.047220
      py      :     1.074267
      dz2     :     0.009652  d :     0.120978
      dxz     :     0.014387
      dyz     :     0.007549
      dx2y2   :     0.043521
      dxy     :     0.045868

  7 N s       :     3.311202  s :     3.311202
      pz      :     1.018155  p :     3.545253
      px      :     0.972443
      py      :     1.554655
      dz2     :     0.011804  d :     0.100217
      dxz     :     0.019830
      dyz     :     0.005631
      dx2y2   :     0.025959
      dxy     :     0.036993

  8 O s       :     3.541802  s :     3.541802
      pz      :     1.678869  p :     4.538780
      px      :     1.239492
      py      :     1.620419
      dz2     :     0.005673  d :     0.042269
      dxz     :     0.004918
      dyz     :     0.001497
      dx2y2   :     0.009472
      dxy     :     0.020710

  9 H s       :     0.648407  s :     0.648407

 10 H s       :     0.832664  s :     0.832664

 11 H s       :     0.833318  s :     0.833318

 12 H s       :     0.832902  s :     0.832902

 13 H s       :     0.828432  s :     0.828432

 14 H s       :     0.832102  s :     0.832102

 15 H s       :     0.827672  s :     0.827672


SPIN
  0 C s       :     0.001964  s :     0.001964
      pz      :     0.077253  p :     0.077794
      px      :     0.000549
      py      :    -0.000007
      dz2     :    -0.000289  d :     0.001165
      dxz     :     0.000740
      dyz     :     0.000804
      dx2y2   :    -0.000148
      dxy     :     0.000057

  1 C s       :    -0.002258  s :    -0.002258
      pz      :    -0.021716  p :    -0.027251
      px      :    -0.001649
      py      :    -0.003886
      dz2     :     0.000106  d :     0.004824
      dxz     :     0.001797
      dyz     :     0.002496
      dx2y2   :     0.000260
      dxy     :     0.000165

  2 C s       :     0.009216  s :     0.009216
      pz      :     0.233958  p :     0.243902
      px      :     0.005401
      py      :     0.004544
      dz2     :    -0.000921  d :    -0.002404
      dxz     :    -0.000353
      dyz     :    -0.000631
      dx2y2   :    -0.000234
      dxy     :    -0.000265

  3 C s       :    -0.003141  s :    -0.003141
      pz      :    -0.042489  p :    -0.049188
      px      :    -0.003592
      py      :    -0.003106
      dz2     :     0.000189  d :     0.005445
      dxz     :     0.003716
      dyz     :     0.001043
      dx2y2   :     0.000186
      dxy     :     0.000312

  4 C s       :     0.003168  s :     0.003168
      pz      :     0.103928  p :     0.105722
      px      :     0.002129
      py      :    -0.000335
      dz2     :    -0.000408  d :     0.000498
      dxz     :    -0.000483
      dyz     :     0.001542
      dx2y2   :    -0.000033
      dxy     :    -0.000122

  5 C s       :     0.004067  s :     0.004067
      pz      :     0.142521  p :     0.144975
      px      :     0.002119
      py      :     0.000335
      dz2     :    -0.000550  d :     0.001740
      dxz     :     0.001126
      dyz     :     0.001189
      dx2y2   :    -0.000051
      dxy     :     0.000027

  6 C s       :    -0.002330  s :    -0.002330
      pz      :    -0.017760  p :    -0.024819
      px      :    -0.004132
      py      :    -0.002927
      dz2     :     0.000032  d :     0.009905
      dxz     :     0.006771
      dyz     :     0.002770
      dx2y2   :    -0.000210
      dxy     :     0.000541

  7 N s       :     0.008055  s :     0.008055
      pz      :     0.287115  p :     0.286005
      px      :     0.000219
      py      :    -0.001328
      dz2     :     0.000126  d :     0.002763
      dxz     :     0.002780
      dyz     :    -0.000015
      dx2y2   :    -0.000013
      dxy     :    -0.000114

  8 O s       :     0.004864  s :     0.004864
      pz      :     0.210447  p :     0.212197
      px      :     0.000341
      py      :     0.001408
      dz2     :    -0.000006  d :     0.001321
      dxz     :     0.001469
      dyz     :    -0.000035
      dx2y2   :    -0.000019
      dxy     :    -0.000088

  9 H s       :    -0.006137  s :    -0.006137

 10 H s       :    -0.000127  s :    -0.000127

 11 H s       :    -0.003717  s :    -0.003717

 12 H s       :     0.001298  s :     0.001298

 13 H s       :    -0.007518  s :    -0.007518

 14 H s       :     0.000637  s :     0.000637

 15 H s       :    -0.002635  s :    -0.002635



                      *****************************
                      * MAYER POPULATION ANALYSIS *
                      *****************************

  NA   - Mulliken gross atomic population
  ZA   - Total nuclear charge
  QA   - Mulliken gross atomic charge
  VA   - Mayer's total valence
  BVA  - Mayer's bonded valence
  FA   - Mayer's free valence

  ATOM       NA         ZA         QA         VA         BVA        FA
  0 C      6.0550     6.0000    -0.0550     3.7956     3.7890     0.0067
  1 C      6.0825     6.0000    -0.0825     3.8151     3.8136     0.0016
  2 C      6.0124     6.0000    -0.0124     3.7581     3.6934     0.0647
  3 C      6.0848     6.0000    -0.0848     3.8125     3.8089     0.0036
  4 C      6.0477     6.0000    -0.0477     3.7925     3.7804     0.0121
  5 C      5.9602     6.0000     0.0398     3.8408     3.8141     0.0266
  6 C      5.9718     6.0000     0.0282     3.8945     3.8918     0.0027
  7 N      6.9800     7.0000     0.0200     2.9667     2.8715     0.0952
  8 O      8.2622     8.0000    -0.2622     2.2296     2.1832     0.0464
  9 H      0.5807     1.0000     0.4193     0.8071     0.8070     0.0001
 10 H      0.8115     1.0000     0.1885     0.9607     0.9607     0.0000
 11 H      0.8334     1.0000     0.1666     0.9615     0.9614     0.0000
 12 H      0.8347     1.0000     0.1653     0.9427     0.9427     0.0000
 13 H      0.8206     1.0000     0.1794     0.9376     0.9373     0.0002
 14 H      0.8330     1.0000     0.1670     0.9418     0.9418     0.0000
 15 H      0.8297     1.0000     0.1703     0.9471     0.9471     0.0000

  Mayer bond orders larger than 0.100000
B(  0-C ,  1-C ) :   1.4796 B(  0-C ,  5-C ) :   1.2005 B(  0-C , 15-H ) :   0.9546 
B(  1-C ,  2-C ) :   1.2805 B(  1-C , 14-H ) :   0.9561 B(  2-C ,  3-C ) :   1.2811 
B(  2-C , 13-H ) :   0.9485 B(  3-C ,  4-C ) :   1.4832 B(  3-C , 12-H ) :   0.9573 
B(  4-C ,  5-C ) :   1.1827 B(  4-C , 11-H ) :   0.9471 B(  5-C ,  6-C ) :   1.3008 
B(  6-C ,  7-N ) :   1.5332 B(  6-C , 10-H ) :   0.9173 B(  7-N ,  8-O ) :   1.2118 
B(  8-O ,  9-H ) :   0.7889 

-------
TIMINGS
-------

Total SCF time: 0 days 0 hours 1 min 54 sec 

Total time                  ....     114.274 sec
Sum of individual times     ....     109.424 sec  ( 95.8%)

SCF preparation             ....       3.466 sec  (  3.0%)
Fock matrix formation       ....      64.414 sec  ( 56.4%)
  Startup                   ....       9.564 sec  ( 14.8% of F)
  Split-RI-J                ....      10.230 sec  ( 15.9% of F)
  Chain of spheres X        ....      19.330 sec  ( 30.0% of F)
  XC integration            ....       9.135 sec  ( 14.2% of F)
    XC Preparation          ....       0.000 sec  (  0.0% of XC)
    Basis function eval.    ....       0.463 sec  (  5.1% of XC)
    Density eval.           ....       0.374 sec  (  4.1% of XC)
    XC-Functional eval.     ....       0.135 sec  (  1.5% of XC)
    XC-Potential eval.      ....       0.382 sec  (  4.2% of XC)
  CPCM terms                ....       2.794 sec  (  4.3% of F)
Diagonalization             ....       0.000 sec  (  0.0%)
Density matrix formation    ....      14.972 sec  ( 13.1%)
Total Energy calculation    ....       7.453 sec  (  6.5%)
Population analysis         ....       1.934 sec  (  1.7%)
Orbital Transformation      ....       1.483 sec  (  1.3%)
Orbital Orthonormalization  ....       0.000 sec  (  0.0%)
DIIS solution               ....      11.147 sec  (  9.8%)
SOSCF solution              ....       4.554 sec  (  4.0%)
Finished LeanSCF after 115.2 sec

Maximum memory used throughout the entire LEANSCF-calculation: 16.0 MB


           ************************************************************
           *        Program running with 12 parallel MPI-processes    *
           *              working on a common directory               *
           ************************************************************

------------------------------------------------------------------------------
                         ORCA PROPERTY INTEGRAL CALCULATIONS
------------------------------------------------------------------------------

GBWName                                   ... cs_rporg_140_ox_freq_03.gbw
Number of atoms                           ...     16
Number of basis functions                 ...    140
Max core memory                           ...   5000 MB

Dipole integrals                          ... YES
Quadrupole integrals                      ...  NO
Linear momentum integrals                 ...  NO
Angular momentum integrals                ...  NO
Higher moments length integrals           ...  NO
Higher moments velocity integrals         ...  NO
Kinetic energy integrals                  ...  NO
GIAO right hand sides                     ...  NO
GIAO dipole derivative integrals          ...  NO
SOC integrals                             ...  NO
EPR diamagnetic integrals (GIAO)          ...  NO
EPR gauge integrals                       ...  NO
Field gradient integrals                  ...  NO (   0 nuclei)
Spin-dipole/Fermi contact integrals       ...  NO (   0 nuclei)
Contact density integrals                 ...  NO (   0 nuclei)
Nucleus-orbit integrals                   ...  NO (   0 nuclei)
Geometric perturbations                   ... YES (  16 nuclei)

Choice of electric origin   ... Center of mass
Position of electric origin ... (  0.0147,  0.0047,  0.0001) 
Choice of magnetic origin   ... GIAO
Position of magnetic origin ... (  0.0000,  0.0000,  0.0000) 

Calculating integrals                     ... Electric Dipole (Length)     done (  0.1 sec)
Calculating integrals                     ... Geometrical perturbation right hand sides

-----------------------
GEOMETRIC PERTURBATIONS (16 nuclei)
-----------------------

MaxCore                            ...   5000 MB
Number of batches                  ...      1

BATCH   0: Atoms    0 -   15 ( 48 perturbations)
   => H(core) and overlap derivative integrals     ... done (     0.0 sec)
   => Making and storing internal U-coefficients   ... done (     0.2 sec)
   => RI-J derivative integrals                    ... done (     8.1 sec)
   => RI-J response operators                      ... done (     0.6 sec)
   => Chain of spheres derivative integrals        ... done (     3.1 sec)
   => Chain of spheres response operator           ... done (     3.3 sec)
   => XC derivative integrals                      ... done (     8.6 sec)
   => XC response operators                        ... done (     2.5 sec)
   => CPCM derivative integrals                    ... done (     1.2 sec)
   => CPCM response operators                      ... done (     1.6 sec)
   => Completing and storing right hand sides      ... done (     0.2 sec)
   => Total time for right hand sides =  31.1 sec

  geometrical perturbations done ( 31.6 sec)

Property integrals calculated in  31.7 sec

Maximum memory used throughout the entire PROPINT-calculation: 147.5 MB


-------------------------------------------------------------------------------
                          DFT DISPERSION CORRECTION                            
                                                                               
                              DFTD3 V3.1  Rev 1                                
                          USING Becke-Johnson damping                          
-------------------------------------------------------------------------------
The PBE0 functional is recognized
Active option DFTDOPT                   ...         4   

molecular C6(AA) [au] = 3024.604515 


            DFT-D V3
 parameters
 s6 scaling factor         :     1.0000 
 a1 scaling factor         :     0.4145 
 s8 scaling factor         :     1.2177 
 a2 scaling factor         :     4.8593 
 ad hoc parameters k1-k3   :    16.0000     1.3333    -4.0000 

 Edisp/kcal,au: -8.715494634641  -0.013889023298 
 E6   /kcal   :  -5.434828122 
 E8   /kcal   :  -3.280666512 
 % E8         :  37.641770775 

-------------------------   ----------------
Dispersion correction           -0.013889023
-------------------------   ----------------


-------------------------   --------------------
FINAL SINGLE POINT ENERGY      -399.900113349429
-------------------------   --------------------



           ************************************************************
           *        Program running with 12 parallel MPI-processes    *
           *              working on a common directory               *
           ************************************************************
------------------------------------------------------------------------------
                            ORCA SCF RESPONSE CALCULATION
------------------------------------------------------------------------------

GBWName                                 ... cs_rporg_140_ox_freq_03.gbw
Number of atoms                         ...     16
Number of basis functions               ...    140
Max core memory                         ...   5000 MB

Electric field perturbation             ...  NO
Quadrupolar field perturbation          ...  NO
Magnetic field perturbation (no GIAO)   ...  NO
Magnetic field perturbation (with GIAO) ...  NO
Linear momentum (velocity) perturbation ...  NO
Spin-orbit coupling perturbation        ...  NO
Choice of electric origin               ... Center of mass
Position of electric origin             ...     0.014689     0.004695     0.000107
Choice of magnetic origin               ... GIAO
Position of magnetic origin             ...     0.000000     0.000000     0.000000
Nuclear geometric perturbations         ... YES (  48 perturbations)
Nucleus-orbit perturbations             ...  NO (   0 perturbations)
Spin-dipole/Fermi contact perturbations ...  NO (   0 perturbations)

Total number of real perturbations      ...     48
Total number of imaginary perturbations ...      0
Total number of triplet perturbations   ...      0
Total number of SOC perturbations       ...      0

Using XC Grid                  ... (cs_rporg_140_ox_freq_03.grid_cpscf.tmp) 
Recalculating density on grid  ... (cs_rporg_140_ox_freq_03.grho_cpscf0.tmp) done
Calculating the xc-kernel      ... (cs_rporg_140_ox_freq_03.fxc_cpscf0.tmp) done

                                **********************
                                * REAL PERTURBATIONS *
                                **********************



-------------------
SHARK CP-SCF DRIVER
-------------------

Dimension of the orbital basis          ...    140
Dimension of the CPSCF-problem          ...   6835
Number of operators                     ...      2
Max. number of iterations               ...    128
Max. DIIS space dimension               ...     20
Convergence Tolerance                   ... 1.0e-04
Number of perturbations                 ...     48
Perturbation type                       ... REAL

--------------------
DIIS EQUATION SOLVER
--------------------

  ITERATION   0:   ||err||_max =   2.8551e-01 (  23.5 sec   0/ 48 done)
  ITERATION   1:   ||err||_max =   2.7325e-01 (  19.4 sec   0/ 48 done)
  ITERATION   2:   ||err||_max =   2.7933e-02 (  17.0 sec   0/ 48 done)
  ITERATION   3:   ||err||_max =   1.9568e-02 (  18.3 sec   0/ 48 done)
  ITERATION   4:   ||err||_max =   1.3650e-02 (  17.2 sec   0/ 48 done)
  ITERATION   5:   ||err||_max =   1.0082e-02 (  18.0 sec   0/ 48 done)
  ITERATION   6:   ||err||_max =   6.6403e-03 (  19.2 sec   0/ 48 done)
  ITERATION   7:   ||err||_max =   4.2674e-03 (  19.9 sec   4/ 48 done)
  ITERATION   8:   ||err||_max =   2.0196e-03 (  21.4 sec   9/ 48 done)
  ITERATION   9:   ||err||_max =   1.2934e-03 (  21.3 sec  14/ 48 done)
  ITERATION  10:   ||err||_max =   9.0117e-04 (  14.4 sec  25/ 48 done)
  ITERATION  11:   ||err||_max =   5.7666e-04 (  12.7 sec  30/ 48 done)
  ITERATION  12:   ||err||_max =   3.1764e-04 (   8.0 sec  33/ 48 done)
  ITERATION  13:   ||err||_max =   1.5277e-04 (   9.2 sec  38/ 48 done)
  ITERATION  14:   ||err||_max =   9.1588e-05 (   7.9 sec  48/ 48 done)

CP-SCF equations solved in 259.7 sec
Response densities calculated in   0.3 sec

Maximum memory used throughout the entire SCFRESP-calculation: 142.8 MB


           ************************************************************
           *        Program running with 12 parallel MPI-processes    *
           *              working on a common directory               *
           ************************************************************

------------------------------------------------------------------------------
                              ORCA PROPERTY CALCULATIONS
------------------------------------------------------------------------------

GBWName                                 ... cs_rporg_140_ox_freq_03.gbw
Number of atoms                         ...     16
Number of basis functions               ...    140
Max core memory                         ...   5000 MB

Electric properties:
Dipole moment                           ... YES
Quadrupole moment                       ...  NO
Static polarizability (Dipole/Dipole)   ...  NO
Static polarizability (Dipole/Quad.)    ...  NO
Static polarizability (Quad./Quad.)     ...  NO
Static polarizability (Velocity)        ...  NO

Atomic electric properties:
Dipole moment                           ...  NO
Quadrupole moment                       ...  NO
Static polarizability                   ...  NO

Choice of electric origin               ... Center of mass
Position of electric origin             ...     0.014689     0.004695     0.000107

General magnetic properties:
Magnetizability                         ...  NO

EPR properties:
g-Tensor (aka g-matrix)                 ...  NO
Zero-Field splitting spin-orbit         ...  NO
Zero-field splitting spin-spin          ...  NO
Hyperfine couplings                     ...  NO (   0 nuclei)
Quadrupole couplings                    ...  NO (   0 nuclei)
Contact density                         ...  NO (   0 nuclei)

NMR properties:
Chemical shifts                         ...  NO (   0 nuclei)
Spin-rotation constants                 ...  NO (   0 nuclei)
Spin-spin couplings                     ...  NO (   0 nuclei,    0 pairs)

Choice of magnetic origin               ... GIAO
Position of magnetic origin             ...     0.000000     0.000000     0.000000

Properties with geometric perturbations:
SCF Hessian                             ... YES
IR spectrum                             ... YES
VCD spectrum                            ...  NO
X-ray spectroscopy properties:
SCF XES/XAS/RIXS spectra                ...  NO


-------------
DIPOLE MOMENT
-------------

Method             : SCF
Type of density    : Electron Density
Multiplicity       :   2
Irrep              :   0
Energy             :  -399.8862243261311846 Eh
Relativity type    : 
Basis              : AO
                                X                 Y                 Z
Electronic contribution:     -3.561118621       0.195798372       0.002011870
Nuclear contribution   :      3.312790193      -0.245462339      -0.002781312
                        -----------------------------------------
Total Dipole Moment    :     -0.248328428      -0.049663967      -0.000769442
                        -----------------------------------------
Magnitude (a.u.)       :      0.253247132
Magnitude (Debye)      :      0.643703052



--------------------
Rotational spectrum 
--------------------
 
Rotational constants in cm-1:             0.166582             0.031088             0.026199 
Rotational constants in MHz :          4993.992883           932.007375           785.429461 

Dipole components along the rotational axes: 
x,y,z [a.u.] :    -0.248094     0.050825    -0.000680 
x,y,z [Debye]:    -0.630604     0.129187    -0.001730 

 

Dipole moment calculation done in   0.5 sec 

-----------
SCF HESSIAN
-----------

Occupied/Occupied contributions to the Hessian:
   => Occupied/Occupied contributions              ... done (  1.6 sec)
Perturbed density contributions to the Hessian:
   => Perturbed density contributions              ... done (  0.1 sec)
Explicit contributions to the Hessian:
   => Nuclear repulsion Hessian                    ... done (  0.0 sec)
   => HCore and overlap Hessian                    ... done (  0.6 sec)
   => RI-J Hessian                                 ... done (  8.2 sec)
   => COSX Hessian                                 ... done ( 30.6 sec)
   => XC-Hessian                                   ... done (  7.2 sec)
   => CPCM-Hessian                                 ... done (  0.9 sec)
   => Van der Waals-Hessian                        ... done (  0.5 sec)
   => SMD-Hessian                                  ... done (  0.8 sec)
   => Explicit contributions done
Dipole derivatives                                 ... done (  0.2 sec)
Mass weighting the Hessian           ... done
Calculating normal modes             ... done
Scaling frequencies                  ... done

-----------------------
VIBRATIONAL FREQUENCIES
-----------------------

Scaling factor for frequencies =  1.000000000  (already applied!)

     0:       0.00 cm**-1
     1:       0.00 cm**-1
     2:       0.00 cm**-1
     3:       0.00 cm**-1
     4:       0.00 cm**-1
     5:       0.00 cm**-1
     6:      79.24 cm**-1
     7:     156.64 cm**-1
     8:     181.51 cm**-1
     9:     247.38 cm**-1
    10:     384.73 cm**-1
    11:     391.46 cm**-1
    12:     447.81 cm**-1
    13:     454.37 cm**-1
    14:     570.66 cm**-1
    15:     589.67 cm**-1
    16:     642.86 cm**-1
    17:     652.84 cm**-1
    18:     797.41 cm**-1
    19:     824.20 cm**-1
    20:     885.24 cm**-1
    21:     956.91 cm**-1
    22:     986.59 cm**-1
    23:    1004.24 cm**-1
    24:    1019.51 cm**-1
    25:    1028.84 cm**-1
    26:    1041.63 cm**-1
    27:    1110.35 cm**-1
    28:    1148.36 cm**-1
    29:    1175.36 cm**-1
    30:    1212.74 cm**-1
    31:    1267.65 cm**-1
    32:    1309.55 cm**-1
    33:    1339.07 cm**-1
    34:    1438.35 cm**-1
    35:    1466.86 cm**-1
    36:    1479.21 cm**-1
    37:    1547.32 cm**-1
    38:    1567.70 cm**-1
    39:    1571.70 cm**-1
    40:    1697.72 cm**-1
    41:    3186.80 cm**-1
    42:    3228.23 cm**-1
    43:    3233.10 cm**-1
    44:    3240.58 cm**-1
    45:    3247.22 cm**-1
    46:    3253.17 cm**-1
    47:    3449.55 cm**-1


------------
NORMAL MODES
------------

These modes are the Cartesian displacements weighted by the diagonal matrix
M(i,i)=1/sqrt(m[i]) where m[i] is the mass of the displaced atom
Thus, these vectors are normalized but *not* orthogonal

[...]
     15      -0.001143   0.001255   0.000664  -0.000997   0.000985   0.000156
     16       0.000992  -0.001988   0.000097   0.001914   0.002369  -0.000003
     17       0.000005  -0.000002  -0.000004   0.000002  -0.000001   0.000000
     18      -0.000260   0.000524   0.000438   0.000129   0.000087   0.002275
     19      -0.001064   0.001177   0.000229  -0.000710  -0.000321  -0.000370
     20       0.000002  -0.000002  -0.000001   0.000002   0.000003   0.000009
     21      -0.000082  -0.000129   0.000001  -0.000111   0.000375  -0.002242
     22       0.000128  -0.000019   0.000131   0.000184   0.000116   0.000352
     23      -0.000000  -0.000001   0.000000  -0.000000  -0.000000  -0.000014
     24      -0.000025  -0.000010  -0.000021  -0.000050   0.000052  -0.037305
     25       0.000027  -0.000067   0.000124   0.000294  -0.000152   0.050773
     26      -0.000002   0.000001  -0.000000  -0.000002   0.000002  -0.000169
     27       0.000911  -0.000662   0.000667   0.002916  -0.002568   0.600626
     28      -0.001024   0.000821  -0.001099  -0.003892   0.003158  -0.796975
     29       0.000006  -0.000003   0.000003   0.000015  -0.000017   0.002686
     30       0.005139  -0.005410  -0.002991   0.001655  -0.001779  -0.002588
     31       0.011933  -0.012593  -0.006161   0.004124  -0.001478  -0.006519
     32      -0.000009   0.000018   0.000003  -0.000004  -0.000008   0.000020
     33       0.068634   0.096561  -0.274647  -0.194301  -0.559105  -0.000917
     34      -0.078307  -0.109075   0.311254   0.218681   0.626820   0.000891
     35      -0.000214  -0.000310   0.000854   0.000598   0.001690  -0.000012
     36       0.108150   0.139559  -0.234630  -0.028995   0.165153   0.001014
     37       0.296729   0.383702  -0.654790  -0.085591   0.453337   0.003070
     38       0.000106   0.000130  -0.000232  -0.000034   0.000152  -0.000011
     39      -0.595872  -0.513938  -0.404876  -0.379245   0.168423   0.002796
     40      -0.115618  -0.101065  -0.075881  -0.075899   0.031577   0.000564
     41       0.001507   0.001298   0.001034   0.000961  -0.000433  -0.000003
     42       0.316394  -0.111926   0.213621  -0.524620   0.096541   0.001995
     43      -0.352607   0.128760  -0.235382   0.584889  -0.108296  -0.002323
     44      -0.001086   0.000394  -0.000730   0.001786  -0.000328   0.000002
     45       0.180779  -0.238700  -0.086809   0.124192  -0.018600  -0.000973
     46       0.506250  -0.666207  -0.240414   0.339976  -0.051306  -0.002717
     47      -0.000381   0.000520   0.000183  -0.000267   0.000039  -0.000004


-----------
IR SPECTRUM
-----------

 Mode   freq       eps      Int      T**2         TX        TY        TZ
       cm**-1   L/(mol*cm) km/mol    a.u.
----------------------------------------------------------------------------
  6:     79.24   0.000232    1.17  0.000915  (-0.001592 -0.000208 -0.030213)
  7:    156.64   0.000176    0.89  0.000350  (-0.001773  0.018634  0.000026)
  8:    181.51   0.000001    0.01  0.000002  (-0.000771  0.000717  0.000822)
  9:    247.38   0.000137    0.69  0.000173  (-0.002641 -0.000343  0.012868)
 10:    384.73   0.000129    0.65  0.000105  (-0.000856 -0.000651  0.010186)
 11:    391.46   0.000924    4.67  0.000737  ( 0.024787  0.011057 -0.000282)
 12:    447.81   0.001174    5.93  0.000818  (-0.027171 -0.008790  0.001567)
 13:    454.37   0.000749    3.79  0.000514  (-0.001079 -0.000360  0.022653)
 14:    570.66   0.044422  224.49  0.024292  ( 0.003249  0.000540 -0.155824)
 15:    589.67   0.000709    3.58  0.000375  ( 0.007452  0.017878  0.000436)
 16:    642.86   0.004255   21.50  0.002065  (-0.002661  0.000250 -0.045368)
 17:    652.84   0.018075   91.34  0.008640  ( 0.092015  0.013161  0.000002)
 18:    797.41   0.008089   40.88  0.003166  ( 0.000395 -0.000258  0.056261)
 19:    824.20   0.000002    0.01  0.000001  ( 0.000101  0.000287  0.000723)
 20:    885.24   0.000398    2.01  0.000140  (-0.006613  0.009821  0.000203)
 21:    956.91   0.000080    0.41  0.000026  (-0.001171  0.000058  0.004980)
 22:    986.59   0.001364    6.89  0.000431  (-0.000381 -0.000499  0.020762)
 23:   1004.24   0.003793   19.17  0.001179  (-0.034144 -0.003574  0.000018)
 24:   1019.51   0.000016    0.08  0.000005  (-0.000290 -0.000503  0.002165)
 25:   1028.84   0.004880   24.66  0.001480  ( 0.038410  0.002182  0.000006)
 26:   1041.63   0.000260    1.31  0.000078  ( 0.000688 -0.000120  0.008799)
 27:   1110.35   0.005683   28.72  0.001597  ( 0.007319 -0.039289 -0.000029)
 28:   1148.36   0.001711    8.64  0.000465  ( 0.008778  0.019692  0.000087)
 29:   1175.36   0.014772   74.65  0.003922  ( 0.062555  0.002985  0.000120)
 30:   1212.74   0.065891  332.99  0.016955  (-0.129783  0.010556 -0.000340)
 31:   1267.65   0.021458  108.44  0.005282  (-0.058335 -0.043352 -0.000161)
 32:   1309.55   0.190896  964.71  0.045490  ( 0.213225  0.004982  0.000553)
 33:   1339.07   0.018487   93.42  0.004308  ( 0.062964  0.018540  0.000205)
 34:   1438.35   0.001425    7.20  0.000309  ( 0.011130  0.013613  0.000118)
 35:   1466.86   0.004926   24.89  0.001048  (-0.006690  0.031670 -0.000412)
 36:   1479.21   0.020554  103.87  0.004336  ( 0.015954 -0.063887 -0.000190)
 37:   1547.32   0.000219    1.11  0.000044  ( 0.005611  0.003556  0.000241)
 38:   1567.70   0.118446  598.58  0.023578  ( 0.153454  0.005448 -0.000145)
 39:   1571.70   0.003904   19.73  0.000775  (-0.019681 -0.019691  0.000024)
 40:   1697.72   0.053783  271.80  0.009886  ( 0.098543  0.013242 -0.000046)
 41:   3186.80   0.000264    1.33  0.000026  ( 0.004354 -0.002628  0.000024)
 42:   3228.23   0.000112    0.56  0.000011  ( 0.003143  0.000954 -0.000060)
 43:   3233.10   0.000185    0.93  0.000018  ( 0.003605 -0.002196  0.000040)
 44:   3240.58   0.000069    0.35  0.000007  ( 0.001433  0.002147  0.000069)
 45:   3247.22   0.000375    1.89  0.000036  ( 0.005395  0.002624 -0.000017)
 46:   3253.17   0.001585    8.01  0.000152  (-0.011410  0.004675 -0.000013)
 47:   3449.55   0.315203  1592.91  0.028515  ( 0.161011 -0.050895  0.000328)

* The epsilon (eps) is given for a Dirac delta lineshape.
** The dipole moment derivative (T) already includes vibrational overlap.

The first frequency considered to be a vibration is 6
The total number of vibrations considered is 42


--------------------------
THERMOCHEMISTRY AT 298.15K
--------------------------

Temperature         ...   298.15 K
Pressure            ...     1.00 atm
Total Mass          ...   121.14 AMU
Quasi RRHO          ...     True
Cut-Off Frequency   ...     1.00 cm^-1

Throughout the following assumptions are being made:
  (1) The electronic state is orbitally nondegenerate
      but the spin degeneracy is treated
  (2) There are no thermally accessible electronically excited states
  (3) Hindered rotations indicated by low frequency modes are not
      treated as such but are treated as vibrations and this may
      cause some error
  (4) All equations used are the standard statistical mechanics
      equations for an ideal gas
  (5) All vibrations are strictly harmonic

freq.      79.24  E(vib)   ...       0.49 
freq.     156.64  E(vib)   ...       0.40 
freq.     181.51  E(vib)   ...       0.37 
freq.     247.38  E(vib)   ...       0.31 
freq.     384.73  E(vib)   ...       0.20 
freq.     391.46  E(vib)   ...       0.20 
freq.     447.81  E(vib)   ...       0.17 
freq.     454.37  E(vib)   ...       0.16 
freq.     570.66  E(vib)   ...       0.11 
freq.     589.67  E(vib)   ...       0.10 
freq.     642.86  E(vib)   ...       0.09 
freq.     652.84  E(vib)   ...       0.08 
freq.     797.41  E(vib)   ...       0.05 
freq.     824.20  E(vib)   ...       0.04 
freq.     885.24  E(vib)   ...       0.04 
freq.     956.91  E(vib)   ...       0.03 
freq.     986.59  E(vib)   ...       0.02 
freq.    1004.24  E(vib)   ...       0.02 
freq.    1019.51  E(vib)   ...       0.02 
freq.    1028.84  E(vib)   ...       0.02 
freq.    1041.63  E(vib)   ...       0.02 
freq.    1110.35  E(vib)   ...       0.02 
freq.    1148.36  E(vib)   ...       0.01 
freq.    1175.36  E(vib)   ...       0.01 
freq.    1212.74  E(vib)   ...       0.01 
freq.    1267.65  E(vib)   ...       0.01 
freq.    1309.55  E(vib)   ...       0.01 
freq.    1339.07  E(vib)   ...       0.01 
freq.    1438.35  E(vib)   ...       0.00 
freq.    1466.86  E(vib)   ...       0.00 
freq.    1479.21  E(vib)   ...       0.00 
freq.    1547.32  E(vib)   ...       0.00 
freq.    1567.70  E(vib)   ...       0.00 
freq.    1571.70  E(vib)   ...       0.00 
freq.    1697.72  E(vib)   ...       0.00 
freq.    3186.80  E(vib)   ...       0.00 
freq.    3228.23  E(vib)   ...       0.00 
freq.    3233.10  E(vib)   ...       0.00 
freq.    3240.58  E(vib)   ...       0.00 
freq.    3247.22  E(vib)   ...       0.00 
freq.    3253.17  E(vib)   ...       0.00 
freq.    3449.55  E(vib)   ...       0.00 

------------
INNER ENERGY
------------

The inner energy is: U= E(el) + E(ZPE) + E(vib) + E(rot) + E(trans)
    E(el)   - is the total energy from the electronic structure calculation
              = E(kin-el) + E(nuc-el) + E(el-el) + E(nuc-nuc)
    E(ZPE)  - the the zero temperature vibrational energy from the frequency calculation
    E(vib)  - the the finite temperature correction to E(ZPE) due to population
              of excited vibrational states
    E(rot)  - is the rotational thermal energy
    E(trans)- is the translational thermal energy

Summary of contributions to the inner energy U:
Electronic energy                ...   -399.90011335 Eh
Zero point energy                ...      0.12647106 Eh      79.36 kcal/mol
Thermal vibrational correction   ...      0.00483715 Eh       3.04 kcal/mol
Thermal rotational correction    ...      0.00141627 Eh       0.89 kcal/mol
Thermal translational correction ...      0.00141627 Eh       0.89 kcal/mol
-----------------------------------------------------------------------
Total thermal energy                   -399.76597260 Eh


Summary of corrections to the electronic energy:
(perhaps to be used in another calculation)
Total thermal correction                  0.00766969 Eh       4.81 kcal/mol
Non-thermal (ZPE) correction              0.12647106 Eh      79.36 kcal/mol
-----------------------------------------------------------------------
Total correction                          0.13414075 Eh      84.17 kcal/mol


--------
ENTHALPY
--------

The enthalpy is H = U + kB*T
                kB is Boltzmann's constant
Total thermal energy              ...   -399.76597260 Eh 
Thermal Enthalpy correction       ...      0.00094421 Eh       0.59 kcal/mol
-----------------------------------------------------------------------
Total Enthalpy                    ...   -399.76502839 Eh


Note: Only C1 symmetry has been detected, increase convergence thresholds 
      if your molecule has a higher symmetry. Symmetry factor of 1.0 is   
      used for the rotational entropy correction. 
 

Note: Rotational entropy computed according to Herzberg 
Infrared and Raman Spectra, Chapter V,1, Van Nostrand Reinhold, 1945 
Point Group:  C1, Symmetry Number:   1  
Rotational constants in cm-1:     0.166582     0.031088     0.026199 

Vibrational entropy computed according to the QRRHO of S. Grimme
Chem.Eur.J. 2012 18 9955 using a reference frequency of 100.0 cm-1


-------
ENTROPY
-------

The entropy contributions are T*S = T*(S(el)+S(vib)+S(rot)+S(trans))
     S(el)   - electronic entropy
     S(vib)  - vibrational entropy
     S(rot)  - rotational entropy
     S(trans)- translational entropy
The entropies will be listed as multiplied by the temperature to get
units of energy

Electronic entropy                ...      0.00065446 Eh      0.41 kcal/mol
Vibrational entropy               ...      0.00794564 Eh      4.99 kcal/mol
Rotational entropy                ...      0.01371488 Eh      8.61 kcal/mol
Translational entropy             ...      0.01914284 Eh     12.01 kcal/mol
-----------------------------------------------------------------------
Final entropy term                ...      0.04145782 Eh     26.02 kcal/mol

In case the symmetry of your molecule has not been determined correctly
or in case you have a reason to use a different symmetry number we print 
out the resulting rotational entropy values for sn=1,12:

 non-linear molecules -----------------------------------
|  sn= 1 | S(rot)=       0.01371488 Eh      8.61 kcal/mol|
|  sn= 2 | S(rot)=       0.01306042 Eh      8.20 kcal/mol|
|  sn= 3 | S(rot)=       0.01267759 Eh      7.96 kcal/mol|
|  sn= 4 | S(rot)=       0.01240597 Eh      7.78 kcal/mol|
|  sn= 5 | S(rot)=       0.01219528 Eh      7.65 kcal/mol|
|  sn= 6 | S(rot)=       0.01202313 Eh      7.54 kcal/mol|
|  sn= 7 | S(rot)=       0.01187759 Eh      7.45 kcal/mol|
|  sn= 8 | S(rot)=       0.01175151 Eh      7.37 kcal/mol|
|  sn= 9 | S(rot)=       0.01164030 Eh      7.30 kcal/mol|
|  sn=10 | S(rot)=       0.01154082 Eh      7.24 kcal/mol|
|  sn=11 | S(rot)=       0.01145083 Eh      7.19 kcal/mol|
|  sn=12 | S(rot)=       0.01136868 Eh      7.13 kcal/mol|
 linear molecules ---------------------------------------
|  Dinfh | S(rot)=       0.00876454 Eh      5.50 kcal/mol|
|  Cinfv | S(rot)=       0.00941900 Eh      5.91 kcal/mol|
 --------------------------------------------------------


-------------------
GIBBS FREE ENERGY
-------------------

The Gibbs free energy is G = H - T*S

Total enthalpy                    ...   -399.76502839 Eh 
Total entropy correction          ...     -0.04145782 Eh    -26.02 kcal/mol
-----------------------------------------------------------------------
Final Gibbs free energy         ...   -399.80648621 Eh

For completeness - the Gibbs free energy minus the electronic energy
G-E(el)                           ...      0.09362714 Eh     58.75 kcal/mol


Maximum memory used throughout the entire PROP-calculation: 70.2 MB

--------------------------------
SUGGESTED CITATIONS FOR THIS RUN
--------------------------------

Below you find a list of papers that are relevant to this ORCA run
We neither can nor want to force you to cite these papers, but we appreciate if you do
You receive ORCA, which is the product of decades of hard work by many enthusiastic individuals, for free
The only thing we kindly ask in return is that you cite our papers,
We deeply appreciate it, if you show your appreciation for ORCA by not just citing the generic ORCA reference.

Please note that relegating all ORCA citations to the supporting information does *not* help us.
SI sections are not indexed - citations you put there will not count into any citation statistics
But we need these citations in order to attract the funding resources that allow us to do what we are doing

Therefore, if you are a happy ORCA user, please consider citing a few of the papers listed below in the main body of your paper

In addition to the list printed below, the program has created the file cs_rporg_140_ox_freq_03.bibtex that contains the list in bibtex format
You can import this file easily into all common literature databanks and citation aid programs


List of essential papers. We consider these as the minimum necessary citations

  1. Neese,F.
     Software update: the ORCA program system, version 5.0
     WIRES Comput. Molec. Sci., 2022 12(1)e1606
     doi.org/10.1002/wcms.1606

List of papers to cite with high priority. The work reported in these papers was absolutely
necessary for this run to complete.
Our perspective: the developers of density functionals and basis sets usually get cited in chemistry papers
Good! But without the algorithms to do something with them, the functionals or basis sets would not do anything.
Hence, in our opinion, the algorithm design and method developments papers are equally worthy of getting cited

  1. Neese,F.
     An improvement of the resolution of the identity approximation for the formation of the Coulomb matrix
     J. Comp. Chem., 2003 24(14)1740-1747
     doi.org/10.1002/jcc.10318
  2. Neese,F.; Wennmohs,F.; Hansen,A.; Becker,U.
     Efficient, approximate and parallel Hartree-Fock and hybrid DFT calculations. A 'chain-of-spheres' algorithm for the Hartree-Fock exchange
     Chem. Phys., 2009 356(1-3)98-109
     doi.org/10.1016/j.chemphys.2008.10.036
  3. Bykov,D.; Petrenko,T.; Izsak,R.; Kossmann,S.; Becker,U.; Valeev,E.; Neese,F.
     Efficient implementation of the analytic second derivatives of Hartree-Fock and hybrid DFT energies: a detailed analysis of different approximations
     Molec. Phys., 2015 113 1961-1977
     doi.org/10.1080/00268976.2015.1025114
  4. Garcia-Rates,M.; Neese,F.
     Efficient implementation of the analytical second derivatives of hartree-fock and hybrid DFT energies within the framework of the conductor-like polarizable continuum model
     J. Comput. Chem., 2019 40 1816-1828
     doi.org/10.1002/jcc.25833
  5. Garcia-Rates,M.; Neese,F.
     Effect of the Solute Cavity on the Solvation Energy and its Derivatives within the Framework of the Gaussian Charge Scheme
     J. Comput. Chem., 2020 41 922-939
     doi.org/10.1002/jcc.26139
  6. Helmich-Paris,B.; de Souza,B.; Neese,F.; Izsák,R.
     An improved chain of spheres for exchange algorithm
     J. Chem. Phys., 2021 155 104109
     doi.org/doi: 10.1063/5.0058766.
  7. Neese,F.
     The SHARK Integral Generation and Digestion System
     J. Comp. Chem., 2022  1-16
     doi.org/10.1002/jcc.26942
  8. Grimme,S.; Antony,J.; Ehrlich,S.; Krieg,H.
     A consistent and accurate ab initio parametrization of density functional dispersion correction (DFT-D) for the 94 elements H-Pu
     J. Chem. Phys., 2010 132 154104-XXXX
     doi.org/10.1063/1.3382344
  9. Grimme,S.; Ehrlich,S.; Goerigk,L.
     Effect of the damping function in dispersion corrected density functional theory
     J. Comput. Chem., 2011 32(7)1456-1465
     doi.org/10.1002/jcc.21759

List of suggested additional citations. These are papers that are important in the 'surrounding' of 
of this run, or papers that preceded the highly important papers. If you like your results we are grateful for a citation.

  1. Izsak,R.; Neese,F.
     An overlap fitted chain of spheres exchange method
     J. Chem. Phys., 2011 135 144105
     doi.org/10.1063/1.3646921
  2. Izsak,R.; Hansen,A.; Neese,F.
     The resolution of identity and chain of spheres approximations for the LPNO-CCSD singles Fock term
     Molec. Phys., 2012 110 2413-2417
     doi.org/10.1080/00268976.2012.687466
  3. Neese,F.
     The ORCA program system
     WIRES Comput. Molec. Sci., 2012 2(1)73-78
     doi.org/10.1002/wcms.81
  4. Izsak,R.; Neese,F.; Klopper,W.
     Robust fitting techniques in the chain of spheres approximation to the Fock exchange: The role of the complementary space
     J. Chem. Phys., 2013 139 
     doi.org/10.1063/1.4819264
  5. Neese,F.
     Software update: the ORCA program system, version 4.0
     WIRES Comput. Molec. Sci., 2018 8(1)1-6
     doi.org/10.1002/wcms.1327
  6. Neese,F.; Wennmohs,F.; Becker,U.; Riplinger,C.
     The ORCA quantum chemistry program package
     J. Chem. Phys., 2020 152 Art. No. L224108
     doi.org/10.1063/5.0004608

List of optional additional citations

  1. Neese,F.
     Approximate second-order SCF convergence for spin unrestricted wavefunctions
     Chem. Phys. Lett., 2000 325(1-3)93-98
     doi.org/10.1016/s0009-2614(00)00662-x

Timings for individual modules:

Sum of individual times          ...      480.847 sec (=   8.014 min)
Startup calculation              ...        4.688 sec (=   0.078 min)   1.0 %
SCF iterations                   ...      123.527 sec (=   2.059 min)  25.7 %
Property integrals               ...       33.635 sec (=   0.561 min)   7.0 %
SCF Response                     ...      265.070 sec (=   4.418 min)  55.1 %
Property calculations            ...       53.927 sec (=   0.899 min)  11.2 %
                             ****ORCA TERMINATED NORMALLY****
TOTAL RUN TIME: 0 days 0 hours 8 minutes 4 seconds 903 msec
