
                                 *****************
                                 * O   R   C   A *
                                 *****************

                                            #,                                       
                                            ###                                      
                                            ####                                     
                                            #####                                    
                                            ######                                   
                                           ########,                                 
                                     ,,################,,,,,                         
                               ,,#################################,,                 
                          ,,##########################################,,             
                       ,#########################################, ''#####,          
                    ,#############################################,,   '####,        
                  ,##################################################,,,,####,       
                ,###########''''           ''''###############################       
              ,#####''   ,,,,##########,,,,          '''####'''          '####       
            ,##' ,,,,###########################,,,                        '##       
           ' ,,###''''                  '''############,,,                           
         ,,##''                                '''############,,,,        ,,,,,,###''
      ,#''                                            '''#######################'''  
     '                                                          ''''####''''         
             ,#######,   #######,   ,#######,      ##                                
            ,#'     '#,  ##    ##  ,#'     '#,    #''#        ,####,   ,####,        
            ##       ##  ##   ,#'  ##            #'  '#       #'       #'  '#        
            ##       ##  #######   ##           ,######,      #####,   #    #        
            '#,     ,#'  ##    ##  '#,     ,#' ,#      #,     #,   #   #,  ,#        
             '#######'   ##     ##  '#######'  #'      '#     '####' # '####'        



                #########################################################
                #                        -***-                          #
                #          Department of theory and spectroscopy        #
                #                                                       #
                #                      Frank Neese                      #
                #                                                       #
                #     Directorship, Architecture, Infrastructure        #
                #                    SHARK, DRIVERS                     #
                #        Core code/Algorithms in most modules           #
                #                                                       #
                #        Max Planck Institute fuer Kohlenforschung      #
                #                Kaiser Wilhelm Platz 1                 #
                #                 D-45470 Muelheim/Ruhr                 #
                #                      Germany                          #
                #                                                       #
                #                  All rights reserved                  #
                #                        -***-                          #
                #########################################################


                         Program Version 6.0.0  -   RELEASE  -


 With contributions from (in alphabetic order):
   Daniel Aravena         : Magnetic Suceptibility
   Michael Atanasov       : Ab Initio Ligand Field Theory (pilot matlab implementation)
   Alexander A. Auer      : GIAO ZORA, VPT2 properties, NMR spectrum
   Ute Becker             : All parallelization in ORCA, NUMFREQ, NUMCALC
   Giovanni Bistoni       : ED, misc. LED, open-shell LED, HFLD
   Martin Brehm           : Molecular dynamics
   Dmytro Bykov           : pre 5.0 version of the SCF Hessian
   Marcos Casanova-Páez   : Triplet and SCS-CIS(D). UHF-(DLPNO)-IP/EA/STEOM-CCSD. UHF-CVS-IP/STEOM-CCSD
   Vijay G. Chilkuri      : MRCI spin determinant printing, contributions to CSF-ICE
   Pauline Colinet        : FMM embedding
   Dipayan Datta          : RHF DLPNO-CCSD density
   Achintya Kumar Dutta   : EOM-CC, STEOM-CC
   Nicolas Foglia         : Exact transition moments, OPA infrastructure, MCD improvements
   Dmitry Ganyushin       : Spin-Orbit,Spin-Spin,Magnetic field MRCI
   Miquel Garcia          : C-PCM and meta-GGA Hessian, CCSD/C-PCM, Gaussian charge scheme
   Tiago L. C. Gouveia    : GS-ROHF, GS-ROCIS
   Yang Guo               : DLPNO-NEVPT2, F12-NEVPT2, CIM, IAO-localization
   Andreas Hansen         : Spin unrestricted coupled pair/coupled cluster methods
   Ingolf Harden          : AUTO-CI MPn and infrastructure 
   Benjamin Helmich-Paris : MC-RPA, TRAH-(SCF,CASSCF), AVAS, COSX integrals, SCF dyn. polar.
   Lee Huntington         : MR-EOM, pCC
   Robert Izsak           : Overlap fitted RIJCOSX, COSX-SCS-MP3, EOM
   Riya Kayal             : Wick's Theorem for AUTO-CI, AUTO-CI UHF-CCSDT
   Emily Kempfer          : AUTO-CI, RHF CISDT and CCSDT
   Christian Kollmar      : KDIIS, OOCD, Brueckner-CCSD(T), CCSD density, CASPT2, CASPT2-K, improved NEVPT2
   Axel Koslowski         : Symmetry handling
   Simone Kossmann        : Meta GGA functionals, TD-DFT gradient, OOMP2, (MP2 Hessian; deprecated post 5.0)
   Lucas Lang             : DCDCAS
   Marvin Lechner         : AUTO-CI (C++ implementation), FIC-MRCC
   Spencer Leger          : CASSCF response
   Dagmar Lenk            : GEPOL surface, SMD, ORCA-2-JSON
   Dimitrios Liakos       : Extrapolation schemes; Compound Job, initial MDCI parallelization
   Dimitrios Manganas     : Further ROCIS development; embedding schemes. LFT, Crystal Embedding
   Dimitrios Pantazis     : SARC Basis sets
   Anastasios Papadopoulos: AUTO-CI, single reference methods and gradients
   Taras Petrenko         : pre 6.0 DFT Hessian and TD-DFT gradient, (ASA, deprecated), ECA, 1-Electron XAS/XES, NRVS
   Peter Pinski           : DLPNO-MP2, DLPNO-MP2 Gradient
   Christoph Reimann      : Effective Core Potentials
   Marius Retegan         : Local ZFS, SOC
   Christoph Riplinger    : Optimizer, TS searches, QM/MM, DLPNO-CCSD(T), (RO)-DLPNO pert. Triples
   Michael Roemelt        : Original ROCIS implementation
   Masaaki Saitow         : Open-shell DLPNO-CCSD energy and density
   Barbara Sandhoefer     : DKH picture change effects
   Kantharuban Sivalingam : CASSCF convergence/infrastructure, NEVPT2 and variants, FIC-MRCI
   Bernardo de Souza      : ESD, SOC TD-DFT
   Georgi Stoychev        : AutoAux, RI-MP2 NMR, DLPNO-MP2 response, X2C
   Van Anh Tran           : RI-MP2 g-tensors
   Willem Van den Heuvel  : Paramagnetic NMR
   Zikuan Wang            : NOTCH, Electric field optimization 
   Frank Wennmohs         : Technical directorship and infrastructure
   Hang Xu                : AUTO-CI-Response properties 


 We gratefully acknowledge several colleagues who have allowed us to
 interface, adapt or use parts of their codes:
   Stefan Grimme, W. Hujo, H. Kruse, P. Pracht,  : VdW corrections, initial TS optimization,
                  C. Bannwarth, S. Ehlert,         DFT functionals, gCP, sTDA/sTD-DF
                  L. Wittmann, M. Mueller
   Ed Valeev, F. Pavosevic, A. Kumar             : LibInt (2-el integral package), F12 methods
   Garnet Chan, S. Sharma, J. Yang, R. Olivares  : DMRG
   Ulf Ekstrom                                   : XCFun DFT Library
   Mihaly Kallay                                 : mrcc  (arbitrary order and MRCC methods)
   Frank Weinhold                                : gennbo (NPA and NBO analysis)
   Simon Mueller                                 : openCOSMO-RS
   Christopher J. Cramer and Donald G. Truhlar   : smd solvation model
   Lars Goerigk                                  : TD-DFT with DH, B97 family of functionals
   V. Asgeirsson, H. Jonsson                     : NEB implementation
   FAccTs GmbH                                   : IRC, NEB, NEB-TS, DLPNO-Multilevel, CI-OPT
                                                   MM, QMMM, 2- and 3-layer-ONIOM, Crystal-QMMM,
                                                   LR-CPCM, SF, NACMEs, symmetry and pop. for TD-DFT,
                                                   nearIR, NL-DFT gradient (VV10), updates on ESD,
                                                   ML-optimized integration grids, MBIS, APM,
                                                   GOAT, DOCKER, SOLVATOR, interface openCOSMO-RS
   S Lehtola, MJT Oliveira, MAL Marques          : LibXC Library
   Liviu Ungur et al                             : ANISO software


 Your calculation uses the libint2 library for the computation of 2-el integrals
 For citations please refer to: http://libint.valeyev.net

 Your ORCA version has been built with support for libXC version: 6.2.2
 For citations please refer to: https://libxc.gitlab.io

 This ORCA versions uses:
   CBLAS   interface :  Fast vector & matrix operations
   LAPACKE interface :  Fast linear algebra routines
   SCALAPACK package :  Parallel linear algebra routines
   Shared memory     :  Shared parallel matrices
   BLAS/LAPACK       :  OpenBLAS 0.3.27  USE64BITINT DYNAMIC_ARCH NO_AFFINITY Haswell SINGLE_THREADED
        Core in use  :  Haswell
   Copyright (c) 2011-2014, The OpenBLAS Project


NOTE: MaxCore=3000 MB was set to SCF,MP2,MDCI,CIPSI,MRCI and CIS
      => If you want to overwrite this, your respective input block should be placed after the MaxCore statement
Your calculation utilizes the atom-pairwise dispersion correction
with the Becke-Johnson damping scheme (D3BJ)


Your calculation utilizes the SMD solvation module
Please cite in your paper:
A.V. Marenich, C.J. Cramer, D.G. Truhlar J. Phys. Chem. B, 113, (2009), 6378 

Warning: RI is on but no J-basis has been assigned. Assigning Def2/J (nothing to worry about!)
================================================================================

----- Orbital basis set information -----
Your calculation utilizes the basis: aug-cc-pVTZ 
    H, B-Ne : Obtained from the ccRepo (grant-hill.group.shef.ac.uk/ccrepo) Feb. 2017
              R. A. Kendall, T. H. Dunning, Jr., R. J. Harrison, J. Chem. Phys. 96, 6796 (1992)
         He : Obtained from the ccRepo (grant-hill.group.shef.ac.uk/ccrepo) Feb. 2017
              D. E. Woon, T. H. Dunning, Jr., J. Chem. Phys. 100, 2975 (1994)
  Li-Be, Na : Obtained from the ccRepo (grant-hill.group.shef.ac.uk/ccrepo) Feb. 2017
              B. P. Prascher, D. E. Woon, K. A. Peterson, T. H. Dunning, Jr., A. K. Wilson, Theor. Chem. Acc. 128, 69 (2011)
         Mg : Obtained from the Peterson Research Group Website (tyr0.chem.wsu.edu/~kipeters) Feb. 2017
              B. P. Prascher, D. E. Woon, K. A. Peterson, T. H. Dunning, Jr., A. K. Wilson, Theor. Chem. Acc. 128, 69 (2011)
      Al-Ar : Obtained from the ccRepo (grant-hill.group.shef.ac.uk/ccrepo) Feb. 2017
              D. E. Woon, T. H. Dunning, Jr., J. Chem. Phys. 98, 1358 (1993)
      Sc-Zn : Obtained from the ccRepo (grant-hill.group.shef.ac.uk/ccrepo) Feb. 2017
              N. B. Balabanov, K. A. Peterson, J. Chem. Phys. 123, 064107 (2005)
              N. B. Balabanov, K. A. Peterson, J. Chem. Phys. 125, 074110 (2006)
      Ga-Kr : Obtained from the ccRepo (grant-hill.group.shef.ac.uk/ccrepo) Feb. 2017
              A. K. Wilson, D. E. Woon, K. A. Peterson, T. H. Dunning, Jr., J. Chem. Phys. 110, 7667 (1999)
     Ag, Au : Obtained from the Peterson Research Group Website (tyr0.chem.wsu.edu/~kipeters) Feb. 2017
              K. A. Peterson, C. Puzzarini, Theor. Chem. Acc. 114, 283 (2005)

----- AuxJ basis set information -----
Your calculation utilizes the auxiliary basis: def2/J
   F. Weigend, Phys. Chem. Chem. Phys. 8, 1057 (2006).

================================================================================
                                        WARNINGS
                       Please study these warnings very carefully!
================================================================================


================================================================================
                                       INPUT FILE
================================================================================
NAME = cs_rporg_019_red_solv_01.inp
|  1> !TPSSh aug-cc-pVTZ d3 TightSCF SlowConv RIJCOSX defgrid2
|  2>  
|  3> %pal
|  4> nprocs 4
|  5> end
|  6>  
|  7> %scf
|  8> MaxIter 1500
|  9> end
| 10>  
| 11> %maxcore 3000
| 12>  
| 13> !CPCM
| 14> %cpcm smd true
| 15> SMDsolvent "MeCN"
| 16> surfacetype gepol_ses
| 17> rsolv 2.19
| 18> end 
| 19>  
| 20> * xyz 0 1
| 21> C           1.57085042838004     -1.17474438788844     -0.33321365208336
| 22> C           2.96192041551293     -1.15651629940685     -0.31860147015010
| 23> C           3.64782695539498      0.00855864334947      0.02599003748590
| 24> C           2.92361947907694      1.15458909719340      0.34785674698480
| 25> C           1.53060388669529      1.13435322432905      0.32993520415109
| 26> C           0.82328467622844     -0.03397612396155      0.00340161993556
| 27> C          -0.65741272614693     -0.04733327290659      0.00534536563332
| 28> C          -1.35282390658214     -1.16758358658154      0.27962064543062
| 29> C          -2.84853700806778     -1.25828591796901      0.30847424531628
| 30> C          -3.51990150406660      0.11087068594057      0.31565142940002
| 31> C          -2.83381225328130      1.04341808051259     -0.67327419385531
| 32> C          -1.37142433850592      1.25026584913834     -0.29589644947955
| 33> H          -0.83991530281643      1.78116962585690     -1.10618334228773
| 34> H          -1.30989672858064      1.91765444185113      0.58676465237026
| 35> H          -3.35148405171204      2.01729252554914     -0.71973408682922
| 36> H          -2.89053837289839      0.60490265207129     -1.68762863260766
| 37> H          -4.59471066896096      0.01138665951998      0.08467603040594
| 38> H          -3.45292200027469      0.54772553729573      1.33001780873961
| 39> H          -3.19002868806132     -1.84280149491509     -0.57088642583127
| 40> H          -3.16602339134086     -1.84941487747488      1.18737448619474
| 41> H          -0.80474635256816     -2.08768769328037      0.51396987653596
| 42> H           0.98362946668811      2.04390039060663      0.59144870231404
| 43> H           3.44740931149543      2.07717728450666      0.61616083395012
| 44> H           4.74164950120465      0.02477698912015      0.03349122220482
| 45> H           3.51725863806072     -2.05891161890825     -0.59221005705267
| 46> H           1.04979053512663     -2.08648421354846     -0.63790469687620
| 47> *
| 48> 
| 49>                          ****END OF INPUT****
================================================================================

                       ****************************
                       * Single Point Calculation *
                       ****************************

---------------------------------
CARTESIAN COORDINATES (ANGSTROEM)
---------------------------------
  C      1.570850   -1.174744   -0.333214
  C      2.961920   -1.156516   -0.318601
  C      3.647827    0.008559    0.025990
  C      2.923619    1.154589    0.347857
  C      1.530604    1.134353    0.329935
  C      0.823285   -0.033976    0.003402
  C     -0.657413   -0.047333    0.005345
  C     -1.352824   -1.167584    0.279621
  C     -2.848537   -1.258286    0.308474
  C     -3.519902    0.110871    0.315651
  C     -2.833812    1.043418   -0.673274
  C     -1.371424    1.250266   -0.295896
  H     -0.839915    1.781170   -1.106183
  H     -1.309897    1.917654    0.586765
  H     -3.351484    2.017293   -0.719734
  H     -2.890538    0.604903   -1.687629
  H     -4.594711    0.011387    0.084676
  H     -3.452922    0.547726    1.330018
  H     -3.190029   -1.842801   -0.570886
  H     -3.166023   -1.849415    1.187374
  H     -0.804746   -2.087688    0.513970
  H      0.983629    2.043900    0.591449
  H      3.447409    2.077177    0.616161
  H      4.741650    0.024777    0.033491
  H      3.517259   -2.058912   -0.592210
  H      1.049791   -2.086484   -0.637905

----------------------------
CARTESIAN COORDINATES (A.U.)
----------------------------
  NO LB      ZA    FRAG     MASS         X           Y           Z
   0 C     6.0000    0    12.011    2.968477   -2.219945   -0.629683
   1 C     6.0000    0    12.011    5.597218   -2.185499   -0.602070
   2 C     6.0000    0    12.011    6.893394    0.016173    0.049114
   3 C     6.0000    0    12.011    5.524840    2.181857    0.657354
   4 C     6.0000    0    12.011    2.892422    2.143617    0.623487
   5 C     6.0000    0    12.011    1.555783   -0.064206    0.006428
   6 C     6.0000    0    12.011   -1.242330   -0.089447    0.010101
   7 C     6.0000    0    12.011   -2.556467   -2.206413    0.528406
   8 C     6.0000    0    12.011   -5.382955   -2.377816    0.582932
   9 C     6.0000    0    12.011   -6.651650    0.209515    0.596495
  10 C     6.0000    0    12.011   -5.355129    1.971774   -1.272304
  11 C     6.0000    0    12.011   -2.591616    2.362660   -0.559163
  12 H     1.0000    0     1.008   -1.587210    3.365923   -2.090384
  13 H     1.0000    0     1.008   -2.475346    3.623842    1.108824
  14 H     1.0000    0     1.008   -6.333387    3.812130   -1.360100
  15 H     1.0000    0     1.008   -5.462326    1.143100   -3.189156
  16 H     1.0000    0     1.008   -8.682745    0.021518    0.160015
  17 H     1.0000    0     1.008   -6.525077    1.035051    2.513369
  18 H     1.0000    0     1.008   -6.028281   -3.482390   -1.078819
  19 H     1.0000    0     1.008   -5.982917   -3.494888    2.243813
  20 H     1.0000    0     1.008   -1.520750   -3.945158    0.971262
  21 H     1.0000    0     1.008    1.858790    3.862412    1.117676
  22 H     1.0000    0     1.008    6.514659    3.925296    1.164375
  23 H     1.0000    0     1.008    8.960419    0.046822    0.063289
  24 H     1.0000    0     1.008    6.646656   -3.890779   -1.119115
  25 H     1.0000    0     1.008    1.983817   -3.942884   -1.205465

--------------------------------
INTERNAL COORDINATES (ANGSTROEM)
--------------------------------
 C      0   0   0     0.000000000000     0.00000000     0.00000000
 C      1   0   0     1.391266145701     0.00000000     0.00000000
 C      2   1   0     1.395209916402   120.33670867     0.00000000
 C      3   2   1     1.393362999572   119.23274041   359.64956401
 C      4   3   2     1.393277830465   120.31410078     0.22599735
 C      5   4   3     1.404250018050   121.24368209     0.65058735
 C      6   5   4     1.480758923315   120.72231342   179.18570069
 C      7   6   5     1.346768133077   121.60799176   209.52763967
 C      8   7   6     1.498738511249   124.72053369   179.64118690
 C      9   8   7     1.524916917241   112.65164934   346.60744291
 C     10   9   8     1.522608614023   110.39360719    42.91923403
 C      7   6   5     1.511397596692   117.67090626    28.78667426
 H     12   7   6     1.104954987233   109.35530729    39.98679886
 H     12   7   6     1.108279658383   109.39238774   284.84965862
 H     11  10   9     1.103890414507   110.87656278   176.54358841
 H     11  10   9     1.106539001140   109.24258650    59.25503083
 H     10   9   8     1.103839411959   110.29047950   165.92412409
 H     10   9   8     1.106466251910   109.39964438   282.91669531
 H      9   8   7     1.109752322439   108.88795141   108.84945564
 H      9   8   7     1.105756159262   109.52372773   223.22820737
 H      8   7   6     1.096312060728   118.91453894     0.46783512
 H      5   4   3     1.093090286091   119.02138358   179.66450683
 H      4   3   2     1.094308838947   120.08486675   180.25178433
 H      3   2   1     1.093968493254   120.37272386   180.26449515
 H      2   1   3     1.094339761184   119.60138756   180.80741589
 H      1   2   3     1.093439323798   119.36142384   177.97192358

---------------------------
INTERNAL COORDINATES (A.U.)
---------------------------
 C      0   0   0     0.000000000000     0.00000000     0.00000000
 C      1   0   0     2.629111994770     0.00000000     0.00000000
 C      2   1   0     2.636564641331   120.33670867     0.00000000
 C      3   2   1     2.633074474330   119.23274041   359.64956401
 C      4   3   2     2.632913528044   120.31410078     0.22599735
 C      5   4   3     2.653647957668   121.24368209     0.65058735
 C      6   5   4     2.798228835425   120.72231342   179.18570069
 C      7   6   5     2.545022937407   121.60799176   209.52763967
 C      8   7   6     2.832205332622   124.72053369   179.64118690
 C      9   8   7     2.881675350569   112.65164934   346.60744291
 C     10   9   8     2.877313289653   110.39360719    42.91923403
 C      7   6   5     2.856127537216   117.67090626    28.78667426
 H     12   7   6     2.088062316180   109.35530729    39.98679886
 H     12   7   6     2.094345034139   109.39238774   284.84965862
 H     11  10   9     2.086050565279   110.87656278   176.54358841
 H     11  10   9     2.091055668658   109.24258650    59.25503083
 H     10   9   8     2.085954184431   110.29047950   165.92412409
 H     10   9   8     2.090918192536   109.39964438   282.91669531
 H      9   8   7     2.097127965893   108.88795141   108.84945564
 H      9   8   7     2.089576311902   109.52372773   223.22820737
 H      8   7   6     2.071729552091   118.91453894     0.46783512
 H      5   4   3     2.065641280362   119.02138358   179.66450683
 H      4   3   2     2.067944011539   120.08486675   180.25178433
 H      3   2   1     2.067300851389   120.37272386   180.26449515
 H      2   1   3     2.068002446098   119.60138756   180.80741589
 H      1   2   3     2.066300866039   119.36142384   177.97192358

---------------------
BASIS SET INFORMATION
---------------------
There are 2 groups of distinct atoms

 Group   1 Type C   : 19s6p3d2f contracted to 5s4p3d2f pattern {88111/3111/111/11}
 Group   2 Type H   : 6s3p2d contracted to 4s3p2d pattern {3111/111/11}

Atom   0C    basis set group =>   1
Atom   1C    basis set group =>   1
Atom   2C    basis set group =>   1
Atom   3C    basis set group =>   1
Atom   4C    basis set group =>   1
Atom   5C    basis set group =>   1
Atom   6C    basis set group =>   1
Atom   7C    basis set group =>   1
Atom   8C    basis set group =>   1
Atom   9C    basis set group =>   1
Atom  10C    basis set group =>   1
Atom  11C    basis set group =>   1
Atom  12H    basis set group =>   2
Atom  13H    basis set group =>   2
Atom  14H    basis set group =>   2
Atom  15H    basis set group =>   2
Atom  16H    basis set group =>   2
Atom  17H    basis set group =>   2
Atom  18H    basis set group =>   2
Atom  19H    basis set group =>   2
Atom  20H    basis set group =>   2
Atom  21H    basis set group =>   2
Atom  22H    basis set group =>   2
Atom  23H    basis set group =>   2
Atom  24H    basis set group =>   2
Atom  25H    basis set group =>   2
---------------------------------
AUXILIARY/J BASIS SET INFORMATION
---------------------------------
There are 2 groups of distinct atoms

 Group   1 Type C   : 12s5p4d2f1g contracted to 6s4p3d1f1g pattern {711111/2111/211/2/1}
 Group   2 Type H   : 5s2p1d contracted to 3s1p1d pattern {311/2/1}

Atom   0C    basis set group =>   1
Atom   1C    basis set group =>   1
Atom   2C    basis set group =>   1
Atom   3C    basis set group =>   1
Atom   4C    basis set group =>   1
Atom   5C    basis set group =>   1
Atom   6C    basis set group =>   1
Atom   7C    basis set group =>   1
Atom   8C    basis set group =>   1
Atom   9C    basis set group =>   1
Atom  10C    basis set group =>   1
Atom  11C    basis set group =>   1
Atom  12H    basis set group =>   2
Atom  13H    basis set group =>   2
Atom  14H    basis set group =>   2
Atom  15H    basis set group =>   2
Atom  16H    basis set group =>   2
Atom  17H    basis set group =>   2
Atom  18H    basis set group =>   2
Atom  19H    basis set group =>   2
Atom  20H    basis set group =>   2
Atom  21H    basis set group =>   2
Atom  22H    basis set group =>   2
Atom  23H    basis set group =>   2
Atom  24H    basis set group =>   2
Atom  25H    basis set group =>   2


           ************************************************************
           *        Program running with 4 parallel MPI-processes     *
           *              working on a common directory               *
           ************************************************************
------------------------------------------------------------------------------
                             ORCA STARTUP CALCULATIONS
                           -- RI-GTO INTEGRALS CHOSEN --
------------------------------------------------------------------------------
------------------------------------------------------------------------------
                   ___                                                        
                  /   \      - P O W E R E D   B Y -                         
                 /     \                                                     
                 |  |  |   _    _      __       _____    __    __             
                 |  |  |  | |  | |    /  \     |  _  \  |  |  /  |          
                  \  \/   | |  | |   /    \    | | | |  |  | /  /          
                 / \  \   | |__| |  /  /\  \   | |_| |  |  |/  /          
                |  |  |   |  __  | /  /__\  \  |    /   |      \           
                |  |  |   | |  | | |   __   |  |    \   |  |\   \          
                \     /   | |  | | |  |  |  |  | |\  \  |  | \   \       
                 \___/    |_|  |_| |__|  |__|  |_| \__\ |__|  \__/        
                                                                              
                      - O R C A' S   B I G   F R I E N D -                    
                                      &                                       
                       - I N T E G R A L  F E E D E R -                       
                                                                              
 v1 FN, 2020, v2 2021, v3 2022-2024                                           
------------------------------------------------------------------------------


----------------------
SHARK INTEGRAL PACKAGE
----------------------

Number of atoms                             ...     26
Number of basis functions                   ...    946
Number of shells                            ...    366
Maximum angular momentum                    ...      3
Integral batch strategy                     ... SHARK/LIBINT Hybrid
RI-J (if used) integral strategy            ... SPLIT-RIJ (Revised 2003 algorithm where possible)
Printlevel                                  ...      1
Contraction scheme used                     ... PARTIAL GENERAL contraction
Prescreening option                         ... SCHWARTZ
   Thresh                                   ... 2.500e-11
   Tcut                                     ... 2.500e-12
   Tpresel                                  ... 2.500e-12 
Coulomb Range Separation                    ... NOT USED
Exchange Range Separation                   ... NOT USED
Multipole approximations                    ... NOT USED
Finite Nucleus Model                        ... NOT USED
CABS basis                                  ... NOT available
Auxiliary Coulomb fitting basis             ... AVAILABLE
   # of basis functions in Aux-J            ...    742
   # of shells in Aux-J                     ...    250
   Maximum angular momentum in Aux-J        ...      4
Auxiliary J/K fitting basis                 ... NOT available
Auxiliary Correlation fitting basis         ... NOT available
Auxiliary 'external' fitting basis          ... NOT available

Checking pre-screening integrals            ... done (  0.0 sec) Dimension = 366
Save PGC pre-screening integrals            ... done (  0.0 sec) Dimension = 366
Calculate PGC overlap integrals             ... done (  0.2 sec) Dimension = 294
Calculating pre-screening integrals (ORCA)  ... done (  0.3 sec) Dimension = 294
Check shell pair data                       ... done (  0.0 sec)
Shell pair information
Shell pair cut-off parameter TPreSel        ...   2.5e-12
Total number of shell pairs                 ...     67161
Shell pairs after pre-screening             ...     54165
Total number of primitive shell pairs       ...     87649
Primitive shell pairs kept                  ...     65020
          la=0 lb=0:  12237 shell pairs
          la=1 lb=0:  14043 shell pairs
          la=1 lb=1:   3720 shell pairs
          la=2 lb=0:   9702 shell pairs
          la=2 lb=1:   5152 shell pairs
          la=2 lb=2:   1835 shell pairs
          la=3 lb=0:   3810 shell pairs
          la=3 lb=1:   1981 shell pairs
          la=3 lb=2:   1400 shell pairs
          la=3 lb=3:    285 shell pairs

Calculating one electron integrals          ... done (  0.1 sec)
Calculating RI/J V-Matrix + Cholesky decomp.... done (  0.1 sec)
Calculating Nuclear repulsion               ... done (  0.0 sec) ENN=    648.362623515966 Eh

Diagonalization of the overlap matrix:
Smallest eigenvalue                        ... 4.175e-07
Time for diagonalization                   ...    0.186 sec
Threshold for overlap eigenvalues          ... 1.000e-07
Number of eigenvalues below threshold      ... 0

IMPORTANT:
Smallest eigenvalue of S below the DiffSThresh (1.000e-06) while
Thresh>1e-12 and/or TCut>1e-13! In order to avoid SCF convergence issues,
Thresh will be set to at least 1e-12 and TCut to at least 1e-13.
This can be turned off by adding %SCF DiffSThresh -1 END to the input.

Time for construction of square roots      ...    0.124 sec
Total time needed                          ...    0.334 sec

-------------------
DFT GRID GENERATION
-------------------

General Integration Accuracy     IntAcc      ... 4.388
Radial Grid Type                 RadialGrid  ... OptM3 with GC (2021)
Angular Grid (max. ang.)         AngularGrid ... 4 (Lebedev-302)
Angular grid pruning method      GridPruning ... 4 (adaptive)
Weight generation scheme         WeightScheme... mBecke (2022)
Basis function cutoff            BFCut       ... 1.0000e-11
Integration weight cutoff        WCut        ... 1.0000e-14
Partially contracted basis set               ... off
Rotationally invariant grid construction     ... off
Angular grids for H and He will be reduced by one unit
Diffuse basis detected: some atoms will have their outermost
                        angular grid increased by 1.

Total number of grid points                  ...   121674
Total number of batches                      ...     1914
Average number of points per batch           ...       63
Average number of grid points per atom       ...     4680

---------------------
SHARK GRID GENERATION
---------------------

General Integration Accuracy     IntAcc      ... 4.388
Radial Grid Type                 RadialGrid  ... OptM3 with GC (2021)
Angular Grid (max. ang.)         AngularGrid ... 4 (Lebedev-302)
Angular grid pruning method      GridPruning ... 4 (adaptive)
Weight generation scheme         WeightScheme... mBecke (2022)
Basis function cutoff            BFCut       ... 1.0000e-11
Integration weight cutoff        WCut        ... 1.0000e-14
Partially contracted basis set               ... off
Rotationally invariant grid construction     ... off
Angular grids for H and He will be reduced by one unit
Diffuse basis detected: some atoms will have their outermost
                        angular grid increased by 1.
Steep s-basis detected: some atoms will have their radial
                        grid points doubled.

Total number of grid points                  ...   196430
Total number of batches                      ...     3083
Average number of points per batch           ...       63
Average number of grid points per atom       ...     7555

--------------------
COSX GRID GENERATION
--------------------

GRIDX 1
-------
General Integration Accuracy     IntAcc      ... 3.816
Radial Grid Type                 RadialGrid  ... OptM3 with GC (2021)
Angular Grid (max. ang.)         AngularGrid ... 1 (Lebedev-50)
Angular grid pruning method      GridPruning ... 4 (adaptive)
Weight generation scheme         WeightScheme... mBecke (2022)
Basis function cutoff            BFCut       ... 1.0000e-11
Integration weight cutoff        WCut        ... 1.0000e-14
Partially contracted basis set               ... on
Rotationally invariant grid construction     ... off
Angular grids for H and He will be reduced by one unit
Diffuse basis detected: some atoms will have their outermost
                        angular grid increased by 1.

Total number of grid points                  ...    15255
Total number of batches                      ...      135
Average number of points per batch           ...      113
Average number of grid points per atom       ...      587
UseSFitting                                  ... on

GRIDX 2
-------
General Integration Accuracy     IntAcc      ... 4.020
Radial Grid Type                 RadialGrid  ... OptM3 with GC (2021)
Angular Grid (max. ang.)         AngularGrid ... 2 (Lebedev-110)
Angular grid pruning method      GridPruning ... 4 (adaptive)
Weight generation scheme         WeightScheme... mBecke (2022)
Basis function cutoff            BFCut       ... 1.0000e-11
Integration weight cutoff        WCut        ... 1.0000e-14
Partially contracted basis set               ... on
Rotationally invariant grid construction     ... off
Angular grids for H and He will be reduced by one unit
Diffuse basis detected: some atoms will have their outermost
                        angular grid increased by 1.

Total number of grid points                  ...    35867
Total number of batches                      ...      294
Average number of points per batch           ...      121
Average number of grid points per atom       ...     1380
UseSFitting                                  ... on

GRIDX 3
-------
General Integration Accuracy     IntAcc      ... 4.338
Radial Grid Type                 RadialGrid  ... OptM3 with GC (2021)
Angular Grid (max. ang.)         AngularGrid ... 3 (Lebedev-194)
Angular grid pruning method      GridPruning ... 4 (adaptive)
Weight generation scheme         WeightScheme... mBecke (2022)
Basis function cutoff            BFCut       ... 1.0000e-11
Integration weight cutoff        WCut        ... 1.0000e-14
Partially contracted basis set               ... on
Rotationally invariant grid construction     ... off
Angular grids for H and He will be reduced by one unit
Diffuse basis detected: some atoms will have their outermost
                        angular grid increased by 1.

Total number of grid points                  ...    79805
Total number of batches                      ...      640
Average number of points per batch           ...      124
Average number of grid points per atom       ...     3069
UseSFitting                                  ... on
Initializing property integral containers    ... done (  0.0 sec)

SHARK setup successfully completed in  14.2 seconds

Maximum memory used throughout the entire STARTUP-calculation: 118.2 MB


           ************************************************************
           *        Program running with 4 parallel MPI-processes     *
           *              working on a common directory               *
           ************************************************************
-------------------------------------------------------------------------------
                                 ORCA GUESS
                   Start orbitals & Density for SCF / CASSCF
-------------------------------------------------------------------------------

------------
SCF SETTINGS
------------
Hamiltonian:
 Density Functional     Method          .... DFT(GTOs)
 Exchange Functional    Exchange        .... TPSS
 Correlation Functional Correlation     .... TPSS
 LDA part of GGA corr.  LDAOpt          .... PW91-LDA
 Gradients option       PostSCFGGA      .... off
 Hybrid DFT is turned on
   Fraction HF Exchange ScalHFX         ....  0.100000
   Scaling of DF-GGA-X  ScalDFX         ....  0.900000
   Scaling of DF-GGA-C  ScalDFC         ....  1.000000
   Scaling of DF-LDA-C  ScalLDAC        ....  1.000000
   Perturbative correction              ....  0.000000
   NL short-range parameter             ....  5.200000
 RI-approximation to the Coulomb term is turned on
   Number of AuxJ basis functions       .... 742
   RIJ-COSX (HFX calculated with COS-X)).... on


General Settings:
 Integral files         IntName         .... cs_rporg_019_red_solv_01
 Hartree-Fock type      HFTyp           .... RHF
 Total Charge           Charge          ....    0
 Multiplicity           Mult            ....    1
 Number of Electrons    NEL             ....   86
 Basis Dimension        Dim             ....  874
 Nuclear Repulsion      ENuc            ....    648.3626235160 Eh

Convergence Acceleration:
 AO-DIIS                CNVDIIS         .... on
   Start iteration      DIISMaxIt       ....     0
   Startup error        DIISStart       ....  0.200000
   # of expansion vecs  DIISMaxEq       ....     5
   Bias factor          DIISBfac        ....   1.050
   Max. coefficient     DIISMaxC        ....  10.000
 MO-DIIS                CNVKDIIS        .... off
 Trust-Rad. Augm. Hess. CNVTRAH         .... auto
   Auto Start mean grad. ratio tolernc. ....  1.125000
   Auto Start start iteration           ....    50
   Auto Start num. interpolation iter.  ....    10
   Max. Number of Micro iterations      ....    24
   Max. Number of Macro iterations      .... Maxiter - #DIIS iter
   Number of Davidson start vectors     ....     2
   Converg. threshold    (grad. norm)   ....   1.000e-05
   Grad. Scal. Fac. for Micro threshold ....   0.100
   Minimum threshold for Micro iter.    ....   1.000e-02
   NR start threshold (gradient norm)   ....   1.000e-04
   Initial trust radius                 ....   0.400
   Minimum AH scaling param. (alpha)    ....   1.000
   Maximum AH scaling param. (alpha)    .... 1000.000
   Quad. conv. algorithm                .... NR
   White noise on init. David. guess    .... on
   Maximum white noise                  ....   0.010
   Pseudo random numbers                .... off
   Inactive MOs                         .... canonical
   Orbital update algorithm             .... Taylor
   Preconditioner                       .... Diag
   Full preconditioner red. dimension   ....   250
 SOSCF                  CNVSOSCF        .... on
   Start iteration      SOSCFMaxIt      ....   150
   Startup grad/error   SOSCFStart      ....  0.001000
   Hessian update       SOSCFHessUp     .... L-BFGS
 Level Shifting         CNVShift        .... on
   Level shift para.    LevelShift      ....    0.2500
   Turn off err/grad.   ShiftErr        ....    0.0000
 Zerner damping         CNVZerner       .... off
 Static damping         CNVDamp         .... on
   Fraction old density DampFac         ....    0.8500
   Max. Damping (<1)    DampMax         ....    0.9800
   Min. Damping (>=0)   DampMin         ....    0.0000
   Turn off err/grad.   DampErr         ....    0.0300

SCF Procedure:
 Maximum # iterations   MaxIter         ....  1500
 SCF integral mode      SCFMode         .... Direct
   Integral package                     .... SHARK and LIBINT hybrid scheme
 Reset frequency        DirectResetFreq ....    20
 Integral Threshold     Thresh          ....  1.000e-12 Eh
 Primitive CutOff       TCut            ....  1.000e-13 Eh

Convergence Tolerance:
 Convergence Check Mode ConvCheckMode   .... Total+1el-Energy
 Convergence forced     ConvForced      .... 0
 Energy Change          TolE            ....  1.000e-08 Eh
 1-El. energy change                    ....  1.000e-05 Eh
 Orbital Gradient       TolG            ....  1.000e-05
 Orbital Rotation angle TolX            ....  1.000e-05
 DIIS Error             TolErr          ....  5.000e-07

------------------------------
INITIAL GUESS: MODEL POTENTIAL
------------------------------
Loading Hartree-Fock densities                     ... done
Calculating cut-offs                               ... done
Initializing the effective Hamiltonian             ... done
Setting up the integral package (SHARK)            ... done
Starting the Coulomb interaction                   ... done (   1.5 sec)
Making the grid                                    ... done (   0.6 sec)
Mapping shells                                     ... done
Starting the XC term evaluation                    ... done (   1.7 sec)
  promolecular density results
     # of electrons  =     85.992792305
     EX              =    -65.495050517
     EC              =     -2.841951994
     EX+EC           =    -68.337002510
Transforming the Hamiltonian                       ... done (   0.1 sec)
Diagonalizing the Hamiltonian                      ... done (   0.2 sec)
Back transforming the eigenvectors                 ... done (   0.1 sec)
Now organizing SCF variables                       ... done
                      ------------------
                      INITIAL GUESS DONE (   4.4 sec)
                      ------------------
             **** ENERGY FILE WAS UPDATED (cs_rporg_019_red_solv_01.en.tmp) ****
Finished Guess after   5.5 sec
Maximum memory used throughout the entire GUESS-calculation: 95.0 MB


           ************************************************************
           *        Program running with 4 parallel MPI-processes     *
           *              working on a common directory               *
           ************************************************************

-------------------------------------------------------------------------------------------
                                      ORCA LEAN-SCF
                              memory conserving SCF solver
-------------------------------------------------------------------------------------------

--------------------
CPCM SOLVATION MODEL
--------------------
CPCM parameters:
  Epsilon                                         ...      35.6880
  Refrac                                          ...       1.3442
  Rsolv                                           ...       2.1900
  Surface type                                    ...    GEPOL SES
  Discretization scheme                           ... Constant num. charges
  Epsilon function type                           ...         CPCM
Solvent:                                          ... ACETONITRILE
SMD-CDS solvent descriptors:
  Soln                                            ...       1.3442
  Soln25                                          ...       1.3416
  Sola                                            ...       0.0700
  Solb                                            ...       0.3200
  Solg                                            ...      41.2500
  Solc                                            ...       0.0000
  Solh                                            ...       0.0000
Radii:
  Scheme                                          ... Element-dependent radii
  Radius for C  used is    3.4960 Bohr (=   1.8500 Ang.)
  Radius for H  used is    2.2677 Bohr (=   1.2000 Ang.)
Calculating surface                               ...        done! (  0.1s)
Cavity surface points                             ...          845
Cavity Volume                                     ...    1262.4168
Cavity Surface-area                               ...     709.4759
Calculating surface distance matrix               ...        done! (  0.1s)
Performing Cholesky decomposition & store         ...        done! (  0.0s)
Overall time for CPCM initialization              ...                 0.2s

----------------------------------------D-I-I-S--------------------------------------------
Iteration    Energy (Eh)           Delta-E    RMSDP     MaxDP     DIISErr   Damp  Time(sec)
-------------------------------------------------------------------------------------------
               ***  Starting incremental Fock matrix formation  ***
    1    -465.6252464785528673     0.00e+00  1.12e-03  1.07e-01  1.59e-01  0.850  56.8
    2    -465.6960321772427278    -7.08e-02  1.03e-03  1.01e-01  1.21e-01  0.850  33.0
                               ***Turning on AO-DIIS***
    3    -465.7446823741937578    -4.87e-02  8.01e-04  7.53e-02  8.42e-02  0.850  33.0
    4    -465.7764834725420542    -3.18e-02  6.54e-04  5.69e-02  6.68e-02  0.850  32.0
    5    -465.7994718293404048    -2.30e-02  5.46e-04  4.59e-02  5.57e-02  0.850  31.8
    6    -465.8174418298505088    -1.80e-02  4.60e-04  3.87e-02  4.72e-02  0.850  31.7
    7    -465.8320928389276787    -1.47e-02  3.89e-04  3.33e-02  3.99e-02  0.850  31.3
    8    -465.8441932403085275    -1.21e-02  3.30e-04  2.85e-02  3.34e-02  0.850  31.0
    9    -465.8541617612032724    -9.97e-03  2.80e-04  2.43e-02  2.80e-02  0.850  30.9
   10    -465.8623850228078709    -8.22e-03  1.58e-03  1.38e-01  2.35e-02  0.000  30.5
   11    -465.9051211271722650    -4.27e-02  5.17e-05  4.45e-03  1.48e-03  0.000  32.7
                              *** Initializing SOSCF ***
---------------------------------------S-O-S-C-F--------------------------------------
Iteration    Energy (Eh)           Delta-E    RMSDP     MaxDP     MaxGrad    Time(sec)
--------------------------------------------------------------------------------------
   12    -465.9051520469903380    -3.09e-05  1.19e-05  8.43e-04  4.18e-04    29.3
               *** Restarting incremental Fock matrix formation ***
   13    -465.9051507636548877     1.28e-06  8.08e-04  4.40e-02  5.61e-05    56.1
   14    -465.9051507588320646     4.82e-09  1.94e-04  1.02e-02  1.33e-04    45.7
                 **** Energy Check signals convergence ****

               *****************************************************
               *                     SUCCESS                       *
               *           SCF CONVERGED AFTER  14 CYCLES          *
               *****************************************************

Recomputing exchange energy using gridx3       ... done (   77.242 sec)
Old exchange energy                            :     -6.726087104 Eh
New exchange energy                            :     -6.726095327 Eh
Exchange energy change after final integration :     -0.000008224 Eh
Total energy after final integration           :   -465.905158983 Eh

SMD CDS free energy correction energy :                -3.82353     Kcal/mol
Total Energy after SMD CDS correction =              -465.911252171 Eh
             **** ENERGY FILE WAS UPDATED (cs_rporg_019_red_solv_01.en.tmp) ****

----------------
TOTAL SCF ENERGY
----------------

Total Energy       :       -465.91125217075245 Eh          -12678.08971 eV

Components:
Nuclear Repulsion  :        648.36262351596554 Eh           17642.84393 eV
Electronic Energy  :      -1114.25943953688329 Eh          -30320.54082 eV
One Electron Energy:      -1913.30453467519669 Eh          -52063.66325 eV
Two Electron Energy:        799.04509513831329 Eh           21743.12244 eV
CPCM Dielectric    :         -0.00833473791430 Eh              -0.22680 eV
SMD CDS (Gcds)     :         -0.00609318819703 Eh              -0.16580 eV

Virial components:
Potential Energy   :       -929.01962390287713 Eh          -25279.90917 eV
Kinetic Energy     :        463.10837173212474 Eh           12601.81946 eV
Virial Ratio       :          2.00605232081671

DFT components:
N(Alpha)           :       42.999982475799 electrons
N(Beta)            :       42.999982475799 electrons
N(Total)           :       85.999964951599 electrons
E(X)               :      -60.932343411866 Eh       
E(C)               :       -2.844267586679 Eh       
E(XC)              :      -63.776610998545 Eh       

CPCM Solvation Model Properties:
Surface-charge          :         -0.05691944433255
Corrected charge        :         -0.00000000000000
Outlying charge corr.   :          0.00021482948075 Eh               0.00585 eV
Free-energy (cav+disp)  :         -0.00609318819703 Eh              -0.16580 eV

---------------
SCF CONVERGENCE
---------------

  Last Energy change         ...   -4.8228e-09  Tolerance :   1.0000e-08
  Last MAX-Density change    ...    1.0209e-02  Tolerance :   1.0000e-07
  Last RMS-Density change    ...    1.9446e-04  Tolerance :   5.0000e-09
  Last DIIS Error            ...    4.1832e-04  Tolerance :   5.0000e-07
  Last Orbital Gradient      ...    1.3336e-04  Tolerance :   1.0000e-05
  Last Orbital Rotation      ...    2.4358e-04  Tolerance :   1.0000e-05


----------------
ORBITAL ENERGIES
----------------

  NO   OCC          E(Eh)            E(eV) 
   0   2.0000     -10.123538      -275.4755 
   1   2.0000     -10.115149      -275.2472 
   2   2.0000     -10.115062      -275.2448 
   3   2.0000     -10.114264      -275.2231 
   4   2.0000     -10.113604      -275.2051 
   5   2.0000     -10.113368      -275.1987 
   6   2.0000     -10.113296      -275.1968 
   7   2.0000     -10.107308      -275.0338 
   8   2.0000     -10.107060      -275.0271 
   9   2.0000     -10.105956      -274.9971 
  10   2.0000     -10.101998      -274.8893 
  11   2.0000     -10.101358      -274.8719 
  12   2.0000      -0.840253       -22.8645 
  13   2.0000      -0.809143       -22.0179 
  14   2.0000      -0.749753       -20.4018 
  15   2.0000      -0.725878       -19.7521 
  16   2.0000      -0.714900       -19.4534 
  17   2.0000      -0.693987       -18.8844 
  18   2.0000      -0.605211       -16.4686 
  19   2.0000      -0.595689       -16.2095 
  20   2.0000      -0.569822       -15.5056 
  21   2.0000      -0.556907       -15.1542 
  22   2.0000      -0.502927       -13.6853 
  23   2.0000      -0.485826       -13.2200 
  24   2.0000      -0.454936       -12.3794 
  25   2.0000      -0.434053       -11.8112 
  26   2.0000      -0.429350       -11.6832 
  27   2.0000      -0.412869       -11.2347 
  28   2.0000      -0.403568       -10.9816 
  29   2.0000      -0.396828       -10.7982 
  30   2.0000      -0.387717       -10.5503 
  31   2.0000      -0.374435       -10.1889 
  32   2.0000      -0.364336        -9.9141 
  33   2.0000      -0.355044        -9.6612 
  34   2.0000      -0.348599        -9.4859 
  35   2.0000      -0.328565        -8.9407 
  36   2.0000      -0.320856        -8.7309 
  37   2.0000      -0.304576        -8.2879 
  38   2.0000      -0.292995        -7.9728 
  39   2.0000      -0.285030        -7.7561 
  40   2.0000      -0.264462        -7.1964 
  41   2.0000      -0.245082        -6.6690 
  42   2.0000      -0.208903        -5.6845 
  43   0.0000      -0.041746        -1.1360 
  44   0.0000      -0.023402        -0.6368 
  45   0.0000      -0.004849        -0.1319 
  46   0.0000       0.004869         0.1325 
  47   0.0000       0.009911         0.2697 
  48   0.0000       0.013793         0.3753 
  49   0.0000       0.021320         0.5801 
  50   0.0000       0.023617         0.6427 
  51   0.0000       0.026875         0.7313 
  52   0.0000       0.033090         0.9004 
  53   0.0000       0.035575         0.9680 
*Only the first 10 virtual orbitals were printed.

                    ********************************
                    * MULLIKEN POPULATION ANALYSIS *
                    ********************************

-----------------------
MULLIKEN ATOMIC CHARGES
-----------------------
   0 C :   -0.793528
   1 C :   -0.687529
   2 C :   -0.068677
   3 C :   -0.759891
   4 C :   -0.718773
   5 C :    1.609431
   6 C :    1.303632
   7 C :   -0.925087
   8 C :    0.161569
   9 C :    0.042101
  10 C :   -0.147691
  11 C :    0.033116
  12 H :    0.058331
  13 H :    0.128154
  14 H :   -0.092385
  15 H :    0.047136
  16 H :   -0.050120
  17 H :    0.064400
  18 H :    0.086580
  19 H :    0.031617
  20 H :   -0.147309
  21 H :   -0.135301
  22 H :    0.349847
  23 H :    0.425994
  24 H :    0.391254
  25 H :   -0.206870
Sum of atomic charges:    0.0000000

--------------------------------
MULLIKEN REDUCED ORBITAL CHARGES
--------------------------------
  0 C s       :     3.872693  s :     3.872693
      pz      :     1.005133  p :     2.646614
      px      :     0.706337
      py      :     0.935144
      dz2     :    -0.000852  d :     0.288774
      dxz     :     0.017097
      dyz     :    -0.019734
      dx2y2   :    -0.018645
      dxy     :     0.310908
      f0      :     0.000073  f :    -0.014553
      f+1     :     0.000926
      f-1     :     0.000465
      f+2     :    -0.002382
      f-2     :     0.000060
      f+3     :     0.002957
      f-3     :    -0.016652

  1 C s       :     3.600388  s :     3.600388
      pz      :     0.967833  p :     2.854694
      px      :     1.069934
      py      :     0.816927
      dz2     :     0.003197  d :     0.245023
      dxz     :     0.050285
      dyz     :     0.015548
      dx2y2   :    -0.004159
      dxy     :     0.180152
      f0      :     0.000490  f :    -0.012576
      f+1     :     0.000407
      f-1     :     0.000515
      f+2     :    -0.001949
      f-2     :     0.001044
      f+3     :     0.001467
      f-3     :    -0.014550

  2 C s       :     3.346297  s :     3.346297
      pz      :     0.954145  p :     2.700377
      px      :     0.815458
      py      :     0.930774
      dz2     :    -0.019212  d :     0.032401
      dxz     :    -0.008227
      dyz     :     0.036207
      dx2y2   :    -0.018881
      dxy     :     0.042515
      f0      :     0.000532  f :    -0.010399
      f+1     :     0.001187
      f-1     :    -0.000042
      f+2     :    -0.000231
      f-2     :    -0.000596
      f+3     :     0.000880
      f-3     :    -0.012129

  3 C s       :     3.652725  s :     3.652725
      pz      :     0.949387  p :     2.865809
      px      :     1.094579
      py      :     0.821843
      dz2     :     0.002650  d :     0.252113
      dxz     :     0.047836
      dyz     :     0.011574
      dx2y2   :     0.001922
      dxy     :     0.188131
      f0      :     0.000475  f :    -0.010756
      f+1     :     0.000420
      f-1     :     0.000502
      f+2     :    -0.001670
      f-2     :     0.000731
      f+3     :     0.001561
      f-3     :    -0.012776

  4 C s       :     3.905441  s :     3.905441
      pz      :     1.025609  p :     2.523268
      px      :     0.626066
      py      :     0.871593
      dz2     :    -0.007168  d :     0.303287
      dxz     :     0.010809
      dyz     :     0.000776
      dx2y2   :     0.001334
      dxy     :     0.297537
      f0      :     0.000420  f :    -0.013223
      f+1     :     0.000432
      f-1     :     0.000221
      f+2     :    -0.002056
      f-2     :     0.000336
      f+3     :     0.003981
      f-3     :    -0.016558

  5 C s       :     2.883049  s :     2.883049
      pz      :     0.970776  p :     1.737031
      px      :     0.227973
      py      :     0.538281
      dz2     :    -0.019415  d :    -0.134684
      dxz     :    -0.045239
      dyz     :    -0.030579
      dx2y2   :     0.024691
      dxy     :    -0.064142
      f0      :     0.000300  f :    -0.094826
      f+1     :    -0.004184
      f-1     :    -0.001039
      f+2     :    -0.000288
      f-2     :    -0.002759
      f+3     :    -0.011457
      f-3     :    -0.075399

  6 C s       :     2.914179  s :     2.914179
      pz      :     1.043536  p :     1.813269
      px      :     0.112495
      py      :     0.657237
      dz2     :     0.029246  d :     0.047882
      dxz     :    -0.057076
      dyz     :     0.045079
      dx2y2   :     0.040056
      dxy     :    -0.009423
      f0      :    -0.000383  f :    -0.078961
      f+1     :    -0.002510
      f-1     :    -0.001312
      f+2     :    -0.000660
      f-2     :    -0.001482
      f+3     :    -0.010249
      f-3     :    -0.062365

  7 C s       :     3.943409  s :     3.943409
      pz      :     1.006960  p :     2.810688
      px      :     0.907821
      py      :     0.895906
      dz2     :     0.004251  d :     0.192606
      dxz     :     0.043030
      dyz     :     0.001130
      dx2y2   :     0.027622
      dxy     :     0.116574
      f0      :    -0.000003  f :    -0.021616
      f+1     :     0.001348
      f-1     :    -0.000185
      f+2     :    -0.003378
      f-2     :    -0.002143
      f+3     :    -0.000348
      f-3     :    -0.016908

  8 C s       :     3.003078  s :     3.003078
      pz      :     0.914631  p :     2.764164
      px      :     0.863887
      py      :     0.985646
      dz2     :    -0.009603  d :     0.067423
      dxz     :    -0.013707
      dyz     :     0.044072
      dx2y2   :     0.012070
      dxy     :     0.034590
      f0      :     0.003120  f :     0.003767
      f+1     :    -0.001866
      f-1     :     0.003558
      f+2     :     0.002500
      f-2     :    -0.000206
      f+3     :    -0.000655
      f-3     :    -0.002683

  9 C s       :     3.045884  s :     3.045884
      pz      :     0.964442  p :     2.802454
      px      :     0.894254
      py      :     0.943758
      dz2     :     0.040409  d :     0.095597
      dxz     :    -0.001156
      dyz     :     0.023056
      dx2y2   :    -0.002097
      dxy     :     0.035384
      f0      :     0.001698  f :     0.013963
      f+1     :     0.000284
      f-1     :     0.001559
      f+2     :     0.002436
      f-2     :    -0.000269
      f+3     :     0.004635
      f-3     :     0.003620

 10 C s       :     3.150958  s :     3.150958
      pz      :     0.951826  p :     2.856892
      px      :     0.990254
      py      :     0.914812
      dz2     :     0.027343  d :     0.127206
      dxz     :     0.018947
      dyz     :     0.020308
      dx2y2   :     0.032228
      dxy     :     0.028380
      f0      :     0.000427  f :     0.012635
      f+1     :     0.000277
      f-1     :     0.001831
      f+2     :     0.001023
      f-2     :    -0.000201
      f+3     :     0.007120
      f-3     :     0.002158

 11 C s       :     3.129031  s :     3.129031
      pz      :     0.929862  p :     2.754609
      px      :     0.950787
      py      :     0.873960
      dz2     :    -0.016136  d :     0.077727
      dxz     :    -0.007558
      dyz     :     0.012572
      dx2y2   :     0.039308
      dxy     :     0.049541
      f0      :    -0.000030  f :     0.005517
      f+1     :     0.003110
      f-1     :     0.003126
      f+2     :    -0.002445
      f-2     :     0.000891
      f+3     :     0.001706
      f-3     :    -0.000842

 12 H s       :     0.892470  s :     0.892470
      pz      :     0.003105  p :     0.036084
      px      :     0.018232
      py      :     0.014748
      dz2     :     0.002927  d :     0.013114
      dxz     :     0.000712
      dyz     :     0.002091
      dx2y2   :     0.004747
      dxy     :     0.002637

 13 H s       :     0.822175  s :     0.822175
      pz      :     0.001569  p :     0.037771
      px      :     0.013404
      py      :     0.022798
      dz2     :     0.002181  d :     0.011900
      dxz     :     0.003411
      dyz     :     0.001579
      dx2y2   :     0.002757
      dxy     :     0.001972

 14 H s       :     1.049607  s :     1.049607
      pz      :     0.009645  p :     0.028766
      px      :     0.021956
      py      :    -0.002835
      dz2     :     0.000661  d :     0.014012
      dxz     :     0.001270
      dyz     :     0.004483
      dx2y2   :     0.005441
      dxy     :     0.002156

 15 H s       :     0.896124  s :     0.896124
      pz      :     0.024485  p :     0.043325
      px      :     0.023584
      py      :    -0.004744
      dz2     :     0.003790  d :     0.013416
      dxz     :     0.005173
      dyz     :     0.001649
      dx2y2   :     0.001620
      dxy     :     0.001185

 16 H s       :     1.005738  s :     1.005738
      pz      :     0.009688  p :     0.031019
      px      :     0.007012
      py      :     0.014319
      dz2     :     0.001760  d :     0.013363
      dxz     :     0.002758
      dyz     :     0.000954
      dx2y2   :     0.001210
      dxy     :     0.006680

 17 H s       :     0.875430  s :     0.875430
      pz      :     0.022602  p :     0.047980
      px      :    -0.002546
      py      :     0.027924
      dz2     :     0.002013  d :     0.012190
      dxz     :     0.004093
      dyz     :     0.003257
      dx2y2   :     0.001593
      dxy     :     0.001234

 18 H s       :     0.853007  s :     0.853007
      pz      :     0.004099  p :     0.049434
      px      :     0.023152
      py      :     0.022182
      dz2     :     0.002881  d :     0.010980
      dxz     :     0.001374
      dyz     :     0.001737
      dx2y2   :     0.003010
      dxy     :     0.001977

 19 H s       :     0.920404  s :     0.920404
      pz      :     0.005007  p :     0.035557
      px      :     0.011734
      py      :     0.018815
      dz2     :     0.002376  d :     0.012421
      dxz     :     0.002010
      dyz     :     0.001846
      dx2y2   :     0.003839
      dxy     :     0.002350

 20 H s       :     1.068264  s :     1.068264
      pz      :     0.022975  p :     0.066948
      px      :     0.011959
      py      :     0.032014
      dz2     :     0.001059  d :     0.012097
      dxz     :     0.001968
      dyz     :     0.001513
      dx2y2   :     0.004624
      dxy     :     0.002933

 21 H s       :     1.063633  s :     1.063633
      pz      :     0.044476  p :     0.063049
      px      :    -0.028717
      py      :     0.047289
      dz2     :     0.000968  d :     0.008619
      dxz     :     0.002268
      dyz     :     0.002282
      dx2y2   :     0.002394
      dxy     :     0.000707

 22 H s       :     0.618745  s :     0.618745
      pz      :     0.022064  p :     0.023703
      px      :    -0.003533
      py      :     0.005172
      dz2     :     0.000773  d :     0.007705
      dxz     :     0.000949
      dyz     :     0.002835
      dx2y2   :     0.001394
      dxy     :     0.001754

 23 H s       :     0.577271  s :     0.577271
      pz      :     0.015843  p :    -0.010033
      px      :    -0.022105
      py      :    -0.003771
      dz2     :    -0.000553  d :     0.006768
      dxz     :     0.004921
      dyz     :    -0.000114
      dx2y2   :     0.000957
      dxy     :     0.001557

 24 H s       :     0.587777  s :     0.587777
      pz      :     0.020799  p :     0.013466
      px      :    -0.011813
      py      :     0.004479
      dz2     :     0.000782  d :     0.007504
      dxz     :     0.001046
      dyz     :     0.002640
      dx2y2   :     0.001412
      dxy     :     0.001623

 25 H s       :     1.120696  s :     1.120696
      pz      :     0.038597  p :     0.077228
      px      :     0.000899
      py      :     0.037732
      dz2     :     0.001393  d :     0.008947
      dxz     :     0.001614
      dyz     :     0.002007
      dx2y2   :     0.002934
      dxy     :     0.001000



                     *******************************
                     * LOEWDIN POPULATION ANALYSIS *
                     *******************************

----------------------
LOEWDIN ATOMIC CHARGES
----------------------
   0 C :    0.202726
   1 C :    0.188758
   2 C :    0.180274
   3 C :    0.189459
   4 C :    0.205134
   5 C :   -0.122953
   6 C :   -0.080712
   7 C :    0.254597
   8 C :    0.266640
   9 C :    0.271013
  10 C :    0.276926
  11 C :    0.262320
  12 H :   -0.132039
  13 H :   -0.129695
  14 H :   -0.128753
  15 H :   -0.126360
  16 H :   -0.130697
  17 H :   -0.128806
  18 H :   -0.131502
  19 H :   -0.137779
  20 H :   -0.174205
  21 H :   -0.178708
  22 H :   -0.171532
  23 H :   -0.174607
  24 H :   -0.171765
  25 H :   -0.177733

-------------------------------
LOEWDIN REDUCED ORBITAL CHARGES
-------------------------------
  0 C s       :     2.475684  s :     2.475684
      pz      :     0.624640  p :     2.270372
      px      :     0.844042
      py      :     0.801690
      dz2     :     0.070862  d :     0.709012
      dxz     :     0.123673
      dyz     :     0.069156
      dx2y2   :     0.207180
      dxy     :     0.238142
      f0      :     0.023753  f :     0.342206
      f+1     :     0.030398
      f-1     :     0.022785
      f+2     :     0.051486
      f-2     :     0.030397
      f+3     :     0.057983
      f-3     :     0.125405

  1 C s       :     2.490999  s :     2.490999
      pz      :     0.623678  p :     2.288301
      px      :     0.846854
      py      :     0.817769
      dz2     :     0.068802  d :     0.697833
      dxz     :     0.117224
      dyz     :     0.070646
      dx2y2   :     0.190106
      dxy     :     0.251055
      f0      :     0.022651  f :     0.334111
      f+1     :     0.027558
      f-1     :     0.024177
      f+2     :     0.053214
      f-2     :     0.026030
      f+3     :     0.054394
      f-3     :     0.126086

  2 C s       :     2.493062  s :     2.493062
      pz      :     0.628399  p :     2.295650
      px      :     0.829556
      py      :     0.837696
      dz2     :     0.076700  d :     0.698064
      dxz     :     0.050168
      dyz     :     0.131576
      dx2y2   :     0.276070
      dxy     :     0.163550
      f0      :     0.020818  f :     0.332950
      f+1     :     0.025556
      f-1     :     0.027092
      f+2     :     0.029016
      f-2     :     0.055343
      f+3     :     0.054894
      f-3     :     0.120231

  3 C s       :     2.490619  s :     2.490619
      pz      :     0.622000  p :     2.287571
      px      :     0.846181
      py      :     0.819390
      dz2     :     0.068241  d :     0.698008
      dxz     :     0.116742
      dyz     :     0.068577
      dx2y2   :     0.196855
      dxy     :     0.247593
      f0      :     0.022206  f :     0.334343
      f+1     :     0.028928
      f-1     :     0.023171
      f+2     :     0.050638
      f-2     :     0.027225
      f+3     :     0.054854
      f-3     :     0.127320

  4 C s       :     2.474384  s :     2.474384
      pz      :     0.620198  p :     2.271358
      px      :     0.841337
      py      :     0.809823
      dz2     :     0.070510  d :     0.707311
      dxz     :     0.119902
      dyz     :     0.069204
      dx2y2   :     0.203315
      dxy     :     0.244381
      f0      :     0.023138  f :     0.341813
      f+1     :     0.028979
      f-1     :     0.023724
      f+2     :     0.052581
      f-2     :     0.028314
      f+3     :     0.058617
      f-3     :     0.126461

  5 C s       :     2.457368  s :     2.457368
      pz      :     0.619348  p :     2.255321
      px      :     0.811993
      py      :     0.823980
      dz2     :     0.094402  d :     0.917486
      dxz     :     0.147748
      dyz     :     0.133030
      dx2y2   :     0.282569
      dxy     :     0.259737
      f0      :     0.032601  f :     0.492778
      f+1     :     0.039343
      f-1     :     0.031251
      f+2     :     0.064237
      f-2     :     0.063300
      f+3     :     0.076161
      f-3     :     0.185886

  6 C s       :     2.454519  s :     2.454519
      pz      :     0.626858  p :     2.247217
      px      :     0.801515
      py      :     0.818845
      dz2     :     0.086233  d :     0.908339
      dxz     :     0.129777
      dyz     :     0.157273
      dx2y2   :     0.287047
      dxy     :     0.248008
      f0      :     0.034903  f :     0.470637
      f+1     :     0.031937
      f-1     :     0.030113
      f+2     :     0.070462
      f-2     :     0.050017
      f+3     :     0.075414
      f-3     :     0.177792

  7 C s       :     2.470521  s :     2.470521
      pz      :     0.614944  p :     2.244688
      px      :     0.798676
      py      :     0.831068
      dz2     :     0.061991  d :     0.707318
      dxz     :     0.140318
      dyz     :     0.070957
      dx2y2   :     0.202629
      dxy     :     0.231423
      f0      :     0.027894  f :     0.322876
      f+1     :     0.022783
      f-1     :     0.019895
      f+2     :     0.050185
      f-2     :     0.029510
      f+3     :     0.055120
      f-3     :     0.117489

  8 C s       :     2.428069  s :     2.428069
      pz      :     0.755449  p :     2.233051
      px      :     0.737307
      py      :     0.740295
      dz2     :     0.093760  d :     0.747468
      dxz     :     0.115566
      dyz     :     0.179109
      dx2y2   :     0.178399
      dxy     :     0.180634
      f0      :     0.034210  f :     0.324772
      f+1     :     0.030010
      f-1     :     0.028756
      f+2     :     0.048754
      f-2     :     0.032562
      f+3     :     0.044323
      f-3     :     0.106158

  9 C s       :     2.422295  s :     2.422295
      pz      :     0.741623  p :     2.214497
      px      :     0.751521
      py      :     0.721353
      dz2     :     0.177347  d :     0.759642
      dxz     :     0.061632
      dyz     :     0.186203
      dx2y2   :     0.215125
      dxy     :     0.119336
      f0      :     0.052086  f :     0.332553
      f+1     :     0.029274
      f-1     :     0.041134
      f+2     :     0.059534
      f-2     :     0.037496
      f+3     :     0.038158
      f-3     :     0.074871

 10 C s       :     2.420345  s :     2.420345
      pz      :     0.739487  p :     2.210378
      px      :     0.720047
      py      :     0.750843
      dz2     :     0.189794  d :     0.758769
      dxz     :     0.133253
      dyz     :     0.106906
      dx2y2   :     0.149092
      dxy     :     0.179724
      f0      :     0.044617  f :     0.333581
      f+1     :     0.045291
      f-1     :     0.039308
      f+2     :     0.057054
      f-2     :     0.037665
      f+3     :     0.043545
      f-3     :     0.066101

 11 C s       :     2.414650  s :     2.414650
      pz      :     0.749116  p :     2.221965
      px      :     0.734022
      py      :     0.738828
      dz2     :     0.096206  d :     0.766760
      dxz     :     0.145061
      dyz     :     0.171898
      dx2y2   :     0.172521
      dxy     :     0.181073
      f0      :     0.024948  f :     0.334304
      f+1     :     0.044972
      f-1     :     0.036327
      f+2     :     0.045225
      f-2     :     0.038304
      f+3     :     0.044159
      f-3     :     0.100369

 12 H s       :     0.607439  s :     0.607439
      pz      :     0.114681  p :     0.297284
      px      :     0.094603
      py      :     0.088000
      dz2     :     0.069153  d :     0.227317
      dxz     :     0.039643
      dyz     :     0.046204
      dx2y2   :     0.043057
      dxy     :     0.029259

 13 H s       :     0.602971  s :     0.602971
      pz      :     0.121321  p :     0.299047
      px      :     0.082951
      py      :     0.094776
      dz2     :     0.071865  d :     0.227676
      dxz     :     0.050937
      dyz     :     0.042548
      dx2y2   :     0.033279
      dxy     :     0.029047

 14 H s       :     0.626339  s :     0.626339
      pz      :     0.078174  p :     0.285698
      px      :     0.085552
      py      :     0.121972
      dz2     :     0.016743  d :     0.216716
      dxz     :     0.015668
      dyz     :     0.068755
      dx2y2   :     0.067501
      dxy     :     0.048050

 15 H s       :     0.615344  s :     0.615344
      pz      :     0.122019  p :     0.290799
      px      :     0.074406
      py      :     0.094374
      dz2     :     0.060725  d :     0.220218
      dxz     :     0.060289
      dyz     :     0.060209
      dx2y2   :     0.020294
      dxy     :     0.018701

 16 H s       :     0.627812  s :     0.627812
      pz      :     0.082607  p :     0.286460
      px      :     0.127967
      py      :     0.075886
      dz2     :     0.026093  d :     0.216425
      dxz     :     0.066781
      dyz     :     0.011231
      dx2y2   :     0.039288
      dxy     :     0.073031

 17 H s       :     0.616422  s :     0.616422
      pz      :     0.125262  p :     0.291618
      px      :     0.081970
      py      :     0.084385
      dz2     :     0.061724  d :     0.220767
      dxz     :     0.064823
      dyz     :     0.056710
      dx2y2   :     0.021252
      dxy     :     0.016258

 18 H s       :     0.615870  s :     0.615870
      pz      :     0.123715  p :     0.294150
      px      :     0.082917
      py      :     0.087517
      dz2     :     0.076914  d :     0.221481
      dxz     :     0.038891
      dyz     :     0.044614
      dx2y2   :     0.035739
      dxy     :     0.025322

 19 H s       :     0.622155  s :     0.622155
      pz      :     0.122191  p :     0.293499
      px      :     0.081213
      py      :     0.090096
      dz2     :     0.076549  d :     0.222125
      dxz     :     0.040029
      dyz     :     0.043401
      dx2y2   :     0.037423
      dxy     :     0.024723

 20 H s       :     0.639139  s :     0.639139
      pz      :     0.082789  p :     0.309378
      px      :     0.107107
      py      :     0.119482
      dz2     :     0.027101  d :     0.225689
      dxz     :     0.020034
      dyz     :     0.050864
      dx2y2   :     0.076999
      dxy     :     0.050691

 21 H s       :     0.639607  s :     0.639607
      pz      :     0.084066  p :     0.312949
      px      :     0.111147
      py      :     0.117736
      dz2     :     0.028477  d :     0.226151
      dxz     :     0.023659
      dyz     :     0.044822
      dx2y2   :     0.076789
      dxy     :     0.052405

 22 H s       :     0.665277  s :     0.665277
      pz      :     0.084253  p :     0.296129
      px      :     0.089933
      py      :     0.121942
      dz2     :     0.026060  d :     0.210126
      dxz     :     0.019462
      dyz     :     0.045975
      dx2y2   :     0.066689
      dxy     :     0.051940

 23 H s       :     0.667905  s :     0.667905
      pz      :     0.081483  p :     0.297387
      px      :     0.139824
      py      :     0.076079
      dz2     :     0.021341  d :     0.209315
      dxz     :     0.060594
      dyz     :     0.003946
      dx2y2   :     0.044657
      dxy     :     0.078777

 24 H s       :     0.665359  s :     0.665359
      pz      :     0.084405  p :     0.296201
      px      :     0.091834
      py      :     0.119962
      dz2     :     0.026064  d :     0.210205
      dxz     :     0.021102
      dyz     :     0.044601
      dx2y2   :     0.068396
      dxy     :     0.050042

 25 H s       :     0.640980  s :     0.640980
      pz      :     0.085438  p :     0.311440
      px      :     0.107365
      py      :     0.118638
      dz2     :     0.027989  d :     0.225312
      dxz     :     0.026818
      dyz     :     0.045606
      dx2y2   :     0.072051
      dxy     :     0.052849



                      *****************************
                      * MAYER POPULATION ANALYSIS *
                      *****************************

  NA   - Mulliken gross atomic population
  ZA   - Total nuclear charge
  QA   - Mulliken gross atomic charge
  VA   - Mayer's total valence
  BVA  - Mayer's bonded valence
  FA   - Mayer's free valence

  ATOM       NA         ZA         QA         VA         BVA        FA
  0 C      6.7935     6.0000    -0.7935     3.3571     3.3571     0.0000
  1 C      6.6875     6.0000    -0.6875     3.4692     3.4692     0.0000
  2 C      6.0687     6.0000    -0.0687     3.2828     3.2828     0.0000
  3 C      6.7599     6.0000    -0.7599     3.3729     3.3729    -0.0000
  4 C      6.7188     6.0000    -0.7188     2.9902     2.9902    -0.0000
  5 C      4.3906     6.0000     1.6094     0.5742     0.5742    -0.0000
  6 C      4.6964     6.0000     1.3036     1.3509     1.3509    -0.0000
  7 C      6.9251     6.0000    -0.9251     3.4200     3.4200     0.0000
  8 C      5.8384     6.0000     0.1616     3.8649     3.8649     0.0000
  9 C      5.9579     6.0000     0.0421     4.2216     4.2216     0.0000
 10 C      6.1477     6.0000    -0.1477     4.3715     4.3715    -0.0000
 11 C      5.9669     6.0000     0.0331     4.0352     4.0352     0.0000
 12 H      0.9417     1.0000     0.0583     0.8818     0.8818     0.0000
 13 H      0.8718     1.0000     0.1282     0.9112     0.9112     0.0000
 14 H      1.0924     1.0000    -0.0924     0.9365     0.9365     0.0000
 15 H      0.9529     1.0000     0.0471     0.9919     0.9919    -0.0000
 16 H      1.0501     1.0000    -0.0501     0.9410     0.9410     0.0000
 17 H      0.9356     1.0000     0.0644     1.0085     1.0085     0.0000
 18 H      0.9134     1.0000     0.0866     0.9890     0.9890     0.0000
 19 H      0.9684     1.0000     0.0316     0.9428     0.9428    -0.0000
 20 H      1.1473     1.0000    -0.1473     1.1983     1.1983     0.0000
 21 H      1.1353     1.0000    -0.1353     1.3462     1.3462    -0.0000
 22 H      0.6502     1.0000     0.3498     0.8515     0.8515    -0.0000
 23 H      0.5740     1.0000     0.4260     0.6408     0.6408     0.0000
 24 H      0.6087     1.0000     0.3913     0.7312     0.7312     0.0000
 25 H      1.2069     1.0000    -0.2069     1.3679     1.3679     0.0000

  Mayer bond orders larger than 0.100000
B(  0-C ,  1-C ) :   1.4609 B(  0-C ,  2-C ) :  -0.1034 B(  0-C ,  3-C ) :   0.1414 
B(  0-C ,  4-C ) :  -0.5565 B(  0-C ,  5-C ) :   0.4007 B(  0-C ,  6-C ) :   0.2453 
B(  0-C , 25-H ) :   1.6078 B(  1-C ,  2-C ) :   1.3611 B(  1-C ,  3-C ) :   0.1982 
B(  1-C ,  4-C ) :   0.1223 B(  1-C , 24-H ) :   0.5432 B(  2-C ,  3-C ) :   1.3890 
B(  2-C ,  5-C ) :  -0.2305 B(  2-C ,  6-C ) :   0.2699 B(  2-C , 22-H ) :   0.1043 
B(  2-C , 23-H ) :   0.5316 B(  2-C , 24-H ) :   0.1062 B(  3-C ,  4-C ) :   1.3777 
B(  3-C ,  5-C ) :  -0.2124 B(  3-C , 22-H ) :   0.5913 B(  4-C ,  5-C ) :   0.3233 
B(  4-C , 21-H ) :   1.5502 B(  5-C ,  6-C ) :  -0.1570 B(  5-C ,  7-C ) :   0.2535 
B(  5-C , 22-H ) :   0.1989 B(  5-C , 24-H ) :   0.1745 B(  5-C , 25-H ) :  -0.1008 
B(  6-C ,  7-C ) :   0.6760 B(  6-C , 11-C ) :   0.8965 B(  6-C , 20-H ) :  -0.2049 
B(  6-C , 21-H ) :  -0.3249 B(  6-C , 25-H ) :  -0.2044 B(  7-C ,  8-C ) :   0.8583 
B(  7-C , 20-H ) :   1.4372 B(  8-C ,  9-C ) :   1.0708 B(  8-C , 18-H ) :   0.9534 
B(  8-C , 19-H ) :   0.9386 B(  9-C , 10-C ) :   1.0681 B(  9-C , 16-H ) :   0.9753 
B(  9-C , 17-H ) :   0.9424 B( 10-C , 11-C ) :   1.1078 B( 10-C , 14-H ) :   0.9846 
B( 10-C , 15-H ) :   0.9582 B( 11-C , 12-H ) :   0.9270 B( 11-C , 13-H ) :   0.9328 
B( 21-H , 25-H ) :   0.1915 

-------
TIMINGS
-------

Total SCF time: 0 days 0 hours 9 min 45 sec 

Total time                  ....     585.564 sec
Sum of individual times     ....     585.295 sec  (100.0%)

SCF preparation             ....       1.343 sec  (  0.2%)
Fock matrix formation       ....     570.145 sec  ( 97.4%)
  Startup                   ....       0.627 sec  (  0.1% of F)
  Split-RI-J                ....      29.241 sec  (  5.1% of F)
  Chain of spheres X        ....     340.520 sec  ( 59.7% of F)
  XC integration            ....     184.284 sec  ( 32.3% of F)
    XC Preparation          ....       0.000 sec  (  0.0% of XC)
    Basis function eval.    ....      13.633 sec  (  7.4% of XC)
    Density eval.           ....      70.650 sec  ( 38.3% of XC)
    XC-Functional eval.     ....       1.232 sec  (  0.7% of XC)
    XC-Potential eval.      ....      93.847 sec  ( 50.9% of XC)
  CPCM terms                ....      13.742 sec  (  2.4% of F)
Diagonalization             ....       0.000 sec  (  0.0%)
Density matrix formation    ....       1.391 sec  (  0.2%)
Total Energy calculation    ....       0.681 sec  (  0.1%)
Population analysis         ....       0.454 sec  (  0.1%)
Orbital Transformation      ....       1.056 sec  (  0.2%)
Orbital Orthonormalization  ....       0.000 sec  (  0.0%)
DIIS solution               ....       9.042 sec  (  1.5%)
SOSCF solution              ....       1.183 sec  (  0.2%)
Finished LeanSCF after 585.8 sec

Maximum memory used throughout the entire LEANSCF-calculation: 162.6 MB


-------------------------------------------------------------------------------
                          DFT DISPERSION CORRECTION                            
                                                                               
                              DFTD3 V3.1  Rev 1                                
                          USING Becke-Johnson damping                          
-------------------------------------------------------------------------------
The TPSSH functional is recognized
Active option DFTDOPT                   ...         4   

molecular C6(AA) [au] = 6691.891401 


            DFT-D V3
 parameters
 s6 scaling factor         :     1.0000 
 a1 scaling factor         :     0.4529 
 s8 scaling factor         :     2.2382 
 a2 scaling factor         :     4.6550 
 ad hoc parameters k1-k3   :    16.0000     1.3333    -4.0000 

 Edisp/kcal,au: -21.556489158996  -0.034352448450 
 E6   /kcal   : -10.388231490 
 E8   /kcal   : -11.168257669 
 % E8         :  51.809260713 

-------------------------   ----------------
Dispersion correction           -0.034352448
-------------------------   ----------------


-------------------------   --------------------
FINAL SINGLE POINT ENERGY      -465.945604619202
-------------------------   --------------------



           ************************************************************
           *        Program running with 4 parallel MPI-processes     *
           *              working on a common directory               *
           ************************************************************

------------------------------------------------------------------------------
                              ORCA PROPERTY CALCULATIONS
------------------------------------------------------------------------------

GBWName                                 ... cs_rporg_019_red_solv_01.gbw
Number of atoms                         ...     26
Number of basis functions               ...    946
Max core memory                         ...   3000 MB

Electric properties:
Dipole moment                           ... YES
Quadrupole moment                       ...  NO
Static polarizability (Dipole/Dipole)   ...  NO
Static polarizability (Dipole/Quad.)    ...  NO
Static polarizability (Quad./Quad.)     ...  NO
Static polarizability (Velocity)        ...  NO

Atomic electric properties:
Dipole moment                           ...  NO
Quadrupole moment                       ...  NO
Static polarizability                   ...  NO

Choice of electric origin               ... Center of mass
Position of electric origin             ...     0.006694    -0.006313    -0.005137

General magnetic properties:
Magnetizability                         ...  NO

EPR properties:
g-Tensor (aka g-matrix)                 ...  NO
Zero-Field splitting spin-orbit         ...  NO
Zero-field splitting spin-spin          ...  NO
Hyperfine couplings                     ...  NO (   0 nuclei)
Quadrupole couplings                    ...  NO (   0 nuclei)
Contact density                         ...  NO (   0 nuclei)

NMR properties:
Chemical shifts                         ...  NO (   0 nuclei)
Spin-rotation constants                 ...  NO (   0 nuclei)
Spin-spin couplings                     ...  NO (   0 nuclei,    0 pairs)

Choice of magnetic origin               ... GIAO
Position of magnetic origin             ...     0.000000     0.000000     0.000000

Properties with geometric perturbations:
SCF Hessian                             ...  NO
IR spectrum                             ...  NO
VCD spectrum                            ...  NO
X-ray spectroscopy properties:
SCF XES/XAS/RIXS spectra                ...  NO


-------------
DIPOLE MOMENT
-------------

Method             : SCF
Type of density    : Electron Density
Multiplicity       :   1
Irrep              :   0
Energy             :  -465.9112521707524479 Eh
Relativity type    : 
Basis              : AO
                                X                 Y                 Z
Electronic contribution:      8.890245127      -1.032832154       0.290067973
Nuclear contribution   :     -9.297439936       1.076513750      -0.312023061
                        -----------------------------------------
Total Dipole Moment    :     -0.407194809       0.043681596      -0.021955088
                        -----------------------------------------
Magnitude (a.u.)       :      0.410119153
Magnitude (Debye)      :      1.042440044



--------------------
Rotational spectrum 
--------------------
 
Rotational constants in cm-1:             0.085540             0.017249             0.015002 
Rotational constants in MHz :          2564.428727           517.115238           449.743228 

Dipole components along the rotational axes: 
x,y,z [a.u.] :    -0.407309     0.043252    -0.020656 
x,y,z [Debye]:    -1.035296     0.109937    -0.052502 

 

Dipole moment calculation done in   0.1 sec 

Maximum memory used throughout the entire PROP-calculation: 97.5 MB

--------------------------------
SUGGESTED CITATIONS FOR THIS RUN
--------------------------------

Below you find a list of papers that are relevant to this ORCA run
We neither can nor want to force you to cite these papers, but we appreciate if you do
You receive ORCA, which is the product of decades of hard work by many enthusiastic individuals, for free
The only thing we kindly ask in return is that you cite our papers,
We deeply appreciate it, if you show your appreciation for ORCA by not just citing the generic ORCA reference.

Please note that relegating all ORCA citations to the supporting information does *not* help us.
SI sections are not indexed - citations you put there will not count into any citation statistics
But we need these citations in order to attract the funding resources that allow us to do what we are doing

Therefore, if you are a happy ORCA user, please consider citing a few of the papers listed below in the main body of your paper

In addition to the list printed below, the program has created the file cs_rporg_019_red_solv_01.bibtex that contains the list in bibtex format
You can import this file easily into all common literature databanks and citation aid programs


List of essential papers. We consider these as the minimum necessary citations

  1. Neese,F.
     Software update: the ORCA program system, version 5.0
     WIRES Comput. Molec. Sci., 2022 12(1)e1606
     doi.org/10.1002/wcms.1606

List of papers to cite with high priority. The work reported in these papers was absolutely
necessary for this run to complete.
Our perspective: the developers of density functionals and basis sets usually get cited in chemistry papers
Good! But without the algorithms to do something with them, the functionals or basis sets would not do anything.
Hence, in our opinion, the algorithm design and method developments papers are equally worthy of getting cited

  1. Neese,F.
     An improvement of the resolution of the identity approximation for the formation of the Coulomb matrix
     J. Comp. Chem., 2003 24(14)1740-1747
     doi.org/10.1002/jcc.10318
  2. Neese,F.; Wennmohs,F.; Hansen,A.; Becker,U.
     Efficient, approximate and parallel Hartree-Fock and hybrid DFT calculations. A 'chain-of-spheres' algorithm for the Hartree-Fock exchange
     Chem. Phys., 2009 356(1-3)98-109
     doi.org/10.1016/j.chemphys.2008.10.036
  3. Garcia-Rates,M.; Neese,F.
     Effect of the Solute Cavity on the Solvation Energy and its Derivatives within the Framework of the Gaussian Charge Scheme
     J. Comput. Chem., 2020 41 922-939
     doi.org/10.1002/jcc.26139
  4. Helmich-Paris,B.; de Souza,B.; Neese,F.; Izsák,R.
     An improved chain of spheres for exchange algorithm
     J. Chem. Phys., 2021 155 104109
     doi.org/doi: 10.1063/5.0058766.
  5. Neese,F.
     The SHARK Integral Generation and Digestion System
     J. Comp. Chem., 2022  1-16
     doi.org/10.1002/jcc.26942
  6. Grimme,S.; Antony,J.; Ehrlich,S.; Krieg,H.
     A consistent and accurate ab initio parametrization of density functional dispersion correction (DFT-D) for the 94 elements H-Pu
     J. Chem. Phys., 2010 132 154104-XXXX
     doi.org/10.1063/1.3382344
  7. Grimme,S.; Ehrlich,S.; Goerigk,L.
     Effect of the damping function in dispersion corrected density functional theory
     J. Comput. Chem., 2011 32(7)1456-1465
     doi.org/10.1002/jcc.21759

List of suggested additional citations. These are papers that are important in the 'surrounding' of 
of this run, or papers that preceded the highly important papers. If you like your results we are grateful for a citation.

  1. Izsak,R.; Neese,F.
     An overlap fitted chain of spheres exchange method
     J. Chem. Phys., 2011 135 144105
     doi.org/10.1063/1.3646921
  2. Izsak,R.; Hansen,A.; Neese,F.
     The resolution of identity and chain of spheres approximations for the LPNO-CCSD singles Fock term
     Molec. Phys., 2012 110 2413-2417
     doi.org/10.1080/00268976.2012.687466
  3. Neese,F.
     The ORCA program system
     WIRES Comput. Molec. Sci., 2012 2(1)73-78
     doi.org/10.1002/wcms.81
  4. Izsak,R.; Neese,F.; Klopper,W.
     Robust fitting techniques in the chain of spheres approximation to the Fock exchange: The role of the complementary space
     J. Chem. Phys., 2013 139 
     doi.org/10.1063/1.4819264
  5. Neese,F.
     Software update: the ORCA program system, version 4.0
     WIRES Comput. Molec. Sci., 2018 8(1)1-6
     doi.org/10.1002/wcms.1327
  6. Neese,F.; Wennmohs,F.; Becker,U.; Riplinger,C.
     The ORCA quantum chemistry program package
     J. Chem. Phys., 2020 152 Art. No. L224108
     doi.org/10.1063/5.0004608

List of optional additional citations

  1. Neese,F.
     Approximate second-order SCF convergence for spin unrestricted wavefunctions
     Chem. Phys. Lett., 2000 325(1-3)93-98
     doi.org/10.1016/s0009-2614(00)00662-x

Timings for individual modules:

Sum of individual times          ...      612.337 sec (=  10.206 min)
Startup calculation              ...       16.431 sec (=   0.274 min)   2.7 %
SCF iterations                   ...      593.863 sec (=   9.898 min)  97.0 %
Property calculations            ...        2.044 sec (=   0.034 min)   0.3 %
                             ****ORCA TERMINATED NORMALLY****
TOTAL RUN TIME: 0 days 0 hours 10 minutes 14 seconds 935 msec
