 vasp.6.3.2 27Jun22 (build Oct 25 2024 11:36:28) complex                        
  
 executed on             LinuxIFC date 2025.01.04  09:16:20
 running on   80 total cores
 distrk:  each k-point on   80 cores,    1 groups
 distr:  one band on NCORE=  10 cores,    8 groups


--------------------------------------------------------------------------------------------------------


 INCAR:
   SYSTEM = 014_red
   ISTART = 1
   ICHARG = 2
   INIWAV = 1
   METAGGA = R2SCAN
   LASPH = .TRUE.
   NELM = 100
   ALGO = fast   	
   ISPIN = 2
   EDIFF = 1E-05
   ISMEAR = 0
   SIGMA = 0.05
   PREC = accurate
   ENCUT = 500
   LREAL = auto  	
   LWAVE = .TRUE.
   LCHARG = .FALSE.
   LAECHG = .FALSE.
   LVHAR = .FALSE.
   LVTOT = .FALSE.
   EDIFFG = -0.02
   IBRION = 2
   NSW = 500
   ISIF = 2
   POTIM = 0.5
   IVDW = 12
   VDW_A1 = 0.49484001
   VDW_S8 = 0.78981345
   VDW_A2 = 5.73083694
   LPLANE = .TRUE.
   NCORE = 10
   LSCALU = .FALSE.
   NSIM = 4
   LSOL = .TRUE.
   ISOL = 2
   EPSILON_INF = 1.8069
   N_MOL = 0.0115
   P_MOL = 0.82
   R_SOLV = 2.1900
   EB_K = 35.6880

 POTCAR:    PAW_PBE C 08Apr2002                   
 POTCAR:    PAW_PBE O 08Apr2002                   
 POTCAR:    PAW_PBE H 15Jun2001                   
 -----------------------------------------------------------------------------
|                                                                             |
|           W    W    AA    RRRRR   N    N  II  N    N   GGGG   !!!           |
|           W    W   A  A   R    R  NN   N  II  NN   N  G    G  !!!           |
|           W    W  A    A  R    R  N N  N  II  N N  N  G       !!!           |
|           W WW W  AAAAAA  RRRRR   N  N N  II  N  N N  G  GGG   !            |
|           WW  WW  A    A  R   R   N   NN  II  N   NN  G    G                |
|           W    W  A    A  R    R  N    N  II  N    N   GGGG   !!!           |
|                                                                             |
|     You use a magnetic or noncollinear calculation, but did not specify     |
|     the initial magnetic moment with the MAGMOM tag. Note that a            |
|     default of 1 will be used for all atoms. This ferromagnetic setup       |
|     may break the symmetry of the crystal, in particular it may rule        |
|     out finding an antiferromagnetic solution. Thence, we recommend         |
|     setting the initial magnetic moment manually or verifying carefully     |
|     that this magnetic setup is desired.                                    |
|                                                                             |
 -----------------------------------------------------------------------------

 POTCAR:    PAW_PBE C 08Apr2002                   
   SHA256 =  253f7b50bb8d59471dbedb8285d89021f4a42ed1a2c5d38a03a736e69125dd95 C/POTCAR              
   COPYR  = (c) Copyright 08Apr2002 Georg Kresse                                                    
   COPYR  = This file is part of the software VASP. Any use, copying, and all other rights are regul
   COPYR  = If you do not have a valid VASP license, you may not use, copy or distribute this file. 
   VRHFIN =C: s2p2                                                                                  
   LEXCH  = PE                                                                                      
   EATOM  =   147.1560 eV,   10.8157 Ry                                                             
                                                                                                    
   TITEL  = PAW_PBE C 08Apr2002                                                                     
   LULTRA =        F    use ultrasoft PP ?                                                          
   IUNSCR =        1    unscreen: 0-lin 1-nonlin 2-no                                               
   RPACOR =    1.200    partial core radius                                                         
   POMASS =   12.011; ZVAL   =    4.000    mass and valenz                                          
   RCORE  =    1.500    outmost cutoff radius                                                       
   RWIGS  =    1.630; RWIGS  =    0.863    wigner-seitz radius (au A)                               
   ENMAX  =  400.000; ENMIN  =  300.000 eV                                                          
   ICORE  =        2    local potential                                                             
   LCOR   =        T    correct aug charges                                                         
   LPAW   =        T    paw PP                                                                      
   EAUG   =  644.873                                                                                
   DEXC   =    0.000                                                                                
   RMAX   =    1.529    core radius for proj-oper                                                   
   RAUG   =    1.300    factor for augmentation sphere                                              
   RDEP   =    1.501    radius for radial grids                                                     
   RDEPT  =    1.300    core radius for aug-charge                                                  
                                                                                                    
   Atomic configuration                                                                             
    4 entries                                                                                       
     n  l   j            E        occ.                                                              
     1  0  0.50      -273.3789   2.0000                                                             
     2  0  0.50       -13.7508   2.0000                                                             
     2  1  0.50        -5.2854   2.0000                                                             
     3  2  1.50        -5.4423   0.0000                                                             
   Description                                                                                      
     l       E           TYP  RCUT    TYP  RCUT                                                     
     0    -13.7508458     23  1.200                                                                 
     0     -8.2022199     23  1.200                                                                 
     1     -5.2854383     23  1.500                                                                 
     1     34.0145650     23  1.500                                                                 
     2     -5.4423304      7  1.500                                                                 
  local pseudopotential read in
  partial core-charges read in
  partial kinetic energy density read in
  atomic valenz-charges read in
  non local Contribution for L=           0  read in
    real space projection operators read in
  non local Contribution for L=           0  read in
    real space projection operators read in
  non local Contribution for L=           1  read in
    real space projection operators read in
  non local Contribution for L=           1  read in
    real space projection operators read in
    PAW grid and wavefunctions read in
 
   number of l-projection  operators is LMAX  =           4
   number of lm-projection operators is LMMAX =           8
 
 POTCAR:    PAW_PBE O 08Apr2002                   
   SHA256 =  818f92134a0a090dccd8ba1447fa70422a3b330e708bb4f08108d8ae51209ddf O/POTCAR              
   COPYR  = (c) Copyright 08Apr2002 Georg Kresse                                                    
   COPYR  = This file is part of the software VASP. Any use, copying, and all other rights are regul
   COPYR  = If you do not have a valid VASP license, you may not use, copy or distribute this file. 
   VRHFIN =O: s2p4                                                                                  
   LEXCH  = PE                                                                                      
   EATOM  =   432.3788 eV,   31.7789 Ry                                                             
                                                                                                    
   TITEL  = PAW_PBE O 08Apr2002                                                                     
   LULTRA =        F    use ultrasoft PP ?                                                          
   IUNSCR =        1    unscreen: 0-lin 1-nonlin 2-no                                               
   RPACOR =    1.200    partial core radius                                                         
   POMASS =   16.000; ZVAL   =    6.000    mass and valenz                                          
   RCORE  =    1.520    outmost cutoff radius                                                       
   RWIGS  =    1.550; RWIGS  =    0.820    wigner-seitz radius (au A)                               
   ENMAX  =  400.000; ENMIN  =  300.000 eV                                                          
   ICORE  =        2    local potential                                                             
   LCOR   =        T    correct aug charges                                                         
   LPAW   =        T    paw PP                                                                      
   EAUG   =  605.392                                                                                
   DEXC   =    0.000                                                                                
   RMAX   =    1.553    core radius for proj-oper                                                   
   RAUG   =    1.300    factor for augmentation sphere                                              
   RDEP   =    1.550    radius for radial grids                                                     
   RDEPT  =    1.329    core radius for aug-charge                                                  
                                                                                                    
   Atomic configuration                                                                             
    4 entries                                                                                       
     n  l   j            E        occ.                                                              
     1  0  0.50      -514.6923   2.0000                                                             
     2  0  0.50       -23.9615   2.0000                                                             
     2  1  0.50        -9.0305   4.0000                                                             
     3  2  1.50        -9.5241   0.0000                                                             
   Description                                                                                      
     l       E           TYP  RCUT    TYP  RCUT                                                     
     0    -23.9615318     23  1.200                                                                 
     0     -9.5240782     23  1.200                                                                 
     1     -9.0304911     23  1.520                                                                 
     1      8.1634956     23  1.520                                                                 
     2     -9.5240782      7  1.500                                                                 
  local pseudopotential read in
  partial core-charges read in
  partial kinetic energy density read in
  kinetic energy density of atom read in
  atomic valenz-charges read in
  non local Contribution for L=           0  read in
    real space projection operators read in
  non local Contribution for L=           0  read in
    real space projection operators read in
  non local Contribution for L=           1  read in
    real space projection operators read in
  non local Contribution for L=           1  read in
    real space projection operators read in
    PAW grid and wavefunctions read in
 
   number of l-projection  operators is LMAX  =           4
   number of lm-projection operators is LMMAX =           8
 
 POTCAR:    PAW_PBE H 15Jun2001                   
   SHA256 =  030f79b5d3ab3cf0e668861823c8fb652ff669f3e15e46930bd03bfd63a607b6 H/POTCAR              
   COPYR  = (c) Copyright 15Jun2001 Georg Kresse                                                    
   COPYR  = This file is part of the software VASP. Any use, copying, and all other rights are regul
   COPYR  = If you do not have a valid VASP license, you may not use, copy or distribute this file. 
   VRHFIN =H: ultrasoft test                                                                        
   LEXCH  = PE                                                                                      
   EATOM  =    12.4884 eV,    0.9179 Ry                                                             
                                                                                                    
   TITEL  = PAW_PBE H 15Jun2001                                                                     
   LULTRA =        F    use ultrasoft PP ?                                                          
   IUNSCR =        0    unscreen: 0-lin 1-nonlin 2-no                                               
   RPACOR =    0.000    partial core radius                                                         
   POMASS =    1.000; ZVAL   =    1.000    mass and valenz                                          
   RCORE  =    1.100    outmost cutoff radius                                                       
   RWIGS  =    0.700; RWIGS  =    0.370    wigner-seitz radius (au A)                               
   ENMAX  =  250.000; ENMIN  =  200.000 eV                                                          
   RCLOC  =    0.701    cutoff for local pot                                                        
   LCOR   =        T    correct aug charges                                                         
   LPAW   =        T    paw PP                                                                      
   EAUG   =  400.000                                                                                
   RMAX   =    1.123    core radius for proj-oper                                                   
   RAUG   =    1.200    factor for augmentation sphere                                              
   RDEP   =    1.112    radius for radial grids                                                     
   RDEPT  =    0.926    core radius for aug-charge                                                  
                                                                                                    
   Atomic configuration                                                                             
    2 entries                                                                                       
     n  l   j            E        occ.                                                              
     1  0  0.50        -6.4927   1.0000                                                             
     2  1  0.50        -3.4015   0.0000                                                             
   Description                                                                                      
     l       E           TYP  RCUT    TYP  RCUT                                                     
     0     -6.4927494     23  1.100                                                                 
     0      6.8029130     23  1.100                                                                 
     1     -4.0817478     23  1.100                                                                 
  local pseudopotential read in
  atomic valenz-charges read in
  non local Contribution for L=           0  read in
    real space projection operators read in
  non local Contribution for L=           0  read in
    real space projection operators read in
  non local Contribution for L=           1  read in
    real space projection operators read in
    PAW grid and wavefunctions read in
 
   number of l-projection  operators is LMAX  =           3
   number of lm-projection operators is LMMAX =           5
 
 Optimization of the real space projectors (new method)

 maximal supplied QI-value         = 25.13
 optimisation between [QCUT,QGAM] = [ 11.31, 22.87] = [ 35.82,146.48] Ry 
 Optimized for a Real-space Cutoff    1.03 Angstroem

   l    n(q)    QCUT    max X(q) W(low)/X(q) W(high)/X(q)  e(spline) 
   0      7    11.310   115.676    0.20E-03    0.90E-03    0.20E-06
   0      7    11.310    87.132    0.20E-03    0.89E-03    0.19E-06
   1      6    11.310     4.429    0.16E-03    0.28E-03    0.12E-06
   1      6    11.310     2.733    0.12E-03    0.21E-03    0.99E-07
 Optimization of the real space projectors (new method)

 maximal supplied QI-value         = 24.76
 optimisation between [QCUT,QGAM] = [ 11.39, 22.77] = [ 36.31,145.25] Ry 
 Optimized for a Real-space Cutoff    1.10 Angstroem

   l    n(q)    QCUT    max X(q) W(low)/X(q) W(high)/X(q)  e(spline) 
   0      7    11.387    20.381    0.22E-03    0.48E-03    0.18E-06
   0      7    11.387    15.268    0.22E-03    0.52E-03    0.19E-06
   1      7    11.387     5.964    0.22E-03    0.73E-03    0.24E-06
   1      7    11.387     5.382    0.19E-03    0.60E-03    0.21E-06
 Optimization of the real space projectors (new method)

 maximal supplied QI-value         = 34.20
 optimisation between [QCUT,QGAM] = [ 11.29, 22.57] = [ 35.68,142.71] Ry 
 Optimized for a Real-space Cutoff    1.20 Angstroem

   l    n(q)    QCUT    max X(q) W(low)/X(q) W(high)/X(q)  e(spline) 
   0      8    11.287    19.460    0.22E-03    0.50E-03    0.19E-06
   0      8    11.287    12.209    0.21E-03    0.48E-03    0.18E-06
   1      8    11.287     4.655    0.21E-03    0.11E-04    0.26E-06
  PAW_PBE C 08Apr2002                   :
 energy of atom  1       EATOM= -147.1560
 kinetic energy error for atom=    0.0076 (will be added to EATOM!!)
  PAW_PBE O 08Apr2002                   :
 energy of atom  2       EATOM= -432.3788
 kinetic energy error for atom=    0.0224 (will be added to EATOM!!)
  PAW_PBE H 15Jun2001                   :
 energy of atom  3       EATOM=  -12.4884
 kinetic energy error for atom=    0.0020 (will be added to EATOM!!)
 
 
 POSCAR: C O H
  positions in direct lattice
  velocities in cartesian coordinates

 METAGGA = R2SCA    LMAXTAU =  6    LMIXTAU =  F

 exchange correlation table for  LEXCH =        8
   RHO(1)=    0.500       N(1)  =     2000
   RHO(2)=  100.500       N(2)  =     4000
 
 POSCAR: C O H
  positions in direct lattice
  velocities in cartesian coordinates
 
 POSCAR: C O H
  positions in direct lattice
  velocities in cartesian coordinates
 


--------------------------------------------------------------------------------------------------------


 ion  position               nearest neighbor table
   1  0.473  0.491  0.500-  11 1.36   2 1.40   6 1.42
   2  0.441  0.505  0.501-  20 1.08   3 1.39   1 1.40
   3  0.437  0.540  0.501-  19 1.08   4 1.39   2 1.39
   4  0.465  0.560  0.500-  18 1.08   5 1.39   3 1.39
   5  0.497  0.546  0.498-  17 1.08   4 1.39   6 1.40
   6  0.502  0.511  0.498-   5 1.40   1 1.42   7 1.46
   7  0.535  0.496  0.497-  16 1.09   8 1.34   6 1.46
   8  0.564  0.511  0.503-  15 1.09   7 1.34   9 1.49
   9  0.597  0.493  0.501-  12 1.09  14 1.10  13 1.10   8 1.49
  10  0.450  0.436  0.501-  23 1.09  21 1.09  22 1.09  11 1.43
  11  0.478  0.457  0.500-   1 1.36  10 1.43
  12  0.594  0.467  0.493-   9 1.09
  13  0.613  0.506  0.482-   9 1.10
  14  0.610  0.494  0.524-   9 1.10
  15  0.565  0.537  0.511-   8 1.09
  16  0.535  0.469  0.490-   7 1.09
  17  0.519  0.562  0.496-   5 1.08
  18  0.463  0.587  0.499-   4 1.08
  19  0.412  0.551  0.502-   3 1.08
  20  0.419  0.489  0.502-   2 1.08
  21  0.434  0.440  0.479-  10 1.09
  22  0.435  0.439  0.523-  10 1.09
  23  0.460  0.410  0.500-  10 1.09
 
  LATTYP: Found a simple cubic cell.
 ALAT       =    40.0000000000
  
  Lattice vectors:
  
 A1 = (  40.0000000000,   0.0000000000,   0.0000000000)
 A2 = (   0.0000000000,  40.0000000000,   0.0000000000)
 A3 = (   0.0000000000,   0.0000000000,  40.0000000000)


Analysis of symmetry for initial positions (statically):
=====================================================================
 Subroutine PRICEL returns:
 Original cell was already a primitive cell.
 

 Routine SETGRP: Setting up the symmetry group for a 
 simple cubic supercell.


 Subroutine GETGRP returns: Found  1 space group operations
 (whereof  1 operations were pure point group operations)
 out of a pool of 48 trial point group operations.


The static configuration has the point symmetry C_1 .


Analysis of symmetry for dynamics (positions and initial velocities):
=====================================================================
 Subroutine PRICEL returns:
 Original cell was already a primitive cell.
 

 Routine SETGRP: Setting up the symmetry group for a 
 simple cubic supercell.


 Subroutine GETGRP returns: Found  1 space group operations
 (whereof  1 operations were pure point group operations)
 out of a pool of 48 trial point group operations.


The dynamic configuration has the point symmetry C_1 .


Analysis of constrained symmetry for selective dynamics:
=====================================================================
 Subroutine PRICEL returns:
 Original cell was already a primitive cell.
 

 Routine SETGRP: Setting up the symmetry group for a 
 simple cubic supercell.


 Subroutine GETGRP returns: Found  1 space group operations
 (whereof  1 operations were pure point group operations)
 out of a pool of 48 trial point group operations.


The constrained configuration has the point symmetry C_1 .


Analysis of structural, dynamic, and magnetic symmetry:
=====================================================================
 Subroutine PRICEL returns:
 Original cell was already a primitive cell.
 

 Routine SETGRP: Setting up the symmetry group for a 
 simple cubic supercell.


 Subroutine GETGRP returns: Found  1 space group operations
 (whereof  1 operations were pure point group operations)
 out of a pool of 48 trial point group operations.


The overall configuration has the point symmetry C_1 .


 Subroutine INISYM returns: Found  1 space group operations
 (whereof  1 operations are pure point group operations),
 and found     1 'primitive' translations


----------------------------------------------------------------------------------------

                                     Primitive cell                                     

  volume of cell :   64000.0000

  direct lattice vectors                    reciprocal lattice vectors
    40.000000000  0.000000000  0.000000000     0.025000000  0.000000000  0.000000000
     0.000000000 40.000000000  0.000000000     0.000000000  0.025000000  0.000000000
     0.000000000  0.000000000 40.000000000     0.000000000  0.000000000  0.025000000

  length of vectors
    40.000000000 40.000000000 40.000000000     0.025000000  0.025000000  0.025000000

  position of ions in fractional coordinates (direct lattice)
     0.472819420  0.491086345  0.499551551
     0.440937372  0.505187668  0.500923041
     0.437327685  0.539824009  0.501051966
     0.465345377  0.560387501  0.499625169
     0.496992779  0.546139877  0.498063822
     0.501714257  0.511469247  0.498185508
     0.534746319  0.495830301  0.496572158
     0.564123616  0.510669044  0.502863455
     0.597127192  0.493474522  0.500530100
     0.450039565  0.435639297  0.500503913
     0.478386959  0.457422684  0.499750731
     0.594331590  0.467324973  0.493241329
     0.613381102  0.505864522  0.482291696
     0.610375758  0.494470395  0.524478983
     0.564814310  0.536776801  0.510507766
     0.534953197  0.469486446  0.489965922
     0.518729598  0.562251389  0.496286566
     0.462596373  0.587338782  0.499402728
     0.412454289  0.550555783  0.502125899
     0.418969718  0.489434790  0.502012734
     0.434061500  0.439586082  0.478683717
     0.435499279  0.439320042  0.523352120
     0.460270746  0.410460498  0.500028125

  ion indices of the primitive-cell ions
   primitive index   ion index
                 1           1
                 2           2
                 3           3
                 4           4
                 5           5
                 6           6
                 7           7
                 8           8
                 9           9
                10          10
                11          11
                12          12
                13          13
                14          14
                15          15
                16          16
                17          17
                18          18
                19          19
                20          20
                21          21
                22          22
                23          23

----------------------------------------------------------------------------------------

 
 
 KPOINTS: K-Point Grid                            

Automatic generation of k-mesh.
 Grid dimensions read from file:
 generate k-points for:    1    1    1

 Generating k-lattice:

  Cartesian coordinates                     Fractional coordinates (reciprocal lattice)
     0.025000000  0.000000000  0.000000000     1.000000000  0.000000000  0.000000000
     0.000000000  0.025000000  0.000000000     0.000000000  1.000000000  0.000000000
     0.000000000  0.000000000  0.025000000     0.000000000  0.000000000  1.000000000

  Length of vectors
     0.025000000  0.025000000  0.025000000

  Shift w.r.t. Gamma in fractional coordinates (k-lattice)
     0.000000000  0.000000000  0.000000000

 
 Subroutine IBZKPT returns following result:
 ===========================================
 
 Found      1 irreducible k-points:
 
 Following reciprocal coordinates:
            Coordinates               Weight
  0.000000  0.000000  0.000000      1.000000
 
 Following cartesian coordinates:
            Coordinates               Weight
  0.000000  0.000000  0.000000      1.000000
 


--------------------------------------------------------------------------------------------------------




 Dimension of arrays:
   k-points           NKPTS =      1   k-points in BZ     NKDIM =      1   number of bands    NBANDS=     56
   number of dos      NEDOS =    301   number of ions     NIONS =     23
   non local maximal  LDIM  =      4   non local SUM 2l+1 LMDIM =      8
   total plane-waves  NPLWV = ******
   max r-space proj   IRMAX =   2915   max aug-charges    IRDMAX=   5350
   dimension x,y,z NGX =   294 NGY =  294 NGZ =  294
   dimension x,y,z NGXF=   588 NGYF=  588 NGZF=  588
   support grid    NGXF=   588 NGYF=  588 NGZF=  588
   ions per type =              10   1  12
   NGX,Y,Z   is equivalent  to a cutoff of  12.22, 12.22, 12.22 a.u.
   NGXF,Y,Z  is equivalent  to a cutoff of  24.44, 24.44, 24.44 a.u.

 SYSTEM =  014_red                                 
 POSCAR =  C O H                                   

 Startparameter for this run:
   NWRITE =      2    write-flag & timer
   PREC   = accura    normal or accurate (medium, high low for compatibility)
   ISTART =      1    job   : 0-new  1-cont  2-samecut
   ICHARG =      2    charge: 1-file 2-atom 10-const
   ISPIN  =      2    spin polarized calculation?
   LNONCOLLINEAR =      F non collinear calculations
   LSORBIT =      F    spin-orbit coupling
   INIWAV =      1    electr: 0-lowe 1-rand  2-diag
   LASPH  =      T    aspherical Exc in radial PAW
 Electronic Relaxation 1
   ENCUT  =  500.0 eV  36.75 Ry    6.06 a.u.  72.93 72.93 72.93*2*pi/ulx,y,z
   ENINI  =  500.0     initial cutoff
   ENAUG  =  644.9 eV  augmentation charge cutoff
   NELM   =    100;   NELMIN=  2; NELMDL=  0     # of ELM steps 
   EDIFF  = 0.1E-04   stopping-criterion for ELM
   LREAL  =      T    real-space projection
   NLSPLINE    = F    spline interpolate recip. space projectors
   LCOMPAT=      F    compatible to vasp.4.4
   GGA_COMPAT  = T    GGA compatible to vasp.4.4-vasp.4.6
   LMAXPAW     = -100 max onsite density
   LMAXMIX     =    2 max onsite mixed and CHGCAR
   VOSKOWN=      0    Vosko Wilk Nusair interpolation
   ROPT   =   -0.00025  -0.00025  -0.00025
 Ionic relaxation
   EDIFFG = -.2E-01   stopping-criterion for IOM
   NSW    =    500    number of steps for IOM
   NBLOCK =      1;   KBLOCK =    500    inner block; outer block 
   IBRION =      2    ionic relax: 0-MD 1-quasi-New 2-CG
   NFREE  =      1    steps in history (QN), initial steepest desc. (CG)
   ISIF   =      2    stress and relaxation
   IWAVPR =     11    prediction:  0-non 1-charg 2-wave 3-comb
   ISYM   =      2    0-nonsym 1-usesym 2-fastsym
   LCORR  =      T    Harris-Foulkes like correction to forces

   POTIM  = 0.5000    time-step for ionic-motion
   TEIN   =    0.0    initial temperature
   TEBEG  =    0.0;   TEEND  =   0.0 temperature during run
   SMASS  =  -3.00    Nose mass-parameter (am)
   estimated Nose-frequenzy (Omega)   =  0.10E-29 period in steps = 0.13E+47 mass=  -0.366E-25a.u.
   SCALEE = 1.0000    scale energy and forces
   NPACO  =    256;   APACO  = 10.0  distance and # of slots for P.C.
   PSTRESS=    0.0 pullay stress

  Mass of Ions in am
   POMASS =  12.01 16.00  1.00
  Ionic Valenz
   ZVAL   =   4.00  6.00  1.00
  Atomic Wigner-Seitz radii
   RWIGS  =  -1.00 -1.00 -1.00
  virtual crystal weights 
   VCA    =   1.00  1.00  1.00
   NELECT =      58.0000    total number of electrons
   NUPDOWN=      -1.0000    fix difference up-down

 DOS related values:
   EMIN   =  10.00;   EMAX   =-10.00  energy-range for DOS
   EFERMI =   0.00
   ISMEAR =     0;   SIGMA  =   0.05  broadening in eV -4-tet -1-fermi 0-gaus

 Electronic relaxation 2 (details)
   IALGO  =     68    algorithm
   LDIAG  =      T    sub-space diagonalisation (order eigenvalues)
   LSUBROT=      F    optimize rotation matrix (better conditioning)
   TURBO    =      0    0=normal 1=particle mesh
   IRESTART =      0    0=no restart 2=restart with 2 vectors
   NREBOOT  =      0    no. of reboots
   NMIN     =      0    reboot dimension
   EREF     =   0.00    reference energy to select bands
   IMIX   =      4    mixing-type and parameters
     AMIX     =   0.40;   BMIX     =  1.00
     AMIX_MAG =   1.60;   BMIX_MAG =  1.00
     AMIN     =   0.10
     WC   =   100.;   INIMIX=   1;  MIXPRE=   1;  MAXMIX= -45

 Intra band minimization:
   WEIMIN = 0.0010     energy-eigenvalue tresh-hold
   EBREAK =  0.45E-07  absolut break condition
   DEPER  =   0.30     relativ break condition  

   TIME   =   0.40     timestep for ELM

  volume/ion in A,a.u.               =    2782.61     18777.97
  Fermi-wavevector in a.u.,A,eV,Ry     =   0.158425  0.299380  0.341486  0.025099
  Thomas-Fermi vector in A             =   0.848723
 
 Write flags
   LWAVE        =      T    write WAVECAR
   LDOWNSAMPLE  =      F    k-point downsampling of WAVECAR
   LCHARG       =      F    write CHGCAR
   LVTOT        =      F    write LOCPOT, total local potential
   LVHAR        =      F    write LOCPOT, Hartree potential only
   LELF         =      F    write electronic localiz. function (ELF)
   LORBIT       =      0    0 simple, 1 ext, 2 COOP (PROOUT), +10 PAW based schemes


 Dipole corrections
   LMONO  =      F    monopole corrections only (constant potential shift)
   LDIPOL =      F    correct potential (dipole corrections)
   IDIPOL =      0    1-x, 2-y, 3-z, 4-all directions 
   EPSILON=  1.0000000 bulk dielectric constant

 Exchange correlation treatment:
   GGA     =    --    GGA type
   LEXCH   =     8    internal setting for exchange type
   LIBXC   =     F    Libxc                    
   VOSKOWN =     0    Vosko Wilk Nusair interpolation
   LHFCALC =     F    Hartree Fock is set to
   LHFONE  =     F    Hartree Fock one center treatment
   AEXX    =    0.0000 exact exchange contribution

 Linear response parameters
   LEPSILON=     F    determine dielectric tensor
   LRPA    =     F    only Hartree local field effects (RPA)
   LNABLA  =     F    use nabla operator in PAW spheres
   LVEL    =     F    velocity operator in full k-point grid
   CSHIFT  =0.1000    complex shift for real part using Kramers Kronig
   OMEGAMAX=  -1.0    maximum frequency
   DEG_THRESHOLD= 0.2000000E-02 threshold for treating states as degnerate
   RTIME   =   -0.100 relaxation time in fs
  (WPLASMAI=    0.000 imaginary part of plasma frequency in eV, 0.658/RTIME)
   DFIELD  = 0.0000000 0.0000000 0.0000000 field for delta impulse in time
 
  Optional k-point grid parameters
   LKPOINTS_OPT  =     F    use optional k-point grid
   KPOINTS_OPT_MODE=     1    mode for optional k-point grid
 
 Orbital magnetization related:
   ORBITALMAG=     F  switch on orbital magnetization
   LCHIMAG   =     F  perturbation theory with respect to B field
   DQ        =  0.001000  dq finite difference perturbation B field
   LLRAUG    =     F  two centre corrections for induced B field

 Solvation model:
   LSOL             =     T         switch on solvation model
   LSOL_SCF         =     T         include solvation in SCF
   ISOL             =     2         solvation model type
   EFERMI_ref       =  0.000000         reference Fermi level
   capacitance_init =  1.000000         initial capacitance
 Nonlinear solvation model:
   LNLDIEL     =     T         switch on non-linear dielectric mode
   LNLION      =     T         switch on non-linear ionic mode
   LNLTEST     =     F         test non-linear model in linear regime
   I_NLOC_SOL  =     1         type of nonlocal dielectric response
   NC_K        =  0.015000     cutoff charge density for cavities (1/Angstrom**3)
   TAU         =  0.000879     cavity formation energy (eV/Angstrom**2)
   SIGMA_K     =  0.600000     cavity width
   A_K         =  0.125000     smoothing length (Angstrom)
   R_SOLV      =  2.190000     solvent radius (Angstrom)
   R_CAV       =  0.000000     cavity radius (Angstrom)
   R_DIEL      =  1.000000     dielectric radius (Angstrom)
   R_ION       =  0.000000     ionic radius (Angstrom)
   R_B         =  0.000000     bound charge radius (Angstrom)
   SOLTEMP     =298.000000     solvent temperature (K)
   EB_K        = 35.688000     relative permittivity of the bulk solvent
   EPSILON_INF =  1.806900     optical relative permittivity of bulk solvent
   N_MOL       =  0.011500     molar density of solvent (1/Angstrom**3)
   P_MOL       =  0.820000     solvent dipole moment (e*Angstrom)
   C_MOLAR     =  0.000000     electrolyte concentration (mol/L)
   LAMBDA_D_K  =  0.000000     Debye length (Angstrom)
   ZION        =  1.000000     charge of ions in electrolyte (e)
   D_ION       = -1.000000     minimum ion packing diameter (Angstrom)



--------------------------------------------------------------------------------------------------------


 conjugate gradient relaxation of ions
   using selective dynamics as specified on POSCAR
 charge density and potential will be updated during run
 spin polarized calculation
 RMM-DIIS sequential band-by-band and
  variant of blocked Davidson during initial phase
 perform sub-space diagonalisation
    before iterative eigenvector-optimisation
 modified Broyden-mixing scheme, WC =      100.0
 initial mixing is a Kerker type mixing with AMIX =  0.4000 and BMIX =      1.0000
 Hartree-type preconditioning will be used
 using additional bands           27
 real space projection scheme for non local part
 use partial core corrections
 calculate Harris-corrections to forces 
   (improved forces if not selfconsistent)
 use gradient corrections 
 use of overlap-Matrix (Vanderbilt PP)
 Gauss-broadening in eV      SIGMA  =   0.05


--------------------------------------------------------------------------------------------------------


  energy-cutoff  :      500.00
  volume of cell :    64000.00
      direct lattice vectors                 reciprocal lattice vectors
    40.000000000  0.000000000  0.000000000     0.025000000  0.000000000  0.000000000
     0.000000000 40.000000000  0.000000000     0.000000000  0.025000000  0.000000000
     0.000000000  0.000000000 40.000000000     0.000000000  0.000000000  0.025000000

  length of vectors
    40.000000000 40.000000000 40.000000000     0.025000000  0.025000000  0.025000000


 
 old parameters found on file WAVECAR:
  energy-cutoff  :      500.00
  volume of cell :    64000.00
      direct lattice vectors                 reciprocal lattice vectors
    40.000000000  0.000000000  0.000000000     0.025000000  0.000000000  0.000000000
     0.000000000 40.000000000  0.000000000     0.000000000  0.025000000  0.000000000
     0.000000000  0.000000000 40.000000000     0.000000000  0.000000000  0.025000000

  length of vectors

 
 k-points in units of 2pi/SCALE and weight: K-Point Grid                            
   0.00000000  0.00000000  0.00000000       1.000
 
 k-points in reciprocal lattice and weights: K-Point Grid                            
   0.00000000  0.00000000  0.00000000       1.000
 
 position of ions in fractional coordinates (direct lattice) 
   0.47281942  0.49108635  0.49955155
   0.44093737  0.50518767  0.50092304
   0.43732769  0.53982401  0.50105197
   0.46534538  0.56038750  0.49962517
   0.49699278  0.54613988  0.49806382
   0.50171426  0.51146925  0.49818551
   0.53474632  0.49583030  0.49657216
   0.56412362  0.51066904  0.50286345
   0.59712719  0.49347452  0.50053010
   0.45003957  0.43563930  0.50050391
   0.47838696  0.45742268  0.49975073
   0.59433159  0.46732497  0.49324133
   0.61338110  0.50586452  0.48229170
   0.61037576  0.49447039  0.52447898
   0.56481431  0.53677680  0.51050777
   0.53495320  0.46948645  0.48996592
   0.51872960  0.56225139  0.49628657
   0.46259637  0.58733878  0.49940273
   0.41245429  0.55055578  0.50212590
   0.41896972  0.48943479  0.50201273
   0.43406150  0.43958608  0.47868372
   0.43549928  0.43932004  0.52335212
   0.46027075  0.41046050  0.50002813
 
 position of ions in cartesian coordinates  (Angst):
  18.91277679 19.64345380 19.98206204
  17.63749489 20.20750672 20.03692166
  17.49310741 21.59296038 20.04207863
  18.61381509 22.41550003 19.98500676
  19.87971116 21.84559509 19.92255289
  20.06857028 20.45876988 19.92742034
  21.38985274 19.83321204 19.86288634
  22.56494462 20.42676176 20.11453818
  23.88508767 19.73898087 20.02120399
  18.00158261 17.42557190 20.02015650
  19.13547834 18.29690738 19.99002925
  23.77326361 18.69299893 19.72965317
  24.53524410 20.23458090 19.29166784
  24.41503032 19.77881578 20.97915933
  22.59257240 21.47107205 20.42031063
  21.39812786 18.77945784 19.59863690
  20.74918393 22.49005558 19.85146264
  18.50385491 23.49355128 19.97610912
  16.49817157 22.02223132 20.08503596
  16.75878871 19.57739161 20.08050937
  17.36245998 17.58344330 19.14734867
  17.41997116 17.57280166 20.93408480
  18.41082985 16.41841992 20.00112501
 


--------------------------------------------------------------------------------------------------------


 k-point   1 :   0.0000 0.0000 0.0000  plane waves: 1624525

 maximum and minimum number of plane-waves per node :    162473   162437

 maximum number of plane-waves:   1624525
 maximum index in each direction: 
   IXMAX=   72   IYMAX=   72   IZMAX=   72
   IXMIN=  -72   IYMIN=  -72   IZMIN=  -72


 real space projection operators:
  total allocation   :       2552.27 KBytes
  max/ min on nodes  :        262.03        249.37


 parallel 3D FFT for wavefunctions:
    minimum data exchange during FFTs selected (reduces bandwidth)
 parallel 3D FFT for charge:
    minimum data exchange during FFTs selected (reduces bandwidth)


 total amount of memory used by VASP MPI-rank0   897718. kBytes
=======================================================================

   base      :      30000. kBytes
   nonlr-proj:       1440. kBytes
   fftplans  :     167689. kBytes
   grid      :     662171. kBytes
   one-center:         18. kBytes
   wavefun   :      36400. kBytes
 
     INWAV:  cpu time      9.9983: real time     10.0311
 Broyden mixing: mesh for mixing (old mesh)
   NGX =145   NGY =145   NGZ =145
  (NGX  =588   NGY  =588   NGZ  =588)
  gives a total of ****** points

 initial charge density was supplied:
 charge density of overlapping atoms calculated
 number of electron      58.0000000 magnetization      23.0000000
 keeping initial charge density in first step


--------------------------------------------------------------------------------------------------------


 Maximum index for non-local projection operator          318
 Maximum index for augmentation-charges          234 (set IRDMAX)


--------------------------------------------------------------------------------------------------------


 First call to EWALD:  gamma=   0.044
 Maximum number of real-space cells 3x 3x 3
 Maximum number of reciprocal cells 3x 3x 3

    FEWALD:  cpu time      0.0019: real time      0.0019


--------------------------------------- Iteration      1(   1)  ---------------------------------------


    POTLOK:  cpu time      9.4403: real time      9.4629
    SETDIJ:  cpu time      0.4493: real time      0.4502
     EDDAV:  cpu time     62.0289: real time     62.1672
       DOS:  cpu time      0.0234: real time      0.0235
    CHARGE:  cpu time      7.6628: real time      7.6786
    MIXING:  cpu time      0.2476: real time      0.2491
    --------------------------------------------
      LOOP:  cpu time     79.8524: real time     80.0315

 eigenvalue-minimisations  :   272
 total energy-change (2. order) :-0.1434031E+03  (-0.9448358E+01)
 number of electron      57.9999999 magnetization      22.1138610
 augmentation part        1.9417253 magnetization      22.1554581

 Broyden mixing:
  rms(total) = 0.30499E+01    rms(broyden)= 0.30495E+01
  rms(prec ) = 0.30781E+01
  weight for this iteration     100.00

 Free energy of the ion-electron system (eV)
  ---------------------------------------------------
  alpha Z        PSCENC =         0.23359489
  Ewald energy   TEWEN  =      6362.80380985
  -Hartree energ DENC   =     -7738.87888633
  -exchange      EXHF   =         0.00000000
  -V(xc)+E(xc)   XCENC  =       226.91615022
  PAW double counting   =      1418.29993913    -1442.03472814
  entropy T*S    EENTRO =        -0.00000000
  eigenvalues    EBANDS =     -1024.42077336
  atomic energy  EATOM  =      2053.67780985
  Solvation  Ecorr_sol  =         0.00000000
  ---------------------------------------------------
  free energy    TOTEN  =      -143.40308390 eV

  energy without entropy =     -143.40308390  energy(sigma->0) =     -143.40308390


--------------------------------------------------------------------------------------------------------




--------------------------------------- Iteration      1(   2)  ---------------------------------------


    --------------------------------------------
      INIT:  cpu time      0.2679: real time      0.2681
  FINALIZE:  cpu time     24.9102: real time     24.9499
    --------------------------------------------
    POTLOK:  cpu time     34.5793: real time     34.6477
    SETDIJ:  cpu time      0.4463: real time      0.4472
    EDDIAG:  cpu time     13.4320: real time     13.4633
  RMM-DIIS:  cpu time     74.2888: real time     74.4541
    ORTHCH:  cpu time      0.3377: real time      0.3385
       DOS:  cpu time      0.0005: real time      0.0005
    CHARGE:  cpu time      7.5966: real time      7.6145
    MIXING:  cpu time      0.1971: real time      0.1974
    --------------------------------------------
      LOOP:  cpu time    130.8784: real time    131.1632

 eigenvalue-minimisations  :   224
 total energy-change (2. order) : 0.1847136E+02  (-0.9563446E+01)
 number of electron      57.9999999 magnetization      21.1578636
 augmentation part        1.9455018 magnetization      21.0910317

 Broyden mixing:
  rms(total) = 0.14774E+01    rms(broyden)= 0.14774E+01
  rms(prec ) = 0.14993E+01
  weight for this iteration     100.00

 eigenvalues of (default mixing * dielectric matrix)
  average eigenvalue GAMMA=   0.9568
  0.9568

 Free energy of the ion-electron system (eV)
  ---------------------------------------------------
  alpha Z        PSCENC =         0.23359489
  Ewald energy   TEWEN  =      6362.80380985
  -Hartree energ DENC   =     -7850.64825894
  -exchange      EXHF   =         0.00000000
  -V(xc)+E(xc)   XCENC  =       247.34444551
  PAW double counting   =      2474.83906254    -2499.77898338
  entropy T*S    EENTRO =        -0.00000000
  eigenvalues    EBANDS =      -908.68306643
  atomic energy  EATOM  =      2053.67780985
  Solvation  Ecorr_sol  =        -4.72013283
  ---------------------------------------------------
  free energy    TOTEN  =      -124.93171894 eV

  energy without entropy =     -124.93171894  energy(sigma->0) =     -124.93171894


--------------------------------------------------------------------------------------------------------




--------------------------------------- Iteration      1(   3)  ---------------------------------------


    --------------------------------------------
      INIT:  cpu time      0.2715: real time      0.2716
  FINALIZE:  cpu time     28.9829: real time     29.0307
    --------------------------------------------
    POTLOK:  cpu time     38.6228: real time     38.6954
    SETDIJ:  cpu time      0.4462: real time      0.4471
    EDDIAG:  cpu time     13.3492: real time     13.3780
  RMM-DIIS:  cpu time     78.8581: real time     79.0367
    ORTHCH:  cpu time      0.3399: real time      0.3407
       DOS:  cpu time      0.0026: real time      0.0026
    CHARGE:  cpu time      7.6058: real time      7.6218
    MIXING:  cpu time      0.2032: real time      0.2035
    --------------------------------------------
      LOOP:  cpu time    139.4279: real time    139.7260

 eigenvalue-minimisations  :   244
 total energy-change (2. order) :-0.2316013E+02  (-0.3793000E+01)
 number of electron      57.9999999 magnetization      19.9449950
 augmentation part        1.9096073 magnetization      19.8560308

 Broyden mixing:
  rms(total) = 0.91458E+00    rms(broyden)= 0.91453E+00
  rms(prec ) = 0.92350E+00
  weight for this iteration     100.00

 eigenvalues of (default mixing * dielectric matrix)
  average eigenvalue GAMMA=   1.1272
  0.7989  1.4555

 Free energy of the ion-electron system (eV)
  ---------------------------------------------------
  alpha Z        PSCENC =         0.23359489
  Ewald energy   TEWEN  =      6362.80380985
  -Hartree energ DENC   =     -7936.27594709
  -exchange      EXHF   =         0.00000000
  -V(xc)+E(xc)   XCENC  =       233.23440940
  PAW double counting   =      3440.05479144    -3465.69528289
  entropy T*S    EENTRO =        -0.00000000
  eigenvalues    EBANDS =      -827.65230759
  atomic energy  EATOM  =      2053.67780985
  Solvation  Ecorr_sol  =        -8.47273088
  ---------------------------------------------------
  free energy    TOTEN  =      -148.09185303 eV

  energy without entropy =     -148.09185303  energy(sigma->0) =     -148.09185303


--------------------------------------------------------------------------------------------------------




--------------------------------------- Iteration      1(   4)  ---------------------------------------


    --------------------------------------------
      INIT:  cpu time      0.2745: real time      0.2746
  FINALIZE:  cpu time     28.8494: real time     28.8983
    --------------------------------------------
    POTLOK:  cpu time     38.4984: real time     38.5712
    SETDIJ:  cpu time      0.4439: real time      0.4447
    EDDIAG:  cpu time     13.4436: real time     13.4730
  RMM-DIIS:  cpu time     90.0590: real time     90.2601
    ORTHCH:  cpu time      0.3507: real time      0.3515
       DOS:  cpu time      0.0011: real time      0.0011
    CHARGE:  cpu time      7.5999: real time      7.6162
    MIXING:  cpu time      0.2053: real time      0.2056
    --------------------------------------------
      LOOP:  cpu time    150.6018: real time    150.9235

 eigenvalue-minimisations  :   285
 total energy-change (2. order) :-0.7219665E+01  (-0.1747057E+01)
 number of electron      57.9999999 magnetization      18.8586943
 augmentation part        1.8642762 magnetization      18.7809996

 Broyden mixing:
  rms(total) = 0.60359E+00    rms(broyden)= 0.60353E+00
  rms(prec ) = 0.60781E+00
  weight for this iteration     100.00

 eigenvalues of (default mixing * dielectric matrix)
  average eigenvalue GAMMA=   1.2197
  1.8388  1.1177  0.7027

 Free energy of the ion-electron system (eV)
  ---------------------------------------------------
  alpha Z        PSCENC =         0.23359489
  Ewald energy   TEWEN  =      6362.80380985
  -Hartree energ DENC   =     -7998.87862356
  -exchange      EXHF   =         0.00000000
  -V(xc)+E(xc)   XCENC  =       231.49266227
  PAW double counting   =      4374.73264390    -4400.48587964
  entropy T*S    EENTRO =        -0.00000000
  eigenvalues    EBANDS =      -767.94553138
  atomic energy  EATOM  =      2053.67780985
  Solvation  Ecorr_sol  =       -10.94200377
  ---------------------------------------------------
  free energy    TOTEN  =      -155.31151758 eV

  energy without entropy =     -155.31151758  energy(sigma->0) =     -155.31151758


--------------------------------------------------------------------------------------------------------




--------------------------------------- Iteration      1(   5)  ---------------------------------------


    --------------------------------------------
      INIT:  cpu time      0.2730: real time      0.2732
  FINALIZE:  cpu time     31.8203: real time     31.8733
    --------------------------------------------
    POTLOK:  cpu time     41.4610: real time     41.5381
    SETDIJ:  cpu time      0.4477: real time      0.4486
    EDDIAG:  cpu time     13.4220: real time     13.4508
  RMM-DIIS:  cpu time    101.0365: real time    101.2623
    ORTHCH:  cpu time      0.3510: real time      0.3518
       DOS:  cpu time      0.0006: real time      0.0006
    CHARGE:  cpu time      7.6129: real time      7.6289
    MIXING:  cpu time      0.2092: real time      0.2095
    --------------------------------------------
      LOOP:  cpu time    164.5409: real time    164.8906

 eigenvalue-minimisations  :   336
 total energy-change (2. order) :-0.3179687E+01  (-0.4738719E+00)
 number of electron      57.9999999 magnetization      17.1245848
 augmentation part        1.8484941 magnetization      17.0623571

 Broyden mixing:
  rms(total) = 0.41426E+00    rms(broyden)= 0.41423E+00
  rms(prec ) = 0.41703E+00
  weight for this iteration     100.00

 eigenvalues of (default mixing * dielectric matrix)
  average eigenvalue GAMMA=   1.3961
  2.2856  1.7549  0.8784  0.6654

 Free energy of the ion-electron system (eV)
  ---------------------------------------------------
  alpha Z        PSCENC =         0.23359489
  Ewald energy   TEWEN  =      6362.80380985
  -Hartree energ DENC   =     -8011.06064264
  -exchange      EXHF   =         0.00000000
  -V(xc)+E(xc)   XCENC  =       229.73429486
  PAW double counting   =      4762.71805021    -4788.31786236
  entropy T*S    EENTRO =        -0.00000000
  eigenvalues    EBANDS =      -757.69031105
  atomic energy  EATOM  =      2053.67780985
  Solvation  Ecorr_sol  =       -10.58994771
  ---------------------------------------------------
  free energy    TOTEN  =      -158.49120411 eV

  energy without entropy =     -158.49120411  energy(sigma->0) =     -158.49120411


--------------------------------------------------------------------------------------------------------




--------------------------------------- Iteration      1(   6)  ---------------------------------------


    --------------------------------------------
      INIT:  cpu time      0.2734: real time      0.2736
  FINALIZE:  cpu time     31.8842: real time     31.9360
    --------------------------------------------
    POTLOK:  cpu time     41.5490: real time     41.6264
    SETDIJ:  cpu time      0.4449: real time      0.4457
    EDDIAG:  cpu time     13.3529: real time     13.3830
  RMM-DIIS:  cpu time    101.1304: real time    101.3579
    ORTHCH:  cpu time      0.3552: real time      0.3560
       DOS:  cpu time      0.0003: real time      0.0003
    CHARGE:  cpu time      7.6103: real time      7.6265
    MIXING:  cpu time      0.2133: real time      0.2136
    --------------------------------------------
      LOOP:  cpu time    164.6562: real time    165.0095

 eigenvalue-minimisations  :   329
 total energy-change (2. order) :-0.2877152E+01  (-0.2364804E+00)
 number of electron      57.9999999 magnetization      16.3146815
 augmentation part        1.8474876 magnetization      16.2641786

 Broyden mixing:
  rms(total) = 0.23662E+00    rms(broyden)= 0.23661E+00
  rms(prec ) = 0.23763E+00
  weight for this iteration     100.00

 eigenvalues of (default mixing * dielectric matrix)
  average eigenvalue GAMMA=   1.4118
  2.8138  1.7033  1.1171  0.7786  0.6461

 Free energy of the ion-electron system (eV)
  ---------------------------------------------------
  alpha Z        PSCENC =         0.23359489
  Ewald energy   TEWEN  =      6362.80380985
  -Hartree energ DENC   =     -8016.84739530
  -exchange      EXHF   =         0.00000000
  -V(xc)+E(xc)   XCENC  =       227.53271580
  PAW double counting   =      5110.00198124    -5135.23306792
  entropy T*S    EENTRO =        -0.00000000
  eigenvalues    EBANDS =      -755.52808618
  atomic energy  EATOM  =      2053.67780985
  Solvation  Ecorr_sol  =        -8.00971798
  ---------------------------------------------------
  free energy    TOTEN  =      -161.36835576 eV

  energy without entropy =     -161.36835576  energy(sigma->0) =     -161.36835576


--------------------------------------------------------------------------------------------------------




--------------------------------------- Iteration      1(   7)  ---------------------------------------


    --------------------------------------------
      INIT:  cpu time      0.2701: real time      0.2702
  FINALIZE:  cpu time     33.3979: real time     33.4525
    --------------------------------------------
    POTLOK:  cpu time     43.0683: real time     43.1479
    SETDIJ:  cpu time      0.4476: real time      0.4485
    EDDIAG:  cpu time     13.3352: real time     13.3646
  RMM-DIIS:  cpu time    102.8522: real time    103.0809
    ORTHCH:  cpu time      0.3564: real time      0.3572
       DOS:  cpu time      0.0005: real time      0.0005
    CHARGE:  cpu time      7.6101: real time      7.6261
    MIXING:  cpu time      0.2236: real time      0.2240
    --------------------------------------------
      LOOP:  cpu time    167.8939: real time    168.2497

 eigenvalue-minimisations  :   340
 total energy-change (2. order) : 0.2695311E+00  (-0.7249126E-01)
 number of electron      57.9999999 magnetization      15.2171285
 augmentation part        1.8420159 magnetization      15.1733318

 Broyden mixing:
  rms(total) = 0.19860E+00    rms(broyden)= 0.19860E+00
  rms(prec ) = 0.19942E+00
  weight for this iteration     100.00

 eigenvalues of (default mixing * dielectric matrix)
  average eigenvalue GAMMA=   1.3377
  2.8965  1.7962  0.9932  0.9932  0.7085  0.6388

 Free energy of the ion-electron system (eV)
  ---------------------------------------------------
  alpha Z        PSCENC =         0.23359489
  Ewald energy   TEWEN  =      6362.80380985
  -Hartree energ DENC   =     -8023.93893594
  -exchange      EXHF   =         0.00000000
  -V(xc)+E(xc)   XCENC  =       228.23246258
  PAW double counting   =      5161.58204324    -5186.82147276
  entropy T*S    EENTRO =        -0.00000000
  eigenvalues    EBANDS =      -750.60978583
  atomic energy  EATOM  =      2053.67780985
  Solvation  Ecorr_sol  =        -6.25835051
  ---------------------------------------------------
  free energy    TOTEN  =      -161.09882463 eV

  energy without entropy =     -161.09882463  energy(sigma->0) =     -161.09882463


--------------------------------------------------------------------------------------------------------




--------------------------------------- Iteration      1(   8)  ---------------------------------------


    --------------------------------------------
      INIT:  cpu time      0.2753: real time      0.2754
  FINALIZE:  cpu time     31.9838: real time     32.0357
    --------------------------------------------
    POTLOK:  cpu time     41.6294: real time     41.7065
    SETDIJ:  cpu time      0.4479: real time      0.4488
    EDDIAG:  cpu time     13.3636: real time     13.3930
  RMM-DIIS:  cpu time    103.1835: real time    103.4157
    ORTHCH:  cpu time      0.3496: real time      0.3504
       DOS:  cpu time      0.0009: real time      0.0009
    CHARGE:  cpu time      7.6121: real time      7.6280
    MIXING:  cpu time      0.2292: real time      0.2296
    --------------------------------------------
      LOOP:  cpu time    166.8164: real time    167.1729

 eigenvalue-minimisations  :   340
 total energy-change (2. order) : 0.1599503E+01  (-0.5318960E-01)
 number of electron      57.9999999 magnetization      11.9924123
 augmentation part        1.8384974 magnetization      11.9545349

 Broyden mixing:
  rms(total) = 0.15598E+00    rms(broyden)= 0.15598E+00
  rms(prec ) = 0.15649E+00
  weight for this iteration     100.00

 eigenvalues of (default mixing * dielectric matrix)
  average eigenvalue GAMMA=   1.7275
  4.4711  2.6026  1.6797  1.1816  0.8183  0.7165  0.6223

 Free energy of the ion-electron system (eV)
  ---------------------------------------------------
  alpha Z        PSCENC =         0.23359489
  Ewald energy   TEWEN  =      6362.80380985
  -Hartree energ DENC   =     -8027.86269179
  -exchange      EXHF   =         0.00000000
  -V(xc)+E(xc)   XCENC  =       229.76752469
  PAW double counting   =      5110.71669116    -5135.96556766
  entropy T*S    EENTRO =        -0.00000000
  eigenvalues    EBANDS =      -749.14380903
  atomic energy  EATOM  =      2053.67780985
  Solvation  Ecorr_sol  =        -3.72668354
  ---------------------------------------------------
  free energy    TOTEN  =      -159.49932159 eV

  energy without entropy =     -159.49932159  energy(sigma->0) =     -159.49932159


--------------------------------------------------------------------------------------------------------




--------------------------------------- Iteration      1(   9)  ---------------------------------------


    --------------------------------------------
      INIT:  cpu time      0.2768: real time      0.2771
  FINALIZE:  cpu time     32.1106: real time     32.1628
    --------------------------------------------
    POTLOK:  cpu time     41.7673: real time     41.8447
    SETDIJ:  cpu time      0.4482: real time      0.4491
    EDDIAG:  cpu time     13.4178: real time     13.4476
  RMM-DIIS:  cpu time    103.3079: real time    103.5409
    ORTHCH:  cpu time      0.3540: real time      0.3548
       DOS:  cpu time      0.0005: real time      0.0005
    CHARGE:  cpu time      7.6153: real time      7.6313
    MIXING:  cpu time      0.2246: real time      0.2250
    --------------------------------------------
      LOOP:  cpu time    167.1356: real time    167.4939

 eigenvalue-minimisations  :   340
 total energy-change (2. order) : 0.2608897E+01  (-0.8710897E-01)
 number of electron      57.9999999 magnetization      11.3232011
 augmentation part        1.8346923 magnetization      11.2940269

 Broyden mixing:
  rms(total) = 0.84498E-01    rms(broyden)= 0.84492E-01
  rms(prec ) = 0.84960E-01
  weight for this iteration     100.00

 eigenvalues of (default mixing * dielectric matrix)
  average eigenvalue GAMMA=   1.7698
  5.7782  2.5965  1.7517  0.9997  0.9123  0.7473  0.7473  0.6251

 Free energy of the ion-electron system (eV)
  ---------------------------------------------------
  alpha Z        PSCENC =         0.23359489
  Ewald energy   TEWEN  =      6362.80380985
  -Hartree energ DENC   =     -8037.87117042
  -exchange      EXHF   =         0.00000000
  -V(xc)+E(xc)   XCENC  =       232.33512213
  PAW double counting   =      5029.38269304    -5054.61655475
  entropy T*S    EENTRO =        -0.00000000
  eigenvalues    EBANDS =      -745.88963486
  atomic energy  EATOM  =      2053.67780985
  Solvation  Ecorr_sol  =         3.05390562
  ---------------------------------------------------
  free energy    TOTEN  =      -156.89042466 eV

  energy without entropy =     -156.89042466  energy(sigma->0) =     -156.89042466


--------------------------------------------------------------------------------------------------------




--------------------------------------- Iteration      1(  10)  ---------------------------------------


    --------------------------------------------
      INIT:  cpu time      0.2745: real time      0.2747
  FINALIZE:  cpu time     33.4372: real time     33.4921
    --------------------------------------------
    POTLOK:  cpu time     43.0840: real time     43.1635
    SETDIJ:  cpu time      0.4500: real time      0.4509
    EDDIAG:  cpu time     13.4197: real time     13.4502
  RMM-DIIS:  cpu time    103.5691: real time    103.7987
    ORTHCH:  cpu time      0.3550: real time      0.3557
       DOS:  cpu time      0.0009: real time      0.0009
    CHARGE:  cpu time      7.6032: real time      7.6193
    MIXING:  cpu time      0.2329: real time      0.2334
    --------------------------------------------
      LOOP:  cpu time    168.7147: real time    169.0726

 eigenvalue-minimisations  :   340
 total energy-change (2. order) : 0.4308476E+00  (-0.2254047E-01)
 number of electron      57.9999999 magnetization      10.2247407
 augmentation part        1.8328538 magnetization      10.2000208

 Broyden mixing:
  rms(total) = 0.68468E-01    rms(broyden)= 0.68465E-01
  rms(prec ) = 0.68789E-01
  weight for this iteration     100.00

 eigenvalues of (default mixing * dielectric matrix)
  average eigenvalue GAMMA=   1.7848
  6.5927  2.4913  1.5672  1.5672  0.9944  0.7666  0.7304  0.7304  0.6231

 Free energy of the ion-electron system (eV)
  ---------------------------------------------------
  alpha Z        PSCENC =         0.23359489
  Ewald energy   TEWEN  =      6362.80380985
  -Hartree energ DENC   =     -8039.35228487
  -exchange      EXHF   =         0.00000000
  -V(xc)+E(xc)   XCENC  =       232.81558368
  PAW double counting   =      5047.94701725    -5073.17420261
  entropy T*S    EENTRO =        -0.00000000
  eigenvalues    EBANDS =      -745.43952295
  atomic energy  EATOM  =      2053.67780985
  Solvation  Ecorr_sol  =         4.02861788
  ---------------------------------------------------
  free energy    TOTEN  =      -156.45957704 eV

  energy without entropy =     -156.45957704  energy(sigma->0) =     -156.45957704


--------------------------------------------------------------------------------------------------------




--------------------------------------- Iteration      1(  11)  ---------------------------------------


    --------------------------------------------
      INIT:  cpu time      0.2769: real time      0.2772
  FINALIZE:  cpu time     28.9445: real time     28.9930
    --------------------------------------------
    POTLOK:  cpu time     38.5995: real time     38.6730
    SETDIJ:  cpu time      0.4451: real time      0.4459
    EDDIAG:  cpu time     13.3815: real time     13.4114
  RMM-DIIS:  cpu time    103.8453: real time    104.0774
    ORTHCH:  cpu time      0.3524: real time      0.3532
       DOS:  cpu time      0.0005: real time      0.0005
    CHARGE:  cpu time      7.6116: real time      7.6288
    MIXING:  cpu time      0.2413: real time      0.2417
    --------------------------------------------
      LOOP:  cpu time    164.4771: real time    164.8319

 eigenvalue-minimisations  :   340
 total energy-change (2. order) : 0.1195456E+01  (-0.1725202E-01)
 number of electron      57.9999999 magnetization       8.7329190
 augmentation part        1.8326745 magnetization       8.7116396

 Broyden mixing:
  rms(total) = 0.53240E-01    rms(broyden)= 0.53237E-01
  rms(prec ) = 0.53380E-01
  weight for this iteration     100.00

 eigenvalues of (default mixing * dielectric matrix)
  average eigenvalue GAMMA=   1.9566
  7.8273  2.7118  2.3213  1.8071  1.0361  1.0361  0.7515  0.7515  0.6251  0.6977

 Free energy of the ion-electron system (eV)
  ---------------------------------------------------
  alpha Z        PSCENC =         0.23359489
  Ewald energy   TEWEN  =      6362.80380985
  -Hartree energ DENC   =     -8039.22423307
  -exchange      EXHF   =         0.00000000
  -V(xc)+E(xc)   XCENC  =       233.94876636
  PAW double counting   =      5052.85927503    -5078.07022312
  entropy T*S    EENTRO =        -0.00000000
  eigenvalues    EBANDS =      -746.92101982
  atomic energy  EATOM  =      2053.67780985
  Solvation  Ecorr_sol  =         5.42809932
  ---------------------------------------------------
  free energy    TOTEN  =      -155.26412072 eV

  energy without entropy =     -155.26412072  energy(sigma->0) =     -155.26412072


--------------------------------------------------------------------------------------------------------




--------------------------------------- Iteration      1(  12)  ---------------------------------------


    --------------------------------------------
      INIT:  cpu time      0.2757: real time      0.2757
  FINALIZE:  cpu time     28.9672: real time     29.0136
    --------------------------------------------
    POTLOK:  cpu time     38.5874: real time     38.6575
    SETDIJ:  cpu time      0.4486: real time      0.4494
    EDDIAG:  cpu time     13.3373: real time     13.3664
  RMM-DIIS:  cpu time    103.0451: real time    103.2789
    ORTHCH:  cpu time      0.3586: real time      0.3594
       DOS:  cpu time      0.0006: real time      0.0006
    CHARGE:  cpu time      7.6034: real time      7.6194
    MIXING:  cpu time      0.2490: real time      0.2494
    --------------------------------------------
      LOOP:  cpu time    163.6298: real time    163.9810

 eigenvalue-minimisations  :   340
 total energy-change (2. order) : 0.1435708E+01  (-0.1371761E-01)
 number of electron      57.9999999 magnetization       7.9008694
 augmentation part        1.8321500 magnetization       7.8831983

 Broyden mixing:
  rms(total) = 0.40199E-01    rms(broyden)= 0.40196E-01
  rms(prec ) = 0.40343E-01
  weight for this iteration     100.00

 eigenvalues of (default mixing * dielectric matrix)
  average eigenvalue GAMMA=   1.9400
  8.3179  3.1294  2.2847  1.6583  1.1936  0.9987  0.9555  0.7489  0.7489  0.6273
  0.6765

 Free energy of the ion-electron system (eV)
  ---------------------------------------------------
  alpha Z        PSCENC =         0.23359489
  Ewald energy   TEWEN  =      6362.80380985
  -Hartree energ DENC   =     -8039.78762628
  -exchange      EXHF   =         0.00000000
  -V(xc)+E(xc)   XCENC  =       235.36245641
  PAW double counting   =      5035.92009001    -5061.14988787
  entropy T*S    EENTRO =        -0.00000000
  eigenvalues    EBANDS =      -748.00717559
  atomic energy  EATOM  =      2053.67780985
  Solvation  Ecorr_sol  =         7.11851650
  ---------------------------------------------------
  free energy    TOTEN  =      -153.82841224 eV

  energy without entropy =     -153.82841224  energy(sigma->0) =     -153.82841224


--------------------------------------------------------------------------------------------------------




--------------------------------------- Iteration      1(  13)  ---------------------------------------


    --------------------------------------------
      INIT:  cpu time      0.2763: real time      0.2765
  FINALIZE:  cpu time     30.5136: real time     30.5643
    --------------------------------------------
    POTLOK:  cpu time     40.1239: real time     40.2005
    SETDIJ:  cpu time      0.4524: real time      0.4533
    EDDIAG:  cpu time     13.3811: real time     13.4113
  RMM-DIIS:  cpu time    103.6917: real time    103.9233
    ORTHCH:  cpu time      0.3554: real time      0.3563
       DOS:  cpu time      0.0006: real time      0.0006
    CHARGE:  cpu time      7.6038: real time      7.6202
    MIXING:  cpu time      0.2559: real time      0.2564
    --------------------------------------------
      LOOP:  cpu time    165.8647: real time    166.2217

 eigenvalue-minimisations  :   340
 total energy-change (2. order) : 0.6788984E+00  (-0.2047698E-02)
 number of electron      57.9999999 magnetization       6.5191509
 augmentation part        1.8330335 magnetization       6.5038122

 Broyden mixing:
  rms(total) = 0.34752E-01    rms(broyden)= 0.34750E-01
  rms(prec ) = 0.34817E-01
  weight for this iteration     100.00

 eigenvalues of (default mixing * dielectric matrix)
  average eigenvalue GAMMA=   2.0126
  8.8163  3.5781  2.4924  1.7780  1.7780  1.1788  1.0104  0.7329  0.7329  0.7459
  0.6270  0.6803

 Free energy of the ion-electron system (eV)
  ---------------------------------------------------
  alpha Z        PSCENC =         0.23359489
  Ewald energy   TEWEN  =      6362.80380985
  -Hartree energ DENC   =     -8039.75715583
  -exchange      EXHF   =         0.00000000
  -V(xc)+E(xc)   XCENC  =       236.04478979
  PAW double counting   =      5037.80897042    -5063.04390102
  entropy T*S    EENTRO =        -0.00000000
  eigenvalues    EBANDS =      -748.37952472
  atomic energy  EATOM  =      2053.67780985
  Solvation  Ecorr_sol  =         7.46209293
  ---------------------------------------------------
  free energy    TOTEN  =      -153.14951383 eV

  energy without entropy =     -153.14951383  energy(sigma->0) =     -153.14951383


--------------------------------------------------------------------------------------------------------




--------------------------------------- Iteration      1(  14)  ---------------------------------------


    --------------------------------------------
      INIT:  cpu time      0.2770: real time      0.2771
  FINALIZE:  cpu time     31.9114: real time     31.9637
    --------------------------------------------
    POTLOK:  cpu time     41.5364: real time     41.6123
    SETDIJ:  cpu time      0.4442: real time      0.4451
    EDDIAG:  cpu time     13.4491: real time     13.4781
  RMM-DIIS:  cpu time    102.9233: real time    103.1556
    ORTHCH:  cpu time      0.3534: real time      0.3542
       DOS:  cpu time      0.0004: real time      0.0004
    CHARGE:  cpu time      7.5971: real time      7.6135
    MIXING:  cpu time      0.2644: real time      0.2648
    --------------------------------------------
      LOOP:  cpu time    166.5683: real time    166.9240

 eigenvalue-minimisations  :   340
 total energy-change (2. order) : 0.1036385E+01  (-0.9039577E-04)
 number of electron      57.9999999 magnetization       5.6632459
 augmentation part        1.8319689 magnetization       5.6498202

 Broyden mixing:
  rms(total) = 0.27686E-01    rms(broyden)= 0.27684E-01
  rms(prec ) = 0.27735E-01
  weight for this iteration     100.00

 eigenvalues of (default mixing * dielectric matrix)
  average eigenvalue GAMMA=   2.0837
  9.5746  4.6710  2.5140  1.8850  1.7096  1.2498  1.1006  0.9408  0.7199  0.7199
  0.6298  0.6867  0.6867

 Free energy of the ion-electron system (eV)
  ---------------------------------------------------
  alpha Z        PSCENC =         0.23359489
  Ewald energy   TEWEN  =      6362.80380985
  -Hartree energ DENC   =     -8039.63788584
  -exchange      EXHF   =         0.00000000
  -V(xc)+E(xc)   XCENC  =       237.08971524
  PAW double counting   =      5050.73709424    -5075.97646839
  entropy T*S    EENTRO =        -0.00000000
  eigenvalues    EBANDS =      -748.78742019
  atomic energy  EATOM  =      2053.67780985
  Solvation  Ecorr_sol  =         7.74662199
  ---------------------------------------------------
  free energy    TOTEN  =      -152.11312836 eV

  energy without entropy =     -152.11312836  energy(sigma->0) =     -152.11312836


--------------------------------------------------------------------------------------------------------




--------------------------------------- Iteration      1(  15)  ---------------------------------------


    --------------------------------------------
      INIT:  cpu time      0.2744: real time      0.2746
  FINALIZE:  cpu time     30.6554: real time     30.7056
    --------------------------------------------
    POTLOK:  cpu time     40.2887: real time     40.3626
    SETDIJ:  cpu time      0.4496: real time      0.4504
    EDDIAG:  cpu time     13.4275: real time     13.4577
  RMM-DIIS:  cpu time    103.2182: real time    103.4497
    ORTHCH:  cpu time      0.3545: real time      0.3553
       DOS:  cpu time      0.0004: real time      0.0004
    CHARGE:  cpu time      7.6027: real time      7.6186
    MIXING:  cpu time      0.2707: real time      0.2712
    --------------------------------------------
      LOOP:  cpu time    165.6123: real time    165.9659

 eigenvalue-minimisations  :   340
 total energy-change (2. order) : 0.5343859E+00  (-0.5066467E-04)
 number of electron      57.9999999 magnetization       4.8184685
 augmentation part        1.8310515 magnetization       4.8063238

 Broyden mixing:
  rms(total) = 0.24569E-01    rms(broyden)= 0.24568E-01
  rms(prec ) = 0.24625E-01
  weight for this iteration     100.00

 eigenvalues of (default mixing * dielectric matrix)
  average eigenvalue GAMMA=   2.1017
 10.1067  5.2158  2.5954  2.1953  1.5078  1.5078  1.1599  0.8627  0.8627  0.7561
  0.6900  0.6900  0.6318  0.6421

 Free energy of the ion-electron system (eV)
  ---------------------------------------------------
  alpha Z        PSCENC =         0.23359489
  Ewald energy   TEWEN  =      6362.80380985
  -Hartree energ DENC   =     -8039.00303175
  -exchange      EXHF   =         0.00000000
  -V(xc)+E(xc)   XCENC  =       237.59180668
  PAW double counting   =      5049.98282159    -5075.21927577
  entropy T*S    EENTRO =        -0.00000000
  eigenvalues    EBANDS =      -749.48523152
  atomic energy  EATOM  =      2053.67780985
  Solvation  Ecorr_sol  =         7.83895372
  ---------------------------------------------------
  free energy    TOTEN  =      -151.57874246 eV

  energy without entropy =     -151.57874246  energy(sigma->0) =     -151.57874246


--------------------------------------------------------------------------------------------------------




--------------------------------------- Iteration      1(  16)  ---------------------------------------


    --------------------------------------------
      INIT:  cpu time      0.2759: real time      0.2762
  FINALIZE:  cpu time     30.5605: real time     30.6121
    --------------------------------------------
    POTLOK:  cpu time     40.2710: real time     40.3488
    SETDIJ:  cpu time      0.4459: real time      0.4468
    EDDIAG:  cpu time     13.4202: real time     13.4488
  RMM-DIIS:  cpu time    103.1083: real time    103.3394
    ORTHCH:  cpu time      0.3539: real time      0.3547
       DOS:  cpu time      0.0005: real time      0.0005
    CHARGE:  cpu time      7.6059: real time      7.6221
    MIXING:  cpu time      0.2975: real time      0.2981
    --------------------------------------------
      LOOP:  cpu time    165.5032: real time    165.8591

 eigenvalue-minimisations  :   340
 total energy-change (2. order) : 0.5016419E+00  (-0.1868260E-02)
 number of electron      57.9999999 magnetization       2.9245697
 augmentation part        1.8309159 magnetization       2.9137950

 Broyden mixing:
  rms(total) = 0.21008E-01    rms(broyden)= 0.21006E-01
  rms(prec ) = 0.21027E-01
  weight for this iteration     100.00

 eigenvalues of (default mixing * dielectric matrix)
  average eigenvalue GAMMA=   2.2243
 10.8230  6.0145  3.0729  2.5542  1.6379  1.6379  1.2451  1.2451  0.9402  0.7265
  0.7265  0.7406  0.7406  0.6296  0.6296

 Free energy of the ion-electron system (eV)
  ---------------------------------------------------
  alpha Z        PSCENC =         0.23359489
  Ewald energy   TEWEN  =      6362.80380985
  -Hartree energ DENC   =     -8037.98495442
  -exchange      EXHF   =         0.00000000
  -V(xc)+E(xc)   XCENC  =       238.05531973
  PAW double counting   =      5050.45029806    -5075.67497583
  entropy T*S    EENTRO =        -0.00000000
  eigenvalues    EBANDS =      -750.32652841
  atomic energy  EATOM  =      2053.67780985
  Solvation  Ecorr_sol  =         7.68852577
  ---------------------------------------------------
  free energy    TOTEN  =      -151.07710051 eV

  energy without entropy =     -151.07710051  energy(sigma->0) =     -151.07710051


--------------------------------------------------------------------------------------------------------




--------------------------------------- Iteration      1(  17)  ---------------------------------------


    --------------------------------------------
      INIT:  cpu time      0.2751: real time      0.2753
  FINALIZE:  cpu time     30.4172: real time     30.4659
    --------------------------------------------
    POTLOK:  cpu time     40.0562: real time     40.1316
    SETDIJ:  cpu time      0.4516: real time      0.4525
    EDDIAG:  cpu time     13.3595: real time     13.3889
  RMM-DIIS:  cpu time    104.0151: real time    104.2443
    ORTHCH:  cpu time      0.3522: real time      0.3530
       DOS:  cpu time      0.0005: real time      0.0005
    CHARGE:  cpu time      7.6104: real time      7.6268
    MIXING:  cpu time      0.3025: real time      0.3030
    --------------------------------------------
      LOOP:  cpu time    166.1480: real time    166.5009

 eigenvalue-minimisations  :   340
 total energy-change (2. order) : 0.1114946E+01  ( 0.2220004E-02)
 number of electron      57.9999999 magnetization       2.1714075
 augmentation part        1.8306632 magnetization       2.1615820

 Broyden mixing:
  rms(total) = 0.17932E-01    rms(broyden)= 0.17931E-01
  rms(prec ) = 0.18008E-01
  weight for this iteration     100.00

 eigenvalues of (default mixing * dielectric matrix)
  average eigenvalue GAMMA=   2.2425
 11.3614  6.6115  3.3482  2.6042  1.7898  1.5563  1.5563  1.1424  0.9045  0.9045
  0.6850  0.6850  0.7304  0.7304  0.6325  0.6382

 Free energy of the ion-electron system (eV)
  ---------------------------------------------------
  alpha Z        PSCENC =         0.23359489
  Ewald energy   TEWEN  =      6362.80380985
  -Hartree energ DENC   =     -8036.36545752
  -exchange      EXHF   =         0.00000000
  -V(xc)+E(xc)   XCENC  =       239.11986499
  PAW double counting   =      5051.26314173    -5076.47399221
  entropy T*S    EENTRO =        -0.00000000
  eigenvalues    EBANDS =      -751.41584448
  atomic energy  EATOM  =      2053.67780985
  Solvation  Ecorr_sol  =         7.19491870
  ---------------------------------------------------
  free energy    TOTEN  =      -149.96215420 eV

  energy without entropy =     -149.96215420  energy(sigma->0) =     -149.96215420


--------------------------------------------------------------------------------------------------------




--------------------------------------- Iteration      1(  18)  ---------------------------------------


    --------------------------------------------
      INIT:  cpu time      0.2750: real time      0.2752
  FINALIZE:  cpu time     31.8296: real time     31.8872
    --------------------------------------------
    POTLOK:  cpu time     41.4778: real time     41.5610
    SETDIJ:  cpu time      0.4481: real time      0.4490
    EDDIAG:  cpu time     13.3881: real time     13.4166
  RMM-DIIS:  cpu time    103.4968: real time    103.7315
    ORTHCH:  cpu time      0.3588: real time      0.3596
       DOS:  cpu time      0.0009: real time      0.0009
[...]
    --------------------------------------------
    POTLOK:  cpu time     38.6681: real time     38.7391
    SETDIJ:  cpu time      0.4494: real time      0.4504
    EDDIAG:  cpu time     13.3357: real time     13.3644
  RMM-DIIS:  cpu time     74.4498: real time     74.6195
    ORTHCH:  cpu time      0.3415: real time      0.3423
       DOS:  cpu time      0.0006: real time      0.0006
    --------------------------------------------
      LOOP:  cpu time    127.2452: real time    127.5162

 eigenvalue-minimisations  :   222
 total energy-change (2. order) :-0.6010176E-05  (-0.7553501E-05)
 number of electron      57.9999999 magnetization      -0.0011091
 augmentation part        1.8311016 magnetization      -0.0011088

 Free energy of the ion-electron system (eV)
  ---------------------------------------------------
  alpha Z        PSCENC =         0.23359489
  Ewald energy   TEWEN  =      6368.13083552
  -Hartree energ DENC   =     -8040.76245717
  -exchange      EXHF   =         0.00000000
  -V(xc)+E(xc)   XCENC  =       240.54491996
  PAW double counting   =      5061.72910445    -5086.95546215
  entropy T*S    EENTRO =        -0.00000000
  eigenvalues    EBANDS =      -752.14864694
  atomic energy  EATOM  =      2053.67780985
  Solvation  Ecorr_sol  =         6.91871358
  ---------------------------------------------------
  free energy    TOTEN  =      -148.63158801 eV

  energy without entropy =     -148.63158801  energy(sigma->0) =     -148.63158801


--------------------------------------------------------------------------------------------------------




 average (electrostatic) potential at core
  the test charge radii are     0.6991  0.7215  0.5201
  (the norm of the test charge is              1.0000)
       1 -62.2633       2 -60.8288       3 -60.8498       4 -60.6755       5 -60.8103
       6 -61.0129       7 -60.6485       8 -60.7683       9 -60.4899      10 -61.8805
      11 -85.0069      12 -43.9955      13 -44.0387      14 -44.0301      15 -44.2220
      16 -44.0446      17 -44.3325      18 -44.2499      19 -44.3336      20 -44.5690
      21 -44.4618      22 -44.4588      23 -44.5309
 
 
 
 E-fermi :  -4.9465     XC(G=0):  -0.0527     alpha+bet : -0.0220

 Fermi energy:        -4.9465270249

 spin component 1

 k-point     1 :       0.0000    0.0000    0.0000
  band No.  band energies     occupation 
      1     -28.1407      1.00000
      2     -22.4273      1.00000
      3     -20.8892      1.00000
      4     -19.7477      1.00000
      5     -19.4542      1.00000
      6     -18.2103      1.00000
      7     -17.5379      1.00000
      8     -15.8643      1.00000
      9     -15.1668      1.00000
     10     -14.1291      1.00000
     11     -13.6088      1.00000
     12     -12.4917      1.00000
     13     -12.1980      1.00000
     14     -11.9052      1.00000
     15     -11.3695      1.00000
     16     -11.0959      1.00000
     17     -10.6431      1.00000
     18     -10.4126      1.00000
     19     -10.2069      1.00000
     20      -9.7407      1.00000
     21      -9.6327      1.00000
     22      -9.1498      1.00000
     23      -8.9932      1.00000
     24      -8.4376      1.00000
     25      -8.0977      1.00000
     26      -7.9115      1.00000
     27      -7.3924      1.00000
     28      -5.9827      1.00000
     29      -5.2369      1.00000
     30      -1.6353      0.00000
     31      -0.5758      0.00000
     32      -0.0435      0.00000
     33       0.0324      0.00000
     34       0.0946      0.00000
     35       0.0970      0.00000
     36       0.1010      0.00000
     37       0.1032      0.00000
     38       0.1040      0.00000
     39       0.1464      0.00000
     40       0.1689      0.00000
     41       0.1743      0.00000
     42       0.1873      0.00000
     43       0.1968      0.00000
     44       0.1971      0.00000
     45       0.1971      0.00000
     46       0.1976      0.00000
     47       0.1977      0.00000
     48       0.1978      0.00000
     49       0.1980      0.00000
     50       0.1981      0.00000
     51       0.2653      0.00000
     52       0.2690      0.00000
     53       0.2727      0.00000
     54       0.2817      0.00000
     55       0.2892      0.00000
     56       0.2908      0.00000
 Fermi energy:        -4.9465270249

 spin component 2

 k-point     1 :       0.0000    0.0000    0.0000
  band No.  band energies     occupation 
      1     -28.1407      1.00000
      2     -22.4273      1.00000
      3     -20.8892      1.00000
      4     -19.7477      1.00000
      5     -19.4542      1.00000
      6     -18.2103      1.00000
      7     -17.5379      1.00000
      8     -15.8643      1.00000
      9     -15.1668      1.00000
     10     -14.1291      1.00000
     11     -13.6088      1.00000
     12     -12.4917      1.00000
     13     -12.1980      1.00000
     14     -11.9052      1.00000
     15     -11.3695      1.00000
     16     -11.0959      1.00000
     17     -10.6431      1.00000
     18     -10.4126      1.00000
     19     -10.2069      1.00000
     20      -9.7407      1.00000
     21      -9.6327      1.00000
     22      -9.1498      1.00000
     23      -8.9932      1.00000
     24      -8.4376      1.00000
     25      -8.0977      1.00000
     26      -7.9115      1.00000
     27      -7.3924      1.00000
     28      -5.9827      1.00000
     29      -5.2369      1.00000
     30      -1.6353      0.00000
     31      -0.5758      0.00000
     32      -0.0529      0.00000
     33       0.0040      0.00000
     34       0.0679      0.00000
     35       0.0695      0.00000
     36       0.0726      0.00000
     37       0.0793      0.00000
     38       0.0802      0.00000
     39       0.1165      0.00000
     40       0.1448      0.00000
     41       0.1504      0.00000
     42       0.1627      0.00000
     43       0.1642      0.00000
     44       0.1653      0.00000
     45       0.1659      0.00000
     46       0.1710      0.00000
     47       0.1713      0.00000
     48       0.1727      0.00000
     49       0.1760      0.00000
     50       0.1774      0.00000
     51       0.2400      0.00000
     52       0.2442      0.00000
     53       0.2485      0.00000
     54       0.2577      0.00000
     55       0.2595      0.00000
     56       0.2628      0.00000


--------------------------------------------------------------------------------------------------------


 soft charge-density along one line, spin component           1
         0         1         2         3         4         5         6         7         8         9
 total charge-density along one line
 
 soft charge-density along one line, spin component           2
         0         1         2         3         4         5         6         7         8         9
 total charge-density along one line
 
 pseudopotential strength for first ion, spin component:           1
 10.522  13.993  -0.019   0.000   0.003   0.040  -0.000  -0.006
 13.993  18.607  -0.025   0.000   0.004   0.052  -0.000  -0.007
 -0.019  -0.025  -4.420   0.000  -0.003   8.590  -0.000   0.004
  0.000   0.000   0.000  -4.394   0.003  -0.000   8.550  -0.005
  0.003   0.004  -0.003   0.003  -4.458   0.004  -0.005   8.649
  0.040   0.052   8.590  -0.000   0.004 -18.969   0.000  -0.005
 -0.000  -0.000  -0.000   8.550  -0.005   0.000 -18.916   0.006
 -0.006  -0.007   0.004  -0.005   8.649  -0.005   0.006 -19.048
 pseudopotential strength for first ion, spin component:           2
 10.522  13.993  -0.019   0.000   0.003   0.040  -0.000  -0.006
 13.993  18.607  -0.025   0.000   0.004   0.052  -0.000  -0.007
 -0.019  -0.025  -4.420   0.000  -0.003   8.590  -0.000   0.004
  0.000   0.000   0.000  -4.394   0.003  -0.000   8.550  -0.005
  0.003   0.004  -0.003   0.003  -4.458   0.004  -0.005   8.649
  0.040   0.052   8.590  -0.000   0.004 -18.969   0.000  -0.005
 -0.000  -0.000  -0.000   8.550  -0.005   0.000 -18.916   0.006
 -0.006  -0.007   0.004  -0.005   8.649  -0.005   0.006 -19.048
 total augmentation occupancy for first ion, spin component:           1
  8.789  -4.063  -0.018   0.006  -0.019  -0.040   0.001   0.005
 -4.063   1.974   0.127  -0.004  -0.006   0.036  -0.001  -0.006
 -0.018   0.127   1.608  -0.005   0.017   0.182  -0.001  -0.005
  0.006  -0.004  -0.005   1.212  -0.033  -0.001   0.076  -0.004
 -0.019  -0.006   0.017  -0.033   1.908  -0.005  -0.004   0.175
 -0.040   0.036   0.182  -0.001  -0.005   0.023  -0.000  -0.001
  0.001  -0.001  -0.001   0.076  -0.004  -0.000   0.005  -0.001
  0.005  -0.006  -0.005  -0.004   0.175  -0.001  -0.001   0.018
 total augmentation occupancy for first ion, spin component:           2
 -0.000   0.000   0.000   0.000  -0.000  -0.000   0.000  -0.000
  0.000  -0.000  -0.000  -0.000   0.000   0.000  -0.000   0.000
  0.000  -0.000  -0.000   0.000  -0.000  -0.000   0.000  -0.000
  0.000  -0.000   0.000   0.000   0.000   0.000  -0.000   0.000
 -0.000   0.000  -0.000   0.000   0.000  -0.000  -0.000  -0.000
 -0.000   0.000  -0.000   0.000  -0.000   0.000   0.000  -0.000
  0.000  -0.000   0.000  -0.000  -0.000   0.000  -0.000  -0.000
 -0.000   0.000  -0.000   0.000  -0.000  -0.000  -0.000  -0.000


------------------------ aborting loop because EDIFF is reached ----------------------------------------


    CHARGE:  cpu time      1.6069: real time      1.6104
    FORLOC:  cpu time      0.4629: real time      0.4636
    FORNL :  cpu time      5.2700: real time      5.2817
    STRESS:  cpu time    133.9083: real time    134.1891
    FORCOR:  cpu time      7.5688: real time      7.5834
    FORHAR:  cpu time      0.9032: real time      0.9046
    MIXING:  cpu time      0.0995: real time      0.0997
    OFIELD:  cpu time      0.0000: real time      0.0000

 ---------------------------------------------------------------------------------------------

         DFTD3 V3.0 Rev 1        
 Edisp (eV)   -0.19528

 E6    (eV) :    -0.1537
 E8    (eV) :    -0.0416
 % E8        : 21.29
    FORVDW:  cpu time      0.0050: real time      0.0050

  FORCE on cell =-STRESS in cart. coord.  units (eV):
  Direction    XX          YY          ZZ          XY          YZ          ZX
  --------------------------------------------------------------------------------------
  Alpha Z     0.23359     0.23359     0.23359
  Ewald    3666.37903  3035.26673  -333.51561    72.60822    49.43658   -42.43972
  Hartree  3857.77671  3255.51949   920.74927    44.77495    18.66997   -27.36907
  E(xc)    -218.76382  -219.33096  -220.66637    -0.32609     0.09174    -0.02097
  Local   -8071.54073 -6819.15910 -1220.87352  -108.27475   -63.54820    68.50810
  n-local   -88.53030   -88.34703   -87.42610     0.67885    -0.44618    -0.07692
  augment     3.93606     2.74678     5.39780    -0.55127    -0.00614     0.02698
  Kinetic   850.34723   832.88677   935.83296    -8.90506    -4.18319     1.36475
  Fock        0.00000     0.00000     0.00000     0.00000     0.00000     0.00000
  vdW        -0.09659    -0.06013    -0.00191     0.00078    -0.00007    -0.00011
  -------------------------------------------------------------------------------------
  Total      -0.25881    -0.24385    -0.26988     0.00564     0.01450    -0.00697
  in kB      -0.00648    -0.00610    -0.00676     0.00014     0.00036    -0.00017
  external pressure =       -0.01 kB  Pullay stress =        0.00 kB


 VOLUME and BASIS-vectors are now :
 -----------------------------------------------------------------------------
  energy-cutoff  :      500.00
  volume of cell :    64000.00
      direct lattice vectors                 reciprocal lattice vectors
    40.000000000  0.000000000  0.000000000     0.025000000  0.000000000  0.000000000
     0.000000000 40.000000000  0.000000000     0.000000000  0.025000000  0.000000000
     0.000000000  0.000000000 40.000000000     0.000000000  0.000000000  0.025000000

  length of vectors
    40.000000000 40.000000000 40.000000000     0.025000000  0.025000000  0.025000000


 FORCES acting on ions
    electron-ion (+dipol)            ewald-force                    non-local-force                 convergence-correction
 -----------------------------------------------------------------------------------------------
   0.450E+02 -.184E+01 0.675E+00   -.459E+02 0.876E+01 -.758E+00   0.890E+00 -.686E+01 0.775E-01   -.163E-03 0.119E-01 -.279E-03
   0.210E+03 0.217E+02 -.822E+01   -.212E+03 -.215E+02 0.827E+01   0.157E+01 -.247E+00 -.471E-01   0.850E-02 0.487E-02 -.330E-03
   0.204E+03 -.122E+03 -.883E+01   -.204E+03 0.123E+03 0.891E+01   0.567E+00 -.839E+00 -.759E-01   0.109E-01 -.592E-02 -.346E-03
   0.523E+02 -.231E+03 -.919E+00   -.524E+02 0.232E+03 0.974E+00   0.156E+00 -.997E+00 -.538E-01   0.195E-02 -.128E-01 0.316E-03
   -.921E+02 -.183E+03 0.100E+02   0.924E+02 0.184E+03 -.102E+02   -.275E+00 -.788E+00 0.154E+00   -.572E-02 -.108E-01 -.322E-03
   -.716E+02 -.308E+02 0.831E+01   0.727E+02 0.314E+02 -.822E+01   -.107E+01 -.588E+00 -.881E-01   -.776E-02 0.607E-02 -.413E-03
   -.828E+02 0.760E+02 0.307E+02   0.836E+02 -.770E+02 -.310E+02   -.827E+00 0.941E+00 0.271E+00   -.954E-02 0.680E-03 -.458E-03
   -.139E+03 -.790E+02 -.291E+02   0.139E+03 0.790E+02 0.293E+02   0.160E-01 -.467E-01 -.140E+00   0.351E-02 0.269E-02 0.123E-02
   -.174E+03 0.401E+02 0.106E+01   0.174E+03 -.407E+02 -.119E+01   -.740E-01 0.564E+00 0.132E+00   0.216E-02 0.449E-03 -.930E-04
   0.145E+03 0.210E+03 -.421E+01   -.150E+03 -.214E+03 0.435E+01   0.523E+01 0.427E+01 -.135E+00   -.201E-02 -.217E-02 -.788E-04
   -.101E+03 0.263E+03 -.776E+00   0.141E+03 -.282E+03 0.340E+00   -.402E+02 0.197E+02 0.437E+00   0.399E-02 -.369E-02 -.756E-03
   -.279E+02 0.674E+02 0.173E+02   0.273E+02 -.730E+02 -.188E+02   0.541E+00 0.554E+01 0.154E+01   0.316E-03 0.315E-03 0.103E-04
   -.626E+02 -.230E+02 0.426E+02   0.660E+02 0.255E+02 -.464E+02   -.340E+01 -.252E+01 0.378E+01   -.101E-03 -.147E-03 0.303E-03
   -.560E+02 0.329E+01 -.556E+02   0.587E+02 -.313E+01 0.606E+02   -.278E+01 -.163E+00 -.495E+01   0.286E-04 0.499E-04 -.333E-03
   -.315E+02 -.713E+02 -.240E+02   0.316E+02 0.769E+02 0.257E+02   -.133E+00 -.565E+01 -.168E+01   -.225E-03 0.555E-03 0.325E-03
   -.272E+02 0.742E+02 0.237E+02   0.272E+02 -.800E+02 -.251E+02   -.143E-01 0.583E+01 0.143E+01   -.124E-02 -.614E-03 -.832E-04
   -.545E+02 -.705E+02 0.677E+01   0.592E+02 0.740E+02 -.719E+01   -.478E+01 -.358E+01 0.415E+00   -.103E-02 -.163E-02 -.100E-03
   0.140E+02 -.904E+02 0.514E+00   -.146E+02 0.964E+02 -.562E+00   0.611E+00 -.597E+01 0.491E-01   0.707E-05 -.627E-03 0.836E-04
   0.821E+02 -.408E+02 -.349E+01   -.876E+02 0.432E+02 0.372E+01   0.551E+01 -.239E+01 -.238E+00   0.436E-03 -.345E-03 -.346E-04
   0.871E+02 0.293E+02 -.401E+01   -.920E+02 -.328E+02 0.425E+01   0.494E+01 0.345E+01 -.244E+00   0.105E-02 0.221E-03 -.220E-04
   0.598E+02 0.274E+02 0.577E+02   -.633E+02 -.266E+02 -.624E+02   0.348E+01 -.762E+00 0.471E+01   0.840E-03 -.127E-03 0.975E-03
   0.558E+02 0.279E+02 -.613E+02   -.590E+02 -.272E+02 0.662E+02   0.317E+01 -.704E+00 -.493E+01   0.746E-03 -.129E-03 -.103E-02
   -.642E+01 0.899E+02 0.640E+00   0.864E+01 -.955E+02 -.743E+00   -.222E+01 0.567E+01 0.104E+00   -.674E-03 0.128E-02 0.612E-04
 -----------------------------------------------------------------------------------------------
   0.291E+02 -.138E+02 -.525E+00   0.231E-13 0.313E-12 -.222E-15   -.291E+02 0.138E+02 0.516E+00   0.600E-02 -.100E-01 -.137E-02
 
 
 POSITION                                       TOTAL-FORCE (eV/Angst)
 -----------------------------------------------------------------------------------
     18.91317     19.64334     19.98215         0.014329     -0.002600     -0.003645
     17.63969     20.20823     20.03697        -0.009407     -0.011067      0.001401
     17.49420     21.59230     20.04196        -0.008889      0.005305      0.001880
     18.61360     22.41378     19.98524         0.000429      0.002602      0.001750
     19.87803     21.84311     19.92259         0.014165      0.011739     -0.001934
     20.06838     20.45754     19.92707         0.003824      0.001090      0.000297
     21.38924     19.83373     19.86258         0.006435     -0.000216      0.002751
     22.56333     20.42662     20.11411        -0.011694     -0.000521     -0.000994
     23.88384     19.74069     20.02141         0.001212      0.000949     -0.001216
     18.00541     17.42964     20.02016         0.004731      0.004511      0.000351
     19.13562     18.29630     19.98976         0.003673     -0.010106     -0.000030
     23.77370     18.69482     19.72984        -0.006009     -0.000683     -0.003581
     24.53555     20.23345     19.29199         0.000337      0.004166     -0.003554
     24.41568     19.77770     20.97800         0.000445      0.000344      0.001874
     22.59020     21.47062     20.42079        -0.017890      0.007295      0.004648
     21.39602     18.77997     19.59973        -0.009420     -0.010495      0.002001
     20.74743     22.48779     19.85100        -0.000943     -0.009911     -0.004195
     18.50351     23.49193     19.97630         0.001461     -0.006327      0.001285
     16.49958     22.02203     20.08481         0.004585     -0.005405     -0.001462
     16.76070     19.57932     20.08057        -0.000915     -0.003006      0.001169
     17.36346     17.58369     19.14804         0.001327      0.014773     -0.010032
     17.42069     17.57299     20.93341         0.001932      0.015734      0.010078
     18.40890     16.42046     20.00144         0.006283     -0.008172      0.001157
 -----------------------------------------------------------------------------------
    total drift:                               -0.014363      0.013810     -0.010615


--------------------------------------------------------------------------------------------------------



  FREE ENERGIE OF THE ION-ELECTRON SYSTEM (eV)
  ---------------------------------------------------
  free  energy   TOTEN  =      -148.82686613 eV

  energy  without entropy=     -148.82686613  energy(sigma->0) =     -148.82686613
 
 d Force = 0.2484806E-04[-0.240E-05, 0.521E-04]  d Energy = 0.3106708E-04-0.622E-05
 d Force = 0.4543734E+00[ 0.454E+00, 0.454E+00]  d Ewald  = 0.4543734E+00 0.738E-08


--------------------------------------------------------------------------------------------------------


    --------------------------------------------
      INIT:  cpu time      0.2708: real time      0.2710
  FINALIZE:  cpu time     29.1350: real time     29.1822
    --------------------------------------------
    POTLOK:  cpu time     39.3246: real time     39.3910


--------------------------------------------------------------------------------------------------------




--------------------------------------------------------------------------------------------------------


  
 reached required accuracy - stopping structural energy minimisation
 writing wavefunctions
     LOOP+:  cpu time    451.8666: real time    453.1765
    4ORBIT:  cpu time      0.0000: real time      0.0000

 total amount of memory used by VASP MPI-rank0   897718. kBytes
=======================================================================

   base      :      30000. kBytes
   nonlr-proj:       1440. kBytes
   fftplans  :     167689. kBytes
   grid      :     662171. kBytes
   one-center:         18. kBytes
   wavefun   :      36400. kBytes
 
  
  
 General timing and accounting informations for this job:
 ========================================================
  
                  Total CPU time used (sec):    19210.725
                            User time (sec):    18762.820
                          System time (sec):      447.904
                         Elapsed time (sec):    19251.918
  
                   Maximum memory used (kb):     2573292.
                   Average memory used (kb):          N/A
  
                          Minor page faults:     10222965
                          Major page faults:            0
                 Voluntary context switches:       465525
