 vasp.6.4.2 20Jul23 (build Sep 06 2024 14:39:43) complex                        
  
 executed on             LinuxIFC date 2025.10.03  06:30:32
 running   90 mpi-ranks, on    6 nodes
 distrk:  each k-point on   90 cores,    1 groups
 distr:  one band on NCORE=  15 cores,    6 groups


--------------------------------------------------------------------------------------------------------


 INCAR:
   SYSTEM = 113_red
   ISTART = 1
   ICHARG = 2
   INIWAV = 1
   NELM = 100
   ALGO = fast  	
   ISPIN = 2
   EDIFF = 1E-05
   ISMEAR = 0
   SIGMA = 0.05
   PREC = accurate
   ENCUT = 500
   LREAL = auto  	
   LWAVE = .TRUE.
   LCHARG = .FALSE.
   LAECHG = .FALSE.
   LVHAR = .FALSE.
   LVTOT = .FALSE.
   EDIFFG = -0.02
   IBRION = 2
   NSW = 100
   ISIF = 2
   POTIM = 0.5
   IVDW = 11
   LPLANE = .TRUE.
   NCORE = 15
   LSCALU = .FALSE.
   NSIM = 4
   LSOL = .TRUE.
   EB_K = 35.6880
   TAU = 0
   NELECT = 47

 POTCAR:    PAW_PBE C 08Apr2002                   
 POTCAR:    PAW_PBE Cl 06Sep2000                  
 POTCAR:    PAW_PBE O 08Apr2002                   
 POTCAR:    PAW_PBE H 15Jun2001                   
 -----------------------------------------------------------------------------
|                                                                             |
|           W    W    AA    RRRRR   N    N  II  N    N   GGGG   !!!           |
|           W    W   A  A   R    R  NN   N  II  NN   N  G    G  !!!           |
|           W    W  A    A  R    R  N N  N  II  N N  N  G       !!!           |
|           W WW W  AAAAAA  RRRRR   N  N N  II  N  N N  G  GGG   !            |
|           WW  WW  A    A  R   R   N   NN  II  N   NN  G    G                |
|           W    W  A    A  R    R  N    N  II  N    N   GGGG   !!!           |
|                                                                             |
|     You use a magnetic or noncollinear calculation, but did not specify     |
|     the initial magnetic moment with the MAGMOM tag. Note that a            |
|     default of 1 will be used for all atoms. This ferromagnetic setup       |
|     may break the symmetry of the crystal, in particular it may rule        |
|     out finding an antiferromagnetic solution. Thence, we recommend         |
|     setting the initial magnetic moment manually or verifying carefully     |
|     that this magnetic setup is desired.                                    |
|                                                                             |
 -----------------------------------------------------------------------------

 POTCAR:    PAW_PBE C 08Apr2002                   
   SHA256 =  253f7b50bb8d59471dbedb8285d89021f4a42ed1a2c5d38a03a736e69125dd95 C/POTCAR              
   COPYR  = (c) Copyright 08Apr2002 Georg Kresse                                                    
   COPYR  = This file is part of the software VASP. Any use, copying, and all other rights are regul
   COPYR  = If you do not have a valid VASP license, you may not use, copy or distribute this file. 
   VRHFIN =C: s2p2                                                                                  
   LEXCH  = PE                                                                                      
   EATOM  =   147.1560 eV,   10.8157 Ry                                                             
                                                                                                    
   TITEL  = PAW_PBE C 08Apr2002                                                                     
   LULTRA =        F    use ultrasoft PP ?                                                          
   IUNSCR =        1    unscreen: 0-lin 1-nonlin 2-no                                               
   RPACOR =    1.200    partial core radius                                                         
   POMASS =   12.011; ZVAL   =    4.000    mass and valenz                                          
   RCORE  =    1.500    outmost cutoff radius                                                       
   RWIGS  =    1.630; RWIGS  =    0.863    wigner-seitz radius (au A)                               
   ENMAX  =  400.000; ENMIN  =  300.000 eV                                                          
   ICORE  =        2    local potential                                                             
   LCOR   =        T    correct aug charges                                                         
   LPAW   =        T    paw PP                                                                      
   EAUG   =  644.873                                                                                
   DEXC   =    0.000                                                                                
   RMAX   =    1.529    core radius for proj-oper                                                   
   RAUG   =    1.300    factor for augmentation sphere                                              
   RDEP   =    1.501    radius for radial grids                                                     
   RDEPT  =    1.300    core radius for aug-charge                                                  
                                                                                                    
   Atomic configuration                                                                             
    4 entries                                                                                       
     n  l   j            E        occ.                                                              
     1  0  0.50      -273.3789   2.0000                                                             
     2  0  0.50       -13.7508   2.0000                                                             
     2  1  0.50        -5.2854   2.0000                                                             
     3  2  1.50        -5.4423   0.0000                                                             
   Description                                                                                      
     l       E           TYP  RCUT    TYP  RCUT                                                     
     0    -13.7508458     23  1.200                                                                 
     0     -8.2022199     23  1.200                                                                 
     1     -5.2854383     23  1.500                                                                 
     1     34.0145650     23  1.500                                                                 
     2     -5.4423304      7  1.500                                                                 
  local pseudopotential read in
  partial core-charges read in
  partial kinetic energy density read in
  atomic valenz-charges read in
  non local Contribution for L=           0  read in
    real space projection operators read in
  non local Contribution for L=           0  read in
    real space projection operators read in
  non local Contribution for L=           1  read in
    real space projection operators read in
  non local Contribution for L=           1  read in
    real space projection operators read in
    PAW grid and wavefunctions read in
 
   number of l-projection  operators is LMAX  =           4
   number of lm-projection operators is LMMAX =           8
 
 POTCAR:    PAW_PBE Cl 06Sep2000                  
   SHA256 =  9f1b6e6ed4247ac726a768b330d26d7667cc3c95a39ff49c1d064c2d9dcce931 Cl/POTCAR             
   COPYR  = (c) Copyright 06Sep2000 Georg Kresse                                                    
   COPYR  = This file is part of the software VASP. Any use, copying, and all other rights are regul
   COPYR  = If you do not have a valid VASP license, you may not use, copy or distribute this file. 
   VRHFIN =Cl: s2p5                                                                                 
   LEXCH  = PE                                                                                      
   EATOM  =   409.7259 eV,   30.1140 Ry                                                             
                                                                                                    
   TITEL  = PAW_PBE Cl 06Sep2000                                                                    
   LULTRA =        F    use ultrasoft PP ?                                                          
   IUNSCR =        1    unscreen: 0-lin 1-nonlin 2-no                                               
   RPACOR =    1.500    partial core radius                                                         
   POMASS =   35.453; ZVAL   =    7.000    mass and valenz                                          
   RCORE  =    1.900    outmost cutoff radius                                                       
   RWIGS  =    2.100; RWIGS  =    1.111    wigner-seitz radius (au A)                               
   ENMAX  =  262.472; ENMIN  =  196.854 eV                                                          
   ICORE  =        2    local potential                                                             
   LCOR   =        T    correct aug charges                                                         
   LPAW   =        T    paw PP                                                                      
   EAUG   =  356.192                                                                                
   DEXC   =    0.000                                                                                
   RMAX   =    1.945    core radius for proj-oper                                                   
   RAUG   =    1.300    factor for augmentation sphere                                              
   RDEP   =    2.020    radius for radial grids                                                     
   RDEPT  =    1.678    core radius for aug-charge                                                  
                                                                                                    
   Atomic configuration                                                                             
    6 entries                                                                                       
     n  l   j            E        occ.                                                              
     1  0  0.50     -2751.1850   2.0000                                                             
     2  0  0.50      -252.6861   2.0000                                                             
     2  1  1.50      -191.6157   6.0000                                                             
     3  0  0.50       -20.6916   2.0000                                                             
     3  1  0.50        -8.5949   5.0000                                                             
     3  2  1.50        -8.1635   0.0000                                                             
   Description                                                                                      
     l       E           TYP  RCUT    TYP  RCUT                                                     
     0    -20.6915656     23  1.900                                                                 
     0    -22.0521482     23  1.900                                                                 
     1     -8.5948577     23  1.900                                                                 
     1     -5.3847331     23  1.900                                                                 
     2     -8.1634956     23  1.900                                                                 
  local pseudopotential read in
  partial core-charges read in
  partial kinetic energy density read in
  atomic valenz-charges read in
  non local Contribution for L=           0  read in
    real space projection operators read in
  non local Contribution for L=           0  read in
    real space projection operators read in
  non local Contribution for L=           1  read in
    real space projection operators read in
  non local Contribution for L=           1  read in
    real space projection operators read in
    PAW grid and wavefunctions read in
 
   number of l-projection  operators is LMAX  =           4
   number of lm-projection operators is LMMAX =           8
 
 POTCAR:    PAW_PBE O 08Apr2002                   
   SHA256 =  818f92134a0a090dccd8ba1447fa70422a3b330e708bb4f08108d8ae51209ddf O/POTCAR              
   COPYR  = (c) Copyright 08Apr2002 Georg Kresse                                                    
   COPYR  = This file is part of the software VASP. Any use, copying, and all other rights are regul
   COPYR  = If you do not have a valid VASP license, you may not use, copy or distribute this file. 
   VRHFIN =O: s2p4                                                                                  
   LEXCH  = PE                                                                                      
   EATOM  =   432.3788 eV,   31.7789 Ry                                                             
                                                                                                    
   TITEL  = PAW_PBE O 08Apr2002                                                                     
   LULTRA =        F    use ultrasoft PP ?                                                          
   IUNSCR =        1    unscreen: 0-lin 1-nonlin 2-no                                               
   RPACOR =    1.200    partial core radius                                                         
   POMASS =   16.000; ZVAL   =    6.000    mass and valenz                                          
   RCORE  =    1.520    outmost cutoff radius                                                       
   RWIGS  =    1.550; RWIGS  =    0.820    wigner-seitz radius (au A)                               
   ENMAX  =  400.000; ENMIN  =  300.000 eV                                                          
   ICORE  =        2    local potential                                                             
   LCOR   =        T    correct aug charges                                                         
   LPAW   =        T    paw PP                                                                      
   EAUG   =  605.392                                                                                
   DEXC   =    0.000                                                                                
   RMAX   =    1.553    core radius for proj-oper                                                   
   RAUG   =    1.300    factor for augmentation sphere                                              
   RDEP   =    1.550    radius for radial grids                                                     
   RDEPT  =    1.329    core radius for aug-charge                                                  
                                                                                                    
   Atomic configuration                                                                             
    4 entries                                                                                       
     n  l   j            E        occ.                                                              
     1  0  0.50      -514.6923   2.0000                                                             
     2  0  0.50       -23.9615   2.0000                                                             
     2  1  0.50        -9.0305   4.0000                                                             
     3  2  1.50        -9.5241   0.0000                                                             
   Description                                                                                      
     l       E           TYP  RCUT    TYP  RCUT                                                     
     0    -23.9615318     23  1.200                                                                 
     0     -9.5240782     23  1.200                                                                 
     1     -9.0304911     23  1.520                                                                 
     1      8.1634956     23  1.520                                                                 
     2     -9.5240782      7  1.500                                                                 
  local pseudopotential read in
  partial core-charges read in
  partial kinetic energy density read in
  kinetic energy density of atom read in
  atomic valenz-charges read in
  non local Contribution for L=           0  read in
    real space projection operators read in
  non local Contribution for L=           0  read in
    real space projection operators read in
  non local Contribution for L=           1  read in
    real space projection operators read in
  non local Contribution for L=           1  read in
    real space projection operators read in
    PAW grid and wavefunctions read in
 
   number of l-projection  operators is LMAX  =           4
   number of lm-projection operators is LMMAX =           8
 
 POTCAR:    PAW_PBE H 15Jun2001                   
   SHA256 =  030f79b5d3ab3cf0e668861823c8fb652ff669f3e15e46930bd03bfd63a607b6 H/POTCAR              
   COPYR  = (c) Copyright 15Jun2001 Georg Kresse                                                    
   COPYR  = This file is part of the software VASP. Any use, copying, and all other rights are regul
   COPYR  = If you do not have a valid VASP license, you may not use, copy or distribute this file. 
   VRHFIN =H: ultrasoft test                                                                        
   LEXCH  = PE                                                                                      
   EATOM  =    12.4884 eV,    0.9179 Ry                                                             
                                                                                                    
   TITEL  = PAW_PBE H 15Jun2001                                                                     
   LULTRA =        F    use ultrasoft PP ?                                                          
   IUNSCR =        0    unscreen: 0-lin 1-nonlin 2-no                                               
   RPACOR =    0.000    partial core radius                                                         
   POMASS =    1.000; ZVAL   =    1.000    mass and valenz                                          
   RCORE  =    1.100    outmost cutoff radius                                                       
   RWIGS  =    0.700; RWIGS  =    0.370    wigner-seitz radius (au A)                               
   ENMAX  =  250.000; ENMIN  =  200.000 eV                                                          
   RCLOC  =    0.701    cutoff for local pot                                                        
   LCOR   =        T    correct aug charges                                                         
   LPAW   =        T    paw PP                                                                      
   EAUG   =  400.000                                                                                
   RMAX   =    1.123    core radius for proj-oper                                                   
   RAUG   =    1.200    factor for augmentation sphere                                              
   RDEP   =    1.112    radius for radial grids                                                     
   RDEPT  =    0.926    core radius for aug-charge                                                  
                                                                                                    
   Atomic configuration                                                                             
    2 entries                                                                                       
     n  l   j            E        occ.                                                              
     1  0  0.50        -6.4927   1.0000                                                             
     2  1  0.50        -3.4015   0.0000                                                             
   Description                                                                                      
     l       E           TYP  RCUT    TYP  RCUT                                                     
     0     -6.4927494     23  1.100                                                                 
     0      6.8029130     23  1.100                                                                 
     1     -4.0817478     23  1.100                                                                 
  local pseudopotential read in
  atomic valenz-charges read in
  non local Contribution for L=           0  read in
    real space projection operators read in
  non local Contribution for L=           0  read in
    real space projection operators read in
  non local Contribution for L=           1  read in
    real space projection operators read in
    PAW grid and wavefunctions read in
 
   number of l-projection  operators is LMAX  =           3
   number of lm-projection operators is LMMAX =           5
 
 Optimization of the real space projectors (new method)

 maximal supplied QI-value         = 25.13
 optimisation between [QCUT,QGAM] = [ 11.31, 22.87] = [ 35.82,146.48] Ry 
 Optimized for a Real-space Cutoff    1.03 Angstroem

   l    n(q)    QCUT    max X(q) W(low)/X(q) W(high)/X(q)  e(spline) 
   0      7    11.310   115.676    0.20E-03    0.90E-03    0.20E-06
   0      7    11.310    87.132    0.20E-03    0.89E-03    0.19E-06
   1      6    11.310     4.429    0.16E-03    0.28E-03    0.12E-06
   1      6    11.310     2.733    0.12E-03    0.21E-03    0.99E-07
 Optimization of the real space projectors (new method)

 maximal supplied QI-value         = 19.84
 optimisation between [QCUT,QGAM] = [ 11.31, 22.82] = [ 35.82,145.81] Ry 
 Optimized for a Real-space Cutoff    1.20 Angstroem

   l    n(q)    QCUT    max X(q) W(low)/X(q) W(high)/X(q)  e(spline) 
   0      8    11.310   168.010    0.15E-03    0.18E-03    0.47E-07
   0      8    11.310   164.674    0.14E-03    0.17E-03    0.46E-07
   1      8    11.310    69.222    0.18E-03    0.20E-03    0.94E-07
   1      8    11.310    56.786    0.17E-03    0.19E-03    0.92E-07
 Optimization of the real space projectors (new method)

 maximal supplied QI-value         = 24.76
 optimisation between [QCUT,QGAM] = [ 11.39, 22.77] = [ 36.31,145.25] Ry 
 Optimized for a Real-space Cutoff    1.10 Angstroem

   l    n(q)    QCUT    max X(q) W(low)/X(q) W(high)/X(q)  e(spline) 
   0      7    11.387    20.381    0.22E-03    0.48E-03    0.18E-06
   0      7    11.387    15.268    0.22E-03    0.52E-03    0.19E-06
   1      7    11.387     5.964    0.22E-03    0.73E-03    0.24E-06
   1      7    11.387     5.382    0.19E-03    0.60E-03    0.21E-06
 Optimization of the real space projectors (new method)

 maximal supplied QI-value         = 34.20
 optimisation between [QCUT,QGAM] = [ 11.29, 22.57] = [ 35.68,142.71] Ry 
 Optimized for a Real-space Cutoff    1.20 Angstroem

   l    n(q)    QCUT    max X(q) W(low)/X(q) W(high)/X(q)  e(spline) 
   0      8    11.287    19.460    0.22E-03    0.50E-03    0.19E-06
   0      8    11.287    12.209    0.21E-03    0.48E-03    0.18E-06
   1      8    11.287     4.655    0.21E-03    0.11E-04    0.26E-06
  PAW_PBE C 08Apr2002                   :
 energy of atom  1       EATOM= -147.1560
 kinetic energy error for atom=    0.0076 (will be added to EATOM!!)
  PAW_PBE Cl 06Sep2000                  :
 energy of atom  2       EATOM= -409.7259
 kinetic energy error for atom=    0.0030 (will be added to EATOM!!)
  PAW_PBE O 08Apr2002                   :
 energy of atom  3       EATOM= -432.3788
 kinetic energy error for atom=    0.0224 (will be added to EATOM!!)
  PAW_PBE H 15Jun2001                   :
 energy of atom  4       EATOM=  -12.4884
 kinetic energy error for atom=    0.0020 (will be added to EATOM!!)
 
 
 POSCAR: C Cl O H
  positions in direct lattice
  velocities in cartesian coordinates
 exchange correlation table for  LEXCH =        8
   RHO(1)=    0.500       N(1)  =     2000
   RHO(2)=  100.500       N(2)  =     4000
 


--------------------------------------------------------------------------------------------------------


 ion  position               nearest neighbor table
   1  0.497  0.469  0.500-  14 1.09   2 1.39   6 1.44
   2  0.463  0.476  0.500-  13 1.09   1 1.39   3 1.41
   3  0.452  0.510  0.500-  12 1.09   2 1.41   4 1.41
   4  0.476  0.535  0.500-  11 1.09   5 1.39   3 1.41
   5  0.510  0.528  0.500-  10 1.09   4 1.39   6 1.43
   6  0.522  0.495  0.500-   7 1.42   5 1.43   1 1.44
   7  0.556  0.485  0.500-   9 1.24   6 1.42   8 1.92
   8  0.587  0.521  0.500-   7 1.92
   9  0.569  0.456  0.500-   7 1.24
  10  0.528  0.549  0.500-   5 1.09
  11  0.468  0.562  0.500-   4 1.09
  12  0.425  0.516  0.500-   3 1.09
  13  0.445  0.456  0.500-   2 1.09
  14  0.505  0.443  0.500-   1 1.09
 
  LATTYP: Found a simple cubic cell.
 ALAT       =    40.0000000000
  
  Lattice vectors:
  
 A1 = (  40.0000000000,   0.0000000000,   0.0000000000)
 A2 = (   0.0000000000,  40.0000000000,   0.0000000000)
 A3 = (   0.0000000000,   0.0000000000,  40.0000000000)


Analysis of symmetry for initial positions (statically):
=====================================================================
 Subroutine PRICEL returns:
 Original cell was already a primitive cell.
 

 Routine SETGRP: Setting up the symmetry group for a 
 simple cubic supercell.


 Subroutine GETGRP returns: Found  1 space group operations
 (whereof  1 operations were pure point group operations)
 out of a pool of 48 trial point group operations.


The static configuration has the point symmetry C_1 .


Analysis of symmetry for dynamics (positions and initial velocities):
=====================================================================
 Subroutine PRICEL returns:
 Original cell was already a primitive cell.
 

 Routine SETGRP: Setting up the symmetry group for a 
 simple cubic supercell.


 Subroutine GETGRP returns: Found  1 space group operations
 (whereof  1 operations were pure point group operations)
 out of a pool of 48 trial point group operations.


The dynamic configuration has the point symmetry C_1 .


Analysis of constrained symmetry for selective dynamics:
=====================================================================
 Subroutine PRICEL returns:
 Original cell was already a primitive cell.
 

 Routine SETGRP: Setting up the symmetry group for a 
 simple cubic supercell.


 Subroutine GETGRP returns: Found  1 space group operations
 (whereof  1 operations were pure point group operations)
 out of a pool of 48 trial point group operations.


The constrained configuration has the point symmetry C_1 .


Analysis of structural, dynamic, and magnetic symmetry:
=====================================================================
 Subroutine PRICEL returns:
 Original cell was already a primitive cell.
 

 Routine SETGRP: Setting up the symmetry group for a 
 simple cubic supercell.


 Subroutine GETGRP returns: Found  1 space group operations
 (whereof  1 operations were pure point group operations)
 out of a pool of 48 trial point group operations.


The overall configuration has the point symmetry C_1 .


 Subroutine INISYM returns: Found  1 space group operations
 (whereof  1 operations are pure point group operations),
 and found     1 'primitive' translations


----------------------------------------------------------------------------------------

                                     Primitive cell                                     

  volume of cell :   64000.0000

  direct lattice vectors                    reciprocal lattice vectors
    40.000000000  0.000000000  0.000000000     0.025000000  0.000000000  0.000000000
     0.000000000 40.000000000  0.000000000     0.000000000  0.025000000  0.000000000
     0.000000000  0.000000000 40.000000000     0.000000000  0.000000000  0.025000000

  length of vectors
    40.000000000 40.000000000 40.000000000     0.025000000  0.025000000  0.025000000

  position of ions in fractional coordinates (direct lattice)
     0.496694804  0.468690780  0.499984973
     0.462910183  0.476341171  0.499982588
     0.451687396  0.509743071  0.499996805
     0.475810974  0.535474374  0.500012582
     0.509761463  0.528479602  0.500012310
     0.521684122  0.494671645  0.500001928
     0.555653039  0.484567082  0.500003590
     0.586927028  0.521040482  0.500015017
     0.568644690  0.456349731  0.499997134
     0.527790924  0.548875574  0.500032256
     0.467711434  0.561545398  0.500026540
     0.425076466  0.515547624  0.499993447
     0.444735734  0.455963392  0.499968376
     0.504910743  0.442711075  0.499972451

  ion indices of the primitive-cell ions
   primitive index   ion index
                 1           1
                 2           2
                 3           3
                 4           4
                 5           5
                 6           6
                 7           7
                 8           8
                 9           9
                10          10
                11          11
                12          12
                13          13
                14          14

----------------------------------------------------------------------------------------

 
 
 KPOINTS: K-Point Grid                            

Automatic generation of k-mesh.
 Grid dimensions read from file:
 generate k-points for:    1    1    1

 Generating k-lattice:

  Cartesian coordinates                     Fractional coordinates (reciprocal lattice)
     0.025000000  0.000000000  0.000000000     1.000000000  0.000000000  0.000000000
     0.000000000  0.025000000  0.000000000     0.000000000  1.000000000  0.000000000
     0.000000000  0.000000000  0.025000000     0.000000000  0.000000000  1.000000000

  Length of vectors
     0.025000000  0.025000000  0.025000000

  Shift w.r.t. Gamma in fractional coordinates (k-lattice)
     0.000000000  0.000000000  0.000000000

 
 Subroutine IBZKPT returns following result:
 ===========================================
 
 Found      1 irreducible k-points:
 
 Following reciprocal coordinates:
            Coordinates               Weight
  0.000000  0.000000  0.000000      1.000000
 
 Following cartesian coordinates:
            Coordinates               Weight
  0.000000  0.000000  0.000000      1.000000
 


--------------------------------------------------------------------------------------------------------




 Dimension of arrays:
   k-points           NKPTS =      1   k-points in BZ     NKDIM =      1   number of bands    NBANDS=     42
   number of dos      NEDOS =    301   number of ions     NIONS =     14
   non local maximal  LDIM  =      4   non local SUM 2l+1 LMDIM =      8
   total plane-waves  NPLWV = ******
   max r-space proj   IRMAX =   2915   max aug-charges    IRDMAX=  11613
   dimension x,y,z NGX =   294 NGY =  294 NGZ =  294
   dimension x,y,z NGXF=   588 NGYF=  588 NGZF=  588
   support grid    NGXF=   588 NGYF=  588 NGZF=  588
   ions per type =               7   1   1   5
   NGX,Y,Z   is equivalent  to a cutoff of  12.22, 12.22, 12.22 a.u.
   NGXF,Y,Z  is equivalent  to a cutoff of  24.44, 24.44, 24.44 a.u.

 SYSTEM =  113_red                                 
 POSCAR =  C Cl O H                                

 Startparameter for this run:
   NWRITE =      2    write-flag & timer
   PREC   = accura    normal or accurate (medium, high low for compatibility)
   ISTART =      1    job   : 0-new  1-cont  2-samecut
   ICHARG =      2    charge: 1-file 2-atom 10-const
   ISPIN  =      2    spin polarized calculation?
   LNONCOLLINEAR =      F non collinear calculations
   LSORBIT =      F    spin-orbit coupling
   INIWAV =      1    electr: 0-lowe 1-rand  2-diag
   LASPH  =      F    aspherical Exc in radial PAW
 Electronic Relaxation 1
   ENCUT  =  500.0 eV  36.75 Ry    6.06 a.u.  72.93 72.93 72.93*2*pi/ulx,y,z
   ENINI  =  500.0     initial cutoff
   ENAUG  =  644.9 eV  augmentation charge cutoff
   NELM   =    100;   NELMIN=  2; NELMDL=  0     # of ELM steps 
   EDIFF  = 0.1E-04   stopping-criterion for ELM
   LREAL  =      T    real-space projection
   NLSPLINE    = F    spline interpolate recip. space projectors
   LCOMPAT=      F    compatible to vasp.4.4
   GGA_COMPAT  = T    GGA compatible to vasp.4.4-vasp.4.6
   LMAXPAW     = -100 max onsite density
   LMAXMIX     =    2 max onsite mixed and CHGCAR
   VOSKOWN=      0    Vosko Wilk Nusair interpolation
   ROPT   =   -0.00025  -0.00025  -0.00025  -0.00025
 Ionic relaxation
   EDIFFG = -.2E-01   stopping-criterion for IOM
   NSW    =    100    number of steps for IOM
   NBLOCK =      1;   KBLOCK =    100    inner block; outer block 
   IBRION =      2    ionic relax: 0-MD 1-quasi-New 2-CG
   NFREE  =      1    steps in history (QN), initial steepest desc. (CG)
   ISIF   =      2    stress and relaxation
   IWAVPR =     11    prediction:  0-non 1-charg 2-wave 3-comb
   ISYM   =      2    0-nonsym 1-usesym 2-fastsym
   LCORR  =      T    Harris-Foulkes like correction to forces

   POTIM  = 0.5000    time-step for ionic-motion
   TEIN   =    0.0    initial temperature
   TEBEG  =    0.0;   TEEND  =   0.0 temperature during run
   SMASS  =  -3.00    Nose mass-parameter (am)
   estimated Nose-frequenzy (Omega)   =  0.10E-29 period in steps = 0.13E+47 mass=  -0.366E-25a.u.
   SCALEE = 1.0000    scale energy and forces
   NPACO  =    256;   APACO  = 10.0  distance and # of slots for P.C.
   PSTRESS=    0.0 pullay stress

  Mass of Ions in am
   POMASS =  12.01 35.45 16.00  1.00
  Ionic Valenz
   ZVAL   =   4.00  7.00  6.00  1.00
  Atomic Wigner-Seitz radii
   RWIGS  =  -1.00 -1.00 -1.00 -1.00
  virtual crystal weights 
   VCA    =   1.00  1.00  1.00  1.00
   NELECT =      47.0000    total number of electrons
   NUPDOWN=      -1.0000    fix difference up-down

 DOS related values:
   EMIN   =  10.00;   EMAX   =-10.00  energy-range for DOS
   EFERMI =   0.00;   METHOD = LEGACY      
   ISMEAR =     0;   SIGMA  =   0.05  broadening in eV -4-tet -1-fermi 0-gaus

 Electronic relaxation 2 (details)
   IALGO  =     68    algorithm
   LDIAG  =      T    sub-space diagonalisation (order eigenvalues)
   LSUBROT=      F    optimize rotation matrix (better conditioning)
   TURBO    =      0    0=normal 1=particle mesh
   IRESTART =      0    0=no restart 2=restart with 2 vectors
   NREBOOT  =      0    no. of reboots
   NMIN     =      0    reboot dimension
   EREF     =   0.00    reference energy to select bands
   IMIX   =      4    mixing-type and parameters
     AMIX     =   0.40;   BMIX     =  1.00
     AMIX_MAG =   1.60;   BMIX_MAG =  1.00
     AMIN     =   0.10
     WC   =   100.;   INIMIX=   1;  MIXPRE=   1;  MAXMIX= -45

 Intra band minimization:
   WEIMIN = 0.0010     energy-eigenvalue tresh-hold
   EBREAK =  0.60E-07  absolut break condition
   DEPER  =   0.30     relativ break condition  

   TIME   =   0.40     timestep for ELM

  volume/ion in A,a.u.               =    4571.43     30849.52
  Fermi-wavevector in a.u.,A,eV,Ry     =   0.147700  0.279113  0.296815  0.021815
  Thomas-Fermi vector in A             =   0.819491
 
 Write flags
   LWAVE        =      T    write WAVECAR
   LDOWNSAMPLE  =      F    k-point downsampling of WAVECAR
   LCHARG       =      F    write CHGCAR
   LVTOT        =      F    write LOCPOT, total local potential
   LVHAR        =      F    write LOCPOT, Hartree potential only
   LELF         =      F    write electronic localiz. function (ELF)
   LORBIT       =      0    0 simple, 1 ext, 2 COOP (PROOUT), +10 PAW based schemes


 Dipole corrections
   LMONO  =      F    monopole corrections only (constant potential shift)
   LDIPOL =      F    correct potential (dipole corrections)
   IDIPOL =      0    1-x, 2-y, 3-z, 4-all directions 
   EPSILON=  1.0000000 bulk dielectric constant

 Exchange correlation treatment:
   GGA     =    --    GGA type
   LEXCH   =     8    internal setting for exchange type
   LIBXC   =     F    Libxc                    
   VOSKOWN =     0    Vosko Wilk Nusair interpolation
   LHFCALC =     F    Hartree Fock is set to
   LHFONE  =     F    Hartree Fock one center treatment
   AEXX    =    0.0000 exact exchange contribution

 Linear response parameters
   LEPSILON=     F    determine dielectric tensor
   LRPA    =     F    only Hartree local field effects (RPA)
   LNABLA  =     F    use nabla operator in PAW spheres
   LVEL    =     F    velocity operator in full k-point grid
   CSHIFT  =0.1000    complex shift for real part using Kramers Kronig
   OMEGAMAX=  -1.0    maximum frequency
   DEG_THRESHOLD= 0.2000000E-02 threshold for treating states as degnerate
   RTIME   =   -0.100 relaxation time in fs
  (WPLASMAI=    0.000 imaginary part of plasma frequency in eV, 0.658/RTIME)
   DFIELD  = 0.0000000 0.0000000 0.0000000 field for delta impulse in time
 
  Optional k-point grid parameters
   LKPOINTS_OPT  =     F    use optional k-point grid
   KPOINTS_OPT_MODE=     1    mode for optional k-point grid
 
 Orbital magnetization related:
   ORBITALMAG=     F  switch on orbital magnetization
   LCHIMAG   =     F  perturbation theory with respect to B field
   DQ        =  0.001000  dq finite difference perturbation B field
   LLRAUG    =     F  two centre corrections for induced B field
   LBONE     =     F  B-component reconstruction in AE one-centre
   LVGVCALC  =     T  calculate vGv susceptibility
   LVGVAPPL  =     F  apply vGv susceptibility instead of pGv for G=0

 Random number generation:
   RANDOM_GENERATOR = DEFAULT
   PCG_SEED         = not used
 Solvation model:
   LSOL    =     T         switch on solvation model
   EB_K    = 35.688000     relative permittivity of the bulk solvent
   SIGMA_K =  0.600000     width of the dielectric cavity
   NC_K    =  0.002500     cutoff charge density
   TAU     =  0.000000     cavity surface tension
   LAMBDA_D_K    =**********     Debye length in Angstroms
   LRHOB     =     F     write boundcharge  density
   LRHOION     =     F     write ioniccharge density



--------------------------------------------------------------------------------------------------------


 conjugate gradient relaxation of ions
   using selective dynamics as specified on POSCAR
 charge density and potential will be updated during run
 spin polarized calculation
 RMM-DIIS sequential band-by-band and
  variant of blocked Davidson during initial phase
 perform sub-space diagonalisation
    before iterative eigenvector-optimisation
 modified Broyden-mixing scheme, WC =      100.0
 initial mixing is a Kerker type mixing with AMIX =  0.4000 and BMIX =      1.0000
 Hartree-type preconditioning will be used
 using additional bands           18
 real space projection scheme for non local part
 use partial core corrections
 calculate Harris-corrections to forces 
   (improved forces if not selfconsistent)
 use gradient corrections 
 use of overlap-Matrix (Vanderbilt PP)
 Gauss-broadening in eV      SIGMA  =   0.05


--------------------------------------------------------------------------------------------------------


  energy-cutoff  :      500.00
  volume of cell :    64000.00
      direct lattice vectors                 reciprocal lattice vectors
    40.000000000  0.000000000  0.000000000     0.025000000  0.000000000  0.000000000
     0.000000000 40.000000000  0.000000000     0.000000000  0.025000000  0.000000000
     0.000000000  0.000000000 40.000000000     0.000000000  0.000000000  0.025000000

  length of vectors
    40.000000000 40.000000000 40.000000000     0.025000000  0.025000000  0.025000000


 
 old parameters found on file WAVECAR:
  energy-cutoff  :      500.00
  volume of cell :    64000.00
      direct lattice vectors                 reciprocal lattice vectors
    40.000000000  0.000000000  0.000000000     0.025000000  0.000000000  0.000000000
     0.000000000 40.000000000  0.000000000     0.000000000  0.025000000  0.000000000
     0.000000000  0.000000000 40.000000000     0.000000000  0.000000000  0.025000000

  length of vectors

 
 k-points in units of 2pi/SCALE and weight: K-Point Grid                            
   0.00000000  0.00000000  0.00000000       1.000
 
 k-points in reciprocal lattice and weights: K-Point Grid                            
   0.00000000  0.00000000  0.00000000       1.000
 
 position of ions in fractional coordinates (direct lattice) 
   0.49669480  0.46869078  0.49998497
   0.46291018  0.47634117  0.49998259
   0.45168740  0.50974307  0.49999681
   0.47581097  0.53547437  0.50001258
   0.50976146  0.52847960  0.50001231
   0.52168412  0.49467165  0.50000193
   0.55565304  0.48456708  0.50000359
   0.58692703  0.52104048  0.50001502
   0.56864469  0.45634973  0.49999713
   0.52779092  0.54887557  0.50003226
   0.46771143  0.56154540  0.50002654
   0.42507647  0.51554762  0.49999345
   0.44473573  0.45596339  0.49996838
   0.50491074  0.44271108  0.49997245
 
 position of ions in cartesian coordinates  (Angst):
  19.86779218 18.74763118 19.99939894
  18.51640734 19.05364682 19.99930354
  18.06749584 20.38972284 19.99987222
  19.03243897 21.41897497 20.00050329
  20.39045851 21.13918407 20.00049238
  20.86736487 19.78686580 20.00007713
  22.22612157 19.38268328 20.00014362
  23.47708110 20.84161928 20.00060069
  22.74578761 18.25398925 19.99988537
  21.11163696 21.95502296 20.00129026
  18.70845735 22.46181593 20.00106159
  17.00305864 20.62190494 19.99973788
  17.78942935 18.23853567 19.99873506
  20.19642972 17.70844300 19.99889806
 


--------------------------------------------------------------------------------------------------------


 k-point   1 :   0.0000 0.0000 0.0000  plane waves: 1624525

 maximum and minimum number of plane-waves per node :    108307   108296

 maximum number of plane-waves:   1624525
 maximum index in each direction: 
   IXMAX=   72   IYMAX=   72   IZMAX=   72
   IXMIN=  -72   IYMIN=  -72   IZMIN=  -72


 real space projection operators:
  total allocation   :       1631.70 KBytes
  max/ min on nodes  :        122.62         97.53


 parallel 3D FFT for wavefunctions:
    minimum data exchange during FFTs selected (reduces bandwidth)
 parallel 3D FFT for charge:
    minimum data exchange during FFTs selected (reduces bandwidth)


 total amount of memory used by VASP MPI-rank0   558020. kBytes
=======================================================================

   base      :      30000. kBytes
   nonlr-proj:        837. kBytes
   fftplans  :     131430. kBytes
   grid      :     371484. kBytes
   one-center:          6. kBytes
   wavefun   :      24263. kBytes
 
     INWAV:  cpu time     11.1142: real time     11.1165
 Broyden mixing: mesh for mixing (old mesh)
   NGX =145   NGY =145   NGZ =145
  (NGX  =588   NGY  =588   NGZ  =588)
  gives a total of ****** points

 initial charge density was supplied:
 charge density of overlapping atoms calculated
 number of electron      46.0000000 magnetization      14.0000000
 keeping initial charge density in first step


--------------------------------------------------------------------------------------------------------


 Maximum index for non-local projection operator          231
 Maximum index for augmentation-charges          315 (set IRDMAX)


--------------------------------------------------------------------------------------------------------


 First call to EWALD:  gamma=   0.044
 Maximum number of real-space cells 3x 3x 3
 Maximum number of reciprocal cells 3x 3x 3

    FEWALD:  cpu time      0.0023: real time      0.0023


--------------------------------------- Ionic step        1  -------------------------------------------




--------------------------------------- Iteration      1(   1)  ---------------------------------------


    POTLOK:  cpu time    587.1183: real time    587.1860
    SETDIJ:  cpu time      0.0358: real time      0.0358
     EDDAV:  cpu time     45.6678: real time     45.6716
       DOS:  cpu time      0.1235: real time      0.1236
    CHARGE:  cpu time      3.6345: real time      3.6348
    MIXING:  cpu time      0.0955: real time      0.0957
    --------------------------------------------
      LOOP:  cpu time    636.6756: real time    636.7475

 eigenvalue-minimisations  :   240
 total energy-change (2. order) :-0.9269966E+02  (-0.7365484E+01)
 number of electron      47.0000004 magnetization      13.4991388
 augmentation part        0.6431733 magnetization      12.6055253

 Broyden mixing:
  rms(total) = 0.24320E+01    rms(broyden)= 0.24317E+01
  rms(prec ) = 0.24652E+01
  weight for this iteration     100.00

 Free energy of the ion-electron system (eV)
  ---------------------------------------------------
  alpha Z        PSCENC =         0.15041143
  Ewald energy   TEWEN  =      4239.85178353
  -Hartree energ DENC   =     -5649.63952700
  -exchange      EXHF   =         0.00000000
  -V(xc)+E(xc)   XCENC  =       152.23400328
  PAW double counting   =      1439.32441251    -1445.19452789
  entropy T*S    EENTRO =        -0.00000000
  eigenvalues    EBANDS =      -755.96252526
  atomic energy  EATOM  =      1934.55042093
  Solvation  Ediel_sol  =        -8.01411557
  ---------------------------------------------------
  free energy    TOTEN  =       -92.69966405 eV

  energy without entropy =      -92.69966405  energy(sigma->0) =      -92.69966405


--------------------------------------------------------------------------------------------------------




--------------------------------------- Iteration      1(   2)  ---------------------------------------


    POTLOK:  cpu time    666.0220: real time    666.0858
    SETDIJ:  cpu time      0.0355: real time      0.0355
    EDDIAG:  cpu time      5.1052: real time      5.1055
  RMM-DIIS:  cpu time      7.5077: real time      7.5083
    ORTHCH:  cpu time      1.3380: real time      1.3381
       DOS:  cpu time      0.3550: real time      0.3550
    CHARGE:  cpu time      3.5984: real time      3.5986
    MIXING:  cpu time      0.0986: real time      0.0986
    --------------------------------------------
      LOOP:  cpu time    684.0603: real time    684.1254

 eigenvalue-minimisations  :   168
 total energy-change (2. order) : 0.4062033E+02  (-0.6849101E+01)
 number of electron      47.0000004 magnetization      12.9457561
 augmentation part        0.5527689 magnetization      11.9899083

 Broyden mixing:
  rms(total) = 0.11709E+01    rms(broyden)= 0.11708E+01
  rms(prec ) = 0.11987E+01
  weight for this iteration     100.00

 eigenvalues of (default mixing * dielectric matrix)
  average eigenvalue GAMMA=   0.9574
  0.9574

 Free energy of the ion-electron system (eV)
  ---------------------------------------------------
  alpha Z        PSCENC =         0.15041143
  Ewald energy   TEWEN  =      4239.85178353
  -Hartree energ DENC   =     -5759.37374635
  -exchange      EXHF   =         0.00000000
  -V(xc)+E(xc)   XCENC  =       186.48779159
  PAW double counting   =      2272.18645893    -2279.07452315
  entropy T*S    EENTRO =        -0.00000000
  eigenvalues    EBANDS =      -645.76105478
  atomic energy  EATOM  =      1934.55042093
  Solvation  Ediel_sol  =        -1.09687778
  ---------------------------------------------------
  free energy    TOTEN  =       -52.07933566 eV

  energy without entropy =      -52.07933566  energy(sigma->0) =      -52.07933566


--------------------------------------------------------------------------------------------------------




--------------------------------------- Iteration      1(   3)  ---------------------------------------


    POTLOK:  cpu time    680.9637: real time    681.0376
    SETDIJ:  cpu time      0.0333: real time      0.0333
    EDDIAG:  cpu time      5.1916: real time      5.1920
  RMM-DIIS:  cpu time      7.4221: real time      7.4227
    ORTHCH:  cpu time      1.8283: real time      1.8284
       DOS:  cpu time      0.2002: real time      0.2002
    CHARGE:  cpu time      3.6113: real time      3.6116
    MIXING:  cpu time      0.0927: real time      0.0927
    --------------------------------------------
      LOOP:  cpu time    699.3432: real time    699.4185

 eigenvalue-minimisations  :   170
 total energy-change (2. order) :-0.2099032E+02  (-0.2985352E+01)
 number of electron      47.0000003 magnetization      12.3381201
 augmentation part        0.4825514 magnetization      11.3542065

 Broyden mixing:
  rms(total) = 0.68077E+00    rms(broyden)= 0.68067E+00
  rms(prec ) = 0.69540E+00
  weight for this iteration     100.00

 eigenvalues of (default mixing * dielectric matrix)
  average eigenvalue GAMMA=   1.1259
  0.7764  1.4755

 Free energy of the ion-electron system (eV)
  ---------------------------------------------------
  alpha Z        PSCENC =         0.15041143
  Ewald energy   TEWEN  =      4239.85178353
  -Hartree energ DENC   =     -5847.32770041
  -exchange      EXHF   =         0.00000000
  -V(xc)+E(xc)   XCENC  =       172.33596191
  PAW double counting   =      3017.90016185    -3025.31030481
  entropy T*S    EENTRO =        -0.00000000
  eigenvalues    EBANDS =      -573.45740535
  atomic energy  EATOM  =      1934.55042093
  Solvation  Ediel_sol  =         8.23701952
  ---------------------------------------------------
  free energy    TOTEN  =       -73.06965141 eV

  energy without entropy =      -73.06965141  energy(sigma->0) =      -73.06965141


--------------------------------------------------------------------------------------------------------




--------------------------------------- Iteration      1(   4)  ---------------------------------------


    POTLOK:  cpu time    694.7477: real time    694.8144
    SETDIJ:  cpu time      0.0328: real time      0.0328
    EDDIAG:  cpu time      4.7367: real time      4.7372
  RMM-DIIS:  cpu time      7.5465: real time      7.5472
    ORTHCH:  cpu time      1.0754: real time      1.0755
       DOS:  cpu time      0.2098: real time      0.2099
    CHARGE:  cpu time      3.8308: real time      3.8311
    MIXING:  cpu time      0.1197: real time      0.1197
    --------------------------------------------
      LOOP:  cpu time    712.2996: real time    712.3678

 eigenvalue-minimisations  :   171
 total energy-change (2. order) :-0.5561620E+01  (-0.1157990E+01)
 number of electron      47.0000002 magnetization      11.7835262
 augmentation part        0.4689832 magnetization      10.8110586

 Broyden mixing:
  rms(total) = 0.46578E+00    rms(broyden)= 0.46571E+00
  rms(prec ) = 0.47714E+00
  weight for this iteration     100.00

 eigenvalues of (default mixing * dielectric matrix)
  average eigenvalue GAMMA=   1.1165
  1.5338  1.1285  0.6872

 Free energy of the ion-electron system (eV)
  ---------------------------------------------------
  alpha Z        PSCENC =         0.15041143
  Ewald energy   TEWEN  =      4239.85178353
  -Hartree energ DENC   =     -5903.50303711
  -exchange      EXHF   =         0.00000000
  -V(xc)+E(xc)   XCENC  =       170.22689884
  PAW double counting   =      3585.10711603    -3592.64773694
  entropy T*S    EENTRO =        -0.00000000
  eigenvalues    EBANDS =      -535.46190749
  atomic energy  EATOM  =      1934.55042093
  Solvation  Ediel_sol  =        23.09477904
  ---------------------------------------------------
  free energy    TOTEN  =       -78.63127175 eV

  energy without entropy =      -78.63127175  energy(sigma->0) =      -78.63127175


--------------------------------------------------------------------------------------------------------




--------------------------------------- Iteration      1(   5)  ---------------------------------------


    POTLOK:  cpu time    674.9684: real time    675.0273
    SETDIJ:  cpu time      0.0334: real time      0.0334
    EDDIAG:  cpu time      4.4059: real time      4.4062
  RMM-DIIS:  cpu time      7.4441: real time      7.4446
    ORTHCH:  cpu time      1.1471: real time      1.1472
       DOS:  cpu time      0.2071: real time      0.2071
    CHARGE:  cpu time      3.2277: real time      3.2280
    MIXING:  cpu time      0.1072: real time      0.1072
    --------------------------------------------
      LOOP:  cpu time    691.5410: real time    691.6011

 eigenvalue-minimisations  :   169
 total energy-change (2. order) :-0.3491631E+01  (-0.2920078E+00)
 number of electron      47.0000002 magnetization      10.9606813
 augmentation part        0.4685371 magnetization      10.0010996

 Broyden mixing:
  rms(total) = 0.29107E+00    rms(broyden)= 0.29105E+00
  rms(prec ) = 0.30138E+00
  weight for this iteration     100.00

 eigenvalues of (default mixing * dielectric matrix)
  average eigenvalue GAMMA=   1.3175
  1.8881  1.8881  0.8369  0.6568

 Free energy of the ion-electron system (eV)
  ---------------------------------------------------
  alpha Z        PSCENC =         0.15041143
  Ewald energy   TEWEN  =      4239.85178353
  -Hartree energ DENC   =     -5922.76285348
  -exchange      EXHF   =         0.00000000
  -V(xc)+E(xc)   XCENC  =       168.08445577
  PAW double counting   =      3797.14882280    -3804.56667495
  entropy T*S    EENTRO =        -0.00000000
  eigenvalues    EBANDS =      -534.54796676
  atomic energy  EATOM  =      1934.55042093
  Solvation  Ediel_sol  =        39.96869752
  ---------------------------------------------------
  free energy    TOTEN  =       -82.12290323 eV

  energy without entropy =      -82.12290323  energy(sigma->0) =      -82.12290323


--------------------------------------------------------------------------------------------------------




--------------------------------------- Iteration      1(   6)  ---------------------------------------


    POTLOK:  cpu time    670.1454: real time    670.2121
    SETDIJ:  cpu time      0.0329: real time      0.0329
    EDDIAG:  cpu time      4.8127: real time      4.8131
  RMM-DIIS:  cpu time      7.8615: real time      7.8624
    ORTHCH:  cpu time      1.3702: real time      1.3703
       DOS:  cpu time      0.2117: real time      0.2117
    CHARGE:  cpu time      3.3726: real time      3.3728
    MIXING:  cpu time      0.1225: real time      0.1225
    --------------------------------------------
      LOOP:  cpu time    687.9296: real time    687.9979

 eigenvalue-minimisations  :   169
 total energy-change (2. order) :-0.4447740E+01  (-0.2983695E+00)
 number of electron      47.0000002 magnetization      10.5008159
 augmentation part        0.4657149 magnetization       9.5542018

 Broyden mixing:
  rms(total) = 0.16484E+00    rms(broyden)= 0.16481E+00
  rms(prec ) = 0.17395E+00
  weight for this iteration     100.00

 eigenvalues of (default mixing * dielectric matrix)
  average eigenvalue GAMMA=   1.3090
  2.0828  1.9639  1.0430  0.8128  0.6427

 Free energy of the ion-electron system (eV)
  ---------------------------------------------------
  alpha Z        PSCENC =         0.15041143
  Ewald energy   TEWEN  =      4239.85178353
  -Hartree energ DENC   =     -5948.28864332
  -exchange      EXHF   =         0.00000000
  -V(xc)+E(xc)   XCENC  =       165.31184433
  PAW double counting   =      4006.34381828    -4013.61603872
  entropy T*S    EENTRO =        -0.00000000
  eigenvalues    EBANDS =      -534.86523327
  atomic energy  EATOM  =      1934.55042093
  Solvation  Ediel_sol  =        63.99099341
  ---------------------------------------------------
  free energy    TOTEN  =       -86.57064341 eV

  energy without entropy =      -86.57064341  energy(sigma->0) =      -86.57064341


--------------------------------------------------------------------------------------------------------




--------------------------------------- Iteration      1(   7)  ---------------------------------------


    POTLOK:  cpu time    649.5392: real time    649.6017
    SETDIJ:  cpu time      0.0309: real time      0.0309
    EDDIAG:  cpu time      4.7466: real time      4.7470
  RMM-DIIS:  cpu time      7.5834: real time      7.5840
    ORTHCH:  cpu time      1.3444: real time      1.3445
       DOS:  cpu time      0.1755: real time      0.1755
    CHARGE:  cpu time      3.6016: real time      3.6019
    MIXING:  cpu time      0.1192: real time      0.1192
    --------------------------------------------
      LOOP:  cpu time    667.1409: real time    667.2048

 eigenvalue-minimisations  :   170
 total energy-change (2. order) :-0.6548023E+00  (-0.9233887E-01)
 number of electron      47.0000002 magnetization       9.7943212
 augmentation part        0.4554163 magnetization       8.8579209

 Broyden mixing:
  rms(total) = 0.14470E+00    rms(broyden)= 0.14469E+00
  rms(prec ) = 0.15216E+00
  weight for this iteration     100.00

 eigenvalues of (default mixing * dielectric matrix)
  average eigenvalue GAMMA=   1.2457
  2.1721  2.1721  0.8997  0.8997  0.6652  0.6652

 Free energy of the ion-electron system (eV)
  ---------------------------------------------------
  alpha Z        PSCENC =         0.15041143
  Ewald energy   TEWEN  =      4239.85178353
  -Hartree energ DENC   =     -5960.72350421
  -exchange      EXHF   =         0.00000000
  -V(xc)+E(xc)   XCENC  =       165.10684229
  PAW double counting   =      4024.32677922    -4031.58384160
  entropy T*S    EENTRO =        -0.00000000
  eigenvalues    EBANDS =      -534.03621444
  atomic energy  EATOM  =      1934.55042093
  Solvation  Ediel_sol  =        75.13187716
  ---------------------------------------------------
  free energy    TOTEN  =       -87.22544570 eV

  energy without entropy =      -87.22544570  energy(sigma->0) =      -87.22544570


--------------------------------------------------------------------------------------------------------




--------------------------------------- Iteration      1(   8)  ---------------------------------------


    POTLOK:  cpu time    666.6776: real time    666.7350
    SETDIJ:  cpu time      0.0444: real time      0.0444
    EDDIAG:  cpu time      5.1269: real time      5.1273
  RMM-DIIS:  cpu time      7.5675: real time      7.5681
    ORTHCH:  cpu time      1.7711: real time      1.7712
       DOS:  cpu time      0.1972: real time      0.1972
    CHARGE:  cpu time      3.6200: real time      3.6203
    MIXING:  cpu time      0.1270: real time      0.1270
    --------------------------------------------
      LOOP:  cpu time    685.1316: real time    685.1904

 eigenvalue-minimisations  :   169
 total energy-change (2. order) :-0.7783410E+00  (-0.4017910E-01)
 number of electron      47.0000002 magnetization       8.7134033
 augmentation part        0.4538674 magnetization       7.7828841

 Broyden mixing:
  rms(total) = 0.10806E+00    rms(broyden)= 0.10806E+00
  rms(prec ) = 0.11390E+00
  weight for this iteration     100.00

 eigenvalues of (default mixing * dielectric matrix)
  average eigenvalue GAMMA=   1.4196
  2.6510  2.6510  1.2554  1.2554  0.8435  0.6157  0.6652

 Free energy of the ion-electron system (eV)
  ---------------------------------------------------
  alpha Z        PSCENC =         0.15041143
  Ewald energy   TEWEN  =      4239.85178353
  -Hartree energ DENC   =     -5970.70538821
  -exchange      EXHF   =         0.00000000
  -V(xc)+E(xc)   XCENC  =       164.43603797
  PAW double counting   =      3967.00316683    -3974.18805458
  entropy T*S    EENTRO =        -0.00000000
  eigenvalues    EBANDS =      -539.41248791
  atomic energy  EATOM  =      1934.55042093
  Solvation  Ediel_sol  =        90.31032327
  ---------------------------------------------------
  free energy    TOTEN  =       -88.00378674 eV

  energy without entropy =      -88.00378674  energy(sigma->0) =      -88.00378674


--------------------------------------------------------------------------------------------------------




--------------------------------------- Iteration      1(   9)  ---------------------------------------


    POTLOK:  cpu time    657.6242: real time    657.6861
    SETDIJ:  cpu time      0.0332: real time      0.0331
    EDDIAG:  cpu time      5.1103: real time      5.1106
  RMM-DIIS:  cpu time      7.9942: real time      7.9948
    ORTHCH:  cpu time      1.1588: real time      1.1589
       DOS:  cpu time      0.2616: real time      0.2617
    CHARGE:  cpu time      4.1937: real time      4.1940
    MIXING:  cpu time      0.1326: real time      0.1326
    --------------------------------------------
      LOOP:  cpu time    676.5084: real time    676.5718

 eigenvalue-minimisations  :   173
 total energy-change (2. order) :-0.1105535E+01  (-0.6184765E-01)
 number of electron      47.0000002 magnetization       8.2309688
 augmentation part        0.4490793 magnetization       7.3067616

 Broyden mixing:
  rms(total) = 0.79755E-01    rms(broyden)= 0.79748E-01
  rms(prec ) = 0.82900E-01
  weight for this iteration     100.00

 eigenvalues of (default mixing * dielectric matrix)
  average eigenvalue GAMMA=   1.4453
  3.3034  2.4527  1.7680  0.9565  0.9565  0.6139  0.7558  0.7558

 Free energy of the ion-electron system (eV)
  ---------------------------------------------------
  alpha Z        PSCENC =         0.15041143
  Ewald energy   TEWEN  =      4239.85178353
  -Hartree energ DENC   =     -5989.66099668
  -exchange      EXHF   =         0.00000000
  -V(xc)+E(xc)   XCENC  =       163.61447364
  PAW double counting   =      3933.46210107    -3940.59963017
  entropy T*S    EENTRO =        -0.00000000
  eigenvalues    EBANDS =      -541.34038087
  atomic energy  EATOM  =      1934.55042093
  Solvation  Ediel_sol  =       110.86249553
  ---------------------------------------------------
  free energy    TOTEN  =       -89.10932160 eV

  energy without entropy =      -89.10932160  energy(sigma->0) =      -89.10932160


--------------------------------------------------------------------------------------------------------




--------------------------------------- Iteration      1(  10)  ---------------------------------------


    POTLOK:  cpu time    624.2178: real time    624.2776
    SETDIJ:  cpu time      0.0334: real time      0.0334
    EDDIAG:  cpu time      5.6308: real time      5.6313
  RMM-DIIS:  cpu time      7.7336: real time      7.7343
    ORTHCH:  cpu time      1.5691: real time      1.5693
       DOS:  cpu time      0.0335: real time      0.0335
    CHARGE:  cpu time      3.4355: real time      3.4358
    MIXING:  cpu time      0.1287: real time      0.1287
    --------------------------------------------
      LOOP:  cpu time    642.7824: real time    642.8438

 eigenvalue-minimisations  :   171
 total energy-change (2. order) :-0.7863236E+00  (-0.1431531E-01)
 number of electron      47.0000002 magnetization       7.2304194
 augmentation part        0.4465040 magnetization       6.3093240

 Broyden mixing:
  rms(total) = 0.58347E-01    rms(broyden)= 0.58344E-01
  rms(prec ) = 0.60874E-01
  weight for this iteration     100.00

 eigenvalues of (default mixing * dielectric matrix)
  average eigenvalue GAMMA=   1.5397
  4.5492  2.3416  1.7448  1.3858  0.8067  0.8067  0.6091  0.8288  0.7850

 Free energy of the ion-electron system (eV)
  ---------------------------------------------------
  alpha Z        PSCENC =         0.15041143
  Ewald energy   TEWEN  =      4239.85178353
  -Hartree energ DENC   =     -5997.36010644
  -exchange      EXHF   =         0.00000000
  -V(xc)+E(xc)   XCENC  =       162.97289303
  PAW double counting   =      3927.80374510    -3934.96232874
  entropy T*S    EENTRO =        -0.00000000
  eigenvalues    EBANDS =      -539.98288641
  atomic energy  EATOM  =      1934.55042093
  Solvation  Ediel_sol  =       117.08042237
  ---------------------------------------------------
  free energy    TOTEN  =       -89.89564521 eV

  energy without entropy =      -89.89564521  energy(sigma->0) =      -89.89564521


--------------------------------------------------------------------------------------------------------




--------------------------------------- Iteration      1(  11)  ---------------------------------------


    POTLOK:  cpu time    627.4054: real time    627.4646
    SETDIJ:  cpu time      0.0340: real time      0.0340
    EDDIAG:  cpu time      4.8464: real time      4.8468
  RMM-DIIS:  cpu time      7.5806: real time      7.5814
    ORTHCH:  cpu time      0.8563: real time      0.8564
       DOS:  cpu time      0.3910: real time      0.3910
    CHARGE:  cpu time      4.0129: real time      4.0133
    MIXING:  cpu time      0.1447: real time      0.1447
    --------------------------------------------
      LOOP:  cpu time    645.2712: real time    645.3322

 eigenvalue-minimisations  :   172
 total energy-change (2. order) :-0.1855229E+01  (-0.1936155E-01)
 number of electron      47.0000002 magnetization       6.7027488
 augmentation part        0.4454421 magnetization       5.7843585

 Broyden mixing:
  rms(total) = 0.39284E-01    rms(broyden)= 0.39280E-01
  rms(prec ) = 0.40375E-01
  weight for this iteration     100.00

 eigenvalues of (default mixing * dielectric matrix)
  average eigenvalue GAMMA=   1.7104
  6.4792  2.1296  2.1296  1.5809  0.9941  0.9941  0.7300  0.7300  0.7238  0.6128

 Free energy of the ion-electron system (eV)
  ---------------------------------------------------
  alpha Z        PSCENC =         0.15041143
  Ewald energy   TEWEN  =      4239.85178353
  -Hartree energ DENC   =     -6008.70734968
  -exchange      EXHF   =         0.00000000
  -V(xc)+E(xc)   XCENC  =       161.20059963
  PAW double counting   =      3897.54569533    -3904.70085148
  entropy T*S    EENTRO =        -0.00000000
  eigenvalues    EBANDS =      -540.80045755
  atomic energy  EATOM  =      1934.55042093
  Solvation  Ediel_sol  =       129.15887322
  ---------------------------------------------------
  free energy    TOTEN  =       -91.75087466 eV

  energy without entropy =      -91.75087466  energy(sigma->0) =      -91.75087466


--------------------------------------------------------------------------------------------------------




--------------------------------------- Iteration      1(  12)  ---------------------------------------


    POTLOK:  cpu time    636.7133: real time    636.7700
    SETDIJ:  cpu time      0.0346: real time      0.0346
    EDDIAG:  cpu time      4.6077: real time      4.6081
  RMM-DIIS:  cpu time      7.9693: real time      7.9699
    ORTHCH:  cpu time      1.1245: real time      1.1246
       DOS:  cpu time      0.1748: real time      0.1748
    CHARGE:  cpu time      3.9870: real time      3.9873
    MIXING:  cpu time      0.1562: real time      0.1562
    --------------------------------------------
      LOOP:  cpu time    654.7674: real time    654.8255

 eigenvalue-minimisations  :   176
 total energy-change (2. order) :-0.6026103E+00  (-0.6133822E-02)
 number of electron      47.0000002 magnetization       6.1214251
 augmentation part        0.4446422 magnetization       5.2043517

 Broyden mixing:
  rms(total) = 0.31390E-01    rms(broyden)= 0.31388E-01
  rms(prec ) = 0.32090E-01
  weight for this iteration     100.00

 eigenvalues of (default mixing * dielectric matrix)
  average eigenvalue GAMMA=   1.7006
  7.0315  2.1162  2.1162  1.4593  1.1810  1.1810  0.7786  0.7786  0.7836  0.6700
  0.6105

 Free energy of the ion-electron system (eV)
  ---------------------------------------------------
  alpha Z        PSCENC =         0.15041143
  Ewald energy   TEWEN  =      4239.85178353
  -Hartree energ DENC   =     -6013.39493046
  -exchange      EXHF   =         0.00000000
  -V(xc)+E(xc)   XCENC  =       160.62751560
  PAW double counting   =      3893.69484411    -3900.84637478
  entropy T*S    EENTRO =        -0.00000000
  eigenvalues    EBANDS =      -541.00617567
  atomic energy  EATOM  =      1934.55042093
  Solvation  Ediel_sol  =       134.01902034
  ---------------------------------------------------
  free energy    TOTEN  =       -92.35348498 eV

  energy without entropy =      -92.35348498  energy(sigma->0) =      -92.35348498


--------------------------------------------------------------------------------------------------------




--------------------------------------- Iteration      1(  13)  ---------------------------------------


    POTLOK:  cpu time    605.5769: real time    605.6355
    SETDIJ:  cpu time      0.0335: real time      0.0335
    EDDIAG:  cpu time      5.0732: real time      5.0736
  RMM-DIIS:  cpu time      7.9886: real time      7.9893
    ORTHCH:  cpu time      1.0880: real time      1.0881
       DOS:  cpu time      0.1430: real time      0.1430
    CHARGE:  cpu time      3.0091: real time      3.0094
    MIXING:  cpu time      0.1585: real time      0.1585
    --------------------------------------------
      LOOP:  cpu time    623.0708: real time    623.1309

 eigenvalue-minimisations  :   175
 total energy-change (2. order) :-0.3777840E+00  (-0.1573498E-02)
 number of electron      47.0000002 magnetization       5.3698748
 augmentation part        0.4439761 magnetization       4.4533521

 Broyden mixing:
  rms(total) = 0.24941E-01    rms(broyden)= 0.24940E-01
  rms(prec ) = 0.25311E-01
  weight for this iteration     100.00

 eigenvalues of (default mixing * dielectric matrix)
  average eigenvalue GAMMA=   1.8045
  7.7975  2.5339  2.5339  1.6110  1.6110  1.0327  1.0327  0.7458  0.7458  0.7637
  0.6230  0.6230

 Free energy of the ion-electron system (eV)
  ---------------------------------------------------
  alpha Z        PSCENC =         0.15041143
  Ewald energy   TEWEN  =      4239.85178353
  -Hartree energ DENC   =     -6015.18624764
  -exchange      EXHF   =         0.00000000
  -V(xc)+E(xc)   XCENC  =       160.23516393
  PAW double counting   =      3897.96844977    -3905.11694034
  entropy T*S    EENTRO =        -0.00000000
  eigenvalues    EBANDS =      -541.67067608
  atomic energy  EATOM  =      1934.55042093
  Solvation  Ediel_sol  =       136.48636552
  ---------------------------------------------------
  free energy    TOTEN  =       -92.73126895 eV

  energy without entropy =      -92.73126895  energy(sigma->0) =      -92.73126895


--------------------------------------------------------------------------------------------------------




--------------------------------------- Iteration      1(  14)  ---------------------------------------


    POTLOK:  cpu time    615.9442: real time    615.9982
    SETDIJ:  cpu time      0.0360: real time      0.0360
    EDDIAG:  cpu time      4.6323: real time      4.6326
  RMM-DIIS:  cpu time      7.3359: real time      7.3365
    ORTHCH:  cpu time      1.1279: real time      1.1280
       DOS:  cpu time      0.1354: real time      0.1354
    CHARGE:  cpu time      3.7937: real time      3.7940
    MIXING:  cpu time      0.1675: real time      0.1675
    --------------------------------------------
      LOOP:  cpu time    633.1730: real time    633.2283

 eigenvalue-minimisations  :   170
 total energy-change (2. order) :-0.3421653E+00  (-0.1012880E-02)
 number of electron      47.0000002 magnetization       4.8666441
 augmentation part        0.4434901 magnetization       3.9502284

 Broyden mixing:
  rms(total) = 0.19303E-01    rms(broyden)= 0.19303E-01
  rms(prec ) = 0.19454E-01
  weight for this iteration     100.00

 eigenvalues of (default mixing * dielectric matrix)
  average eigenvalue GAMMA=   1.9027
  8.7944  3.7803  2.2673  1.8625  1.2714  1.2714  1.1621  0.7862  0.7862  0.7975
  0.7111  0.6224  0.6224

 Free energy of the ion-electron system (eV)
  ---------------------------------------------------
  alpha Z        PSCENC =         0.15041143
  Ewald energy   TEWEN  =      4239.85178353
  -Hartree energ DENC   =     -6016.63803756
  -exchange      EXHF   =         0.00000000
  -V(xc)+E(xc)   XCENC  =       159.87732906
  PAW double counting   =      3904.30321206    -3911.45158446
  entropy T*S    EENTRO =        -0.00000000
  eigenvalues    EBANDS =      -542.41362824
  atomic energy  EATOM  =      1934.55042093
  Solvation  Ediel_sol  =       138.69665905
  ---------------------------------------------------
  free energy    TOTEN  =       -93.07343421 eV

  energy without entropy =      -93.07343421  energy(sigma->0) =      -93.07343421


--------------------------------------------------------------------------------------------------------




--------------------------------------- Iteration      1(  15)  ---------------------------------------


    POTLOK:  cpu time    603.2543: real time    603.3119
    SETDIJ:  cpu time      0.0354: real time      0.0354
    EDDIAG:  cpu time      5.0627: real time      5.0631
  RMM-DIIS:  cpu time      8.3037: real time      8.3045
    ORTHCH:  cpu time      1.1275: real time      1.1276
       DOS:  cpu time      0.0172: real time      0.0172
    CHARGE:  cpu time      4.0301: real time      4.0304
    MIXING:  cpu time      0.1688: real time      0.1688
    --------------------------------------------
      LOOP:  cpu time    621.9997: real time    622.0589

 eigenvalue-minimisations  :   175
 total energy-change (2. order) :-0.1600332E+00  (-0.6075228E-03)
 number of electron      47.0000002 magnetization       4.2777389
 augmentation part        0.4433353 magnetization       3.3614846

 Broyden mixing:
  rms(total) = 0.16546E-01    rms(broyden)= 0.16546E-01
  rms(prec ) = 0.16667E-01
  weight for this iteration     100.00

 eigenvalues of (default mixing * dielectric matrix)
  average eigenvalue GAMMA=   1.9404
  9.3656  4.2293  2.1460  2.1460  1.4742  1.4742  1.0099  1.0099  0.7618  0.7618
  0.8211  0.7167  0.6244  0.6244

 Free energy of the ion-electron system (eV)
  ---------------------------------------------------
  alpha Z        PSCENC =         0.15041143
  Ewald energy   TEWEN  =      4239.85178353
  -Hartree energ DENC   =     -6017.02617928
  -exchange      EXHF   =         0.00000000
  -V(xc)+E(xc)   XCENC  =       159.70324114
  PAW double counting   =      3904.80739381    -3911.95627684
  entropy T*S    EENTRO =        -0.00000000
  eigenvalues    EBANDS =      -542.87425975
  atomic energy  EATOM  =      1934.55042093
  Solvation  Ediel_sol  =       139.55999766
  ---------------------------------------------------
  free energy    TOTEN  =       -93.23346739 eV

  energy without entropy =      -93.23346739  energy(sigma->0) =      -93.23346739


--------------------------------------------------------------------------------------------------------




--------------------------------------- Iteration      1(  16)  ---------------------------------------


    POTLOK:  cpu time    607.1574: real time    607.2133
    SETDIJ:  cpu time      0.0355: real time      0.0355
    EDDIAG:  cpu time      5.0364: real time      5.0368
  RMM-DIIS:  cpu time      7.4828: real time      7.4835
    ORTHCH:  cpu time      1.3455: real time      1.3456
       DOS:  cpu time      0.0117: real time      0.0117
    CHARGE:  cpu time      3.8154: real time      3.8157
    MIXING:  cpu time      0.1852: real time      0.1853
    --------------------------------------------
      LOOP:  cpu time    625.0700: real time    625.1274

 eigenvalue-minimisations  :   171
 total energy-change (2. order) :-0.9376245E-01  (-0.2222645E-03)
 number of electron      47.0000002 magnetization       3.6170011
 augmentation part        0.4435857 magnetization       2.7008766

 Broyden mixing:
  rms(total) = 0.13660E-01    rms(broyden)= 0.13660E-01
  rms(prec ) = 0.13758E-01
  weight for this iteration     100.00

 eigenvalues of (default mixing * dielectric matrix)
  average eigenvalue GAMMA=   2.0255
 10.0019  5.0456  2.4202  2.4202  1.7742  1.2295  1.2295  1.1513  0.8195  0.8195
  0.7622  0.7622  0.7064  0.6202  0.6202

 Free energy of the ion-electron system (eV)
  ---------------------------------------------------
  alpha Z        PSCENC =         0.15041143
  Ewald energy   TEWEN  =      4239.85178353
  -Hartree energ DENC   =     -6016.52944595
  -exchange      EXHF   =         0.00000000
  -V(xc)+E(xc)   XCENC  =       159.57828252
  PAW double counting   =      3902.36612723    -3909.51173932
  entropy T*S    EENTRO =        -0.00000000
  eigenvalues    EBANDS =      -543.54775027
  atomic energy  EATOM  =      1934.55042093
  Solvation  Ediel_sol  =       139.76468008
  ---------------------------------------------------
  free energy    TOTEN  =       -93.32722984 eV

  energy without entropy =      -93.32722984  energy(sigma->0) =      -93.32722984


--------------------------------------------------------------------------------------------------------




--------------------------------------- Iteration      1(  17)  ---------------------------------------


    POTLOK:  cpu time    583.7024: real time    583.7598
    SETDIJ:  cpu time      0.0351: real time      0.0351
    EDDIAG:  cpu time      5.0521: real time      5.0526
  RMM-DIIS:  cpu time      7.3454: real time      7.3460
    ORTHCH:  cpu time      1.0931: real time      1.0932
       DOS:  cpu time      0.3747: real time      0.3747
    CHARGE:  cpu time      3.2005: real time      3.2008
    MIXING:  cpu time      0.1904: real time      0.1905
    --------------------------------------------
      LOOP:  cpu time    600.9938: real time    601.0527

 eigenvalue-minimisations  :   171
 total energy-change (2. order) :-0.3622217E-01  (-0.1425822E-03)
 number of electron      47.0000002 magnetization       2.9983008
 augmentation part        0.4436297 magnetization       2.0821695

 Broyden mixing:
  rms(total) = 0.11474E-01    rms(broyden)= 0.11474E-01
  rms(prec ) = 0.11579E-01
  weight for this iteration     100.00

 eigenvalues of (default mixing * dielectric matrix)
  average eigenvalue GAMMA=   2.0657
 10.4546  5.7437  2.6103  2.2126  2.2126  1.3824  1.3824  0.9968  0.9968  0.7764
  0.7764  0.7936  0.7936  0.6822  0.6182  0.6182

 Free energy of the ion-electron system (eV)
  ---------------------------------------------------
  alpha Z        PSCENC =         0.15041143
  Ewald energy   TEWEN  =      4239.85178353
  -Hartree energ DENC   =     -6015.92200734
  -exchange      EXHF   =         0.00000000
  -V(xc)+E(xc)   XCENC  =       159.52592251
  PAW double counting   =      3902.90480074    -3910.04965829
  entropy T*S    EENTRO =        -0.00000000
  eigenvalues    EBANDS =      -543.89538400
  atomic energy  EATOM  =      1934.55042093
  Solvation  Ediel_sol  =       139.52025850
  ---------------------------------------------------
  free energy    TOTEN  =       -93.36345200 eV

  energy without entropy =      -93.36345200  energy(sigma->0) =      -93.36345200


--------------------------------------------------------------------------------------------------------




--------------------------------------- Iteration      1(  18)  ---------------------------------------


    POTLOK:  cpu time    566.3035: real time    566.3548
    SETDIJ:  cpu time      0.0347: real time      0.0347
    EDDIAG:  cpu time      4.7374: real time      4.7378
  RMM-DIIS:  cpu time      7.7760: real time      7.7766
    ORTHCH:  cpu time      1.3133: real time      1.3134
       DOS:  cpu time      0.2023: real time      0.2023
    CHARGE:  cpu time      3.4181: real time      3.4184
    MIXING:  cpu time      0.1921: real time      0.1921
    --------------------------------------------
      LOOP:  cpu time    583.9773: real time    584.0300

 eigenvalue-minimisations  :   170
 total energy-change (2. order) :-0.1037928E-01  (-0.6913916E-04)
 number of electron      47.0000002 magnetization       2.2146293
 augmentation part        0.4434533 magnetization       1.2984875

 Broyden mixing:
  rms(total) = 0.90753E-02    rms(broyden)= 0.90753E-02
  rms(prec ) = 0.91743E-02
  weight for this iteration     100.00

 eigenvalues of (default mixing * dielectric matrix)
  average eigenvalue GAMMA=   2.1711
 11.3242  6.6483  3.3966  2.2569  2.2569  1.5577  1.2816  1.2816  0.9769  0.9769
  0.7536  0.7536  0.8008  0.7513  0.6530  0.6198  0.6198

[...]
 d Force = 0.9052890E+00[ 0.905E+00, 0.906E+00]  d Ewald  = 0.9052892E+00-0.121E-06


--------------------------------------------------------------------------------------------------------


    POTLOK:  cpu time    517.0683: real time    517.1119


--------------------------------------------------------------------------------------------------------


 Conjugate gradient step on ions:
 trial-energy change:   -0.000051  1 .order   -0.000060   -0.000148    0.000028
  (g-gl).g = 0.532E-03      g.g   = 0.521E-03  gl.gl    = 0.369E-03
 g(Force)  = 0.521E-03   g(Stress)= 0.000E+00 ortho     =-0.110E-04
 gamma     =   1.44087
 trial     =   0.29225
 opt step  =   0.24607  (harmonic =   0.24607) maximal distance =0.00058949
 next E    =   -93.610659   (d E  =  -0.00006)


--------------------------------------------------------------------------------------------------------


    WAVPRE:  cpu time      1.4386: real time      1.4632
    FEWALD:  cpu time      0.0022: real time      0.0022

 real space projection operators:
  total allocation   :       1631.38 KBytes
  max/ min on nodes  :        122.80         97.41

    ORTHCH:  cpu time      2.2567: real time      2.2569
     LOOP+:  cpu time   2266.3742: real time   2266.6138


--------------------------------------- Ionic step        5  -------------------------------------------




--------------------------------------- Iteration      5(   1)  ---------------------------------------


    POTLOK:  cpu time    526.1835: real time    526.2265
    SETDIJ:  cpu time      0.0359: real time      0.0359
     EDDAV:  cpu time     43.5415: real time     43.5452
       DOS:  cpu time      0.1501: real time      0.1502
    CHARGE:  cpu time      3.4132: real time      3.4135
    MIXING:  cpu time      0.0919: real time      0.0919
    --------------------------------------------
      LOOP:  cpu time    573.4161: real time    573.4631

 eigenvalue-minimisations  :   228
 total energy-change (2. order) :-0.4056680E-05  (-0.2371623E-04)
 number of electron      47.0000002 magnetization       1.0000007
 augmentation part        0.4423810 magnetization       0.0840279

 Broyden mixing:
  rms(total) = 0.86382E-03    rms(broyden)= 0.86350E-03
  rms(prec ) = 0.87288E-03
  weight for this iteration     100.00

 Free energy of the ion-electron system (eV)
  ---------------------------------------------------
  alpha Z        PSCENC =         0.15041143
  Ewald energy   TEWEN  =      4236.96856853
  -Hartree energ DENC   =     -6011.77020085
  -exchange      EXHF   =         0.00000000
  -V(xc)+E(xc)   XCENC  =       159.39700602
  PAW double counting   =      3894.22225248    -3901.36508568
  entropy T*S    EENTRO =        -0.00000000
  eigenvalues    EBANDS =      -543.52477187
  atomic energy  EATOM  =      1934.55042093
  Solvation  Ediel_sol  =       137.91483067
  ---------------------------------------------------
  free energy    TOTEN  =       -93.45656834 eV

  energy without entropy =      -93.45656834  energy(sigma->0) =      -93.45656834


--------------------------------------------------------------------------------------------------------




--------------------------------------- Iteration      5(   2)  ---------------------------------------


    POTLOK:  cpu time    527.2874: real time    527.3402
    SETDIJ:  cpu time      0.0348: real time      0.0348
    EDDIAG:  cpu time      4.8744: real time      4.8747
  RMM-DIIS:  cpu time      5.6260: real time      5.6264
    ORTHCH:  cpu time      1.2467: real time      1.2468
       DOS:  cpu time      0.1640: real time      0.1640
    --------------------------------------------
      LOOP:  cpu time    539.2332: real time    539.2869

 eigenvalue-minimisations  :   120
 total energy-change (2. order) :-0.6902651E-06  (-0.5769380E-06)
 number of electron      47.0000002 magnetization       1.0000007
 augmentation part        0.4423810 magnetization       0.0840279

 Free energy of the ion-electron system (eV)
  ---------------------------------------------------
  alpha Z        PSCENC =         0.15041143
  Ewald energy   TEWEN  =      4236.96856853
  -Hartree energ DENC   =     -6011.77634327
  -exchange      EXHF   =         0.00000000
  -V(xc)+E(xc)   XCENC  =       159.39717532
  PAW double counting   =      3894.21806447    -3901.36101869
  entropy T*S    EENTRO =        -0.00000000
  eigenvalues    EBANDS =      -543.51668362
  atomic energy  EATOM  =      1934.55042093
  Solvation  Ediel_sol  =       137.91283587
  ---------------------------------------------------
  free energy    TOTEN  =       -93.45656903 eV

  energy without entropy =      -93.45656903  energy(sigma->0) =      -93.45656903


--------------------------------------------------------------------------------------------------------




 average (electrostatic) potential at core
  the test charge radii are     0.6991  0.9406  0.7215  0.5201
  (the norm of the test charge is              1.0000)
       1 -58.1797       2 -58.2749       3 -58.0225       4 -58.2557       5 -58.1797
       6 -58.4889       7 -60.2154       8 -99.7399       9 -79.4394      10 -41.5483
      11 -41.6312      12 -41.5566      13 -41.6481      14 -41.5375
 
 
 
 E-fermi :  -2.2597     XC(G=0):  -0.0498     alpha+bet : -0.0173

 Fermi energy:        -2.2596566077

 spin component 1

 k-point     1 :       0.0000    0.0000    0.0000
  band No.  band energies     occupation 
      1     -25.2410      1.00000
      2     -20.6797      1.00000
      3     -19.6722      1.00000
      4     -18.1848      1.00000
      5     -17.9122      1.00000
      6     -15.3242      1.00000
      7     -14.2437      1.00000
      8     -13.0587      1.00000
      9     -11.8139      1.00000
     10     -10.8446      1.00000
     11     -10.5209      1.00000
     12      -9.9449      1.00000
     13      -9.6784      1.00000
     14      -9.6651      1.00000
     15      -9.4512      1.00000
     16      -8.3753      1.00000
     17      -8.1312      1.00000
     18      -7.5114      1.00000
     19      -6.8937      1.00000
     20      -6.8741      1.00000
     21      -6.0316      1.00000
     22      -5.9755      1.00000
     23      -5.9139      1.00000
     24      -2.5371      1.00000
     25      -0.8413      0.00000
     26      -0.6230      0.00000
     27      -0.2352      0.00000
     28      -0.0241      0.00000
     29      -0.0183      0.00000
     30       0.0080      0.00000
     31       0.0581      0.00000
     32       0.0883      0.00000
     33       0.0902      0.00000
     34       0.1033      0.00000
     35       0.1081      0.00000
     36       0.1236      0.00000
     37       0.1253      0.00000
     38       0.1797      0.00000
     39       0.1801      0.00000
     40       0.1817      0.00000
     41       0.1843      0.00000
     42       0.1853      0.00000
 Fermi energy:        -2.2596566077

 spin component 2

 k-point     1 :       0.0000    0.0000    0.0000
  band No.  band energies     occupation 
      1     -25.0297      1.00000
      2     -20.5848      1.00000
      3     -19.6251      1.00000
      4     -18.0594      1.00000
      5     -17.8337      1.00000
      6     -15.0921      1.00000
      7     -14.2049      1.00000
      8     -12.9685      1.00000
      9     -11.7077      1.00000
     10     -10.7788      1.00000
     11     -10.4224      1.00000
     12      -9.9049      1.00000
     13      -9.6438      1.00000
     14      -9.3749      1.00000
     15      -9.1991      1.00000
     16      -8.0884      1.00000
     17      -8.0783      1.00000
     18      -7.4898      1.00000
     19      -6.8587      1.00000
     20      -6.7727      1.00000
     21      -5.8408      1.00000
     22      -5.8353      1.00000
     23      -5.6436      1.00000
     24      -1.8639      0.00000
     25      -0.6976      0.00000
     26      -0.5225      0.00000
     27      -0.1631      0.00000
     28       0.0047      0.00000
     29       0.0194      0.00000
     30       0.0560      0.00000
     31       0.0776      0.00000
     32       0.0909      0.00000
     33       0.0925      0.00000
     34       0.1101      0.00000
     35       0.1164      0.00000
     36       0.1246      0.00000
     37       0.1478      0.00000
     38       0.1823      0.00000
     39       0.1847      0.00000
     40       0.1857      0.00000
     41       0.1865      0.00000
     42       0.1867      0.00000


--------------------------------------------------------------------------------------------------------


 soft charge-density along one line, spin component           1
         0         1         2         3         4         5         6         7         8         9
 total charge-density along one line
 
 soft charge-density along one line, spin component           2
         0         1         2         3         4         5         6         7         8         9
 total charge-density along one line
 
 pseudopotential strength for first ion, spin component:           1
 10.232  13.608   0.001   0.000   0.000  -0.004  -0.000   0.000
 13.608  18.096   0.001   0.000   0.000  -0.005  -0.000   0.000
  0.001   0.001  -4.347   0.000   0.000   8.501  -0.000   0.000
  0.000   0.000   0.000  -4.352   0.000  -0.000   8.513  -0.000
  0.000   0.000   0.000   0.000  -4.349   0.000  -0.000   8.504
 -0.004  -0.005   8.501  -0.000   0.000 -18.761   0.000  -0.001
 -0.000  -0.000  -0.000   8.513  -0.000   0.000 -18.789   0.000
  0.000   0.000   0.000  -0.000   8.504  -0.001   0.000 -18.765
 pseudopotential strength for first ion, spin component:           2
 10.204  13.570   0.001   0.000   0.000  -0.004  -0.000  -0.000
 13.570  18.044   0.001   0.000   0.000  -0.005  -0.000  -0.000
  0.001   0.001  -4.347  -0.000  -0.000   8.507   0.000   0.000
  0.000   0.000  -0.000  -4.326  -0.000   0.000   8.472   0.000
  0.000   0.000  -0.000  -0.000  -4.349   0.000   0.000   8.510
 -0.004  -0.005   8.507   0.000   0.000 -18.785  -0.000  -0.001
 -0.000  -0.000   0.000   8.472   0.000  -0.000 -18.730  -0.000
 -0.000  -0.000   0.000   0.000   8.510  -0.001  -0.000 -18.788
 total augmentation occupancy for first ion, spin component:           1
  7.720  -3.342   0.151  -0.000  -0.161   0.034   0.000  -0.027
 -3.342   1.490  -0.106   0.000   0.091  -0.021  -0.000   0.015
  0.151  -0.106   1.705   0.000  -0.021   0.148   0.000   0.001
 -0.000   0.000   0.000   1.184   0.000   0.000   0.064   0.000
 -0.161   0.091  -0.021   0.000   1.820   0.001   0.000   0.168
  0.034  -0.021   0.148   0.000   0.001   0.014   0.000   0.000
  0.000  -0.000   0.000   0.064   0.000   0.000   0.004   0.000
 -0.027   0.015   0.001   0.000   0.168   0.000   0.000   0.017
 total augmentation occupancy for first ion, spin component:           2
  0.008   0.002  -0.004  -0.000  -0.004  -0.001  -0.000  -0.001
  0.002  -0.002   0.002   0.000   0.003   0.000   0.000   0.000
 -0.004   0.002   0.004  -0.000  -0.001   0.000  -0.000  -0.000
 -0.000   0.000  -0.000   0.162  -0.000  -0.000   0.000   0.000
 -0.004   0.003  -0.001  -0.000   0.003  -0.000   0.000   0.000
 -0.001   0.000   0.000  -0.000  -0.000   0.000   0.000  -0.000
 -0.000   0.000  -0.000   0.000   0.000   0.000  -0.000   0.000
 -0.001   0.000  -0.000   0.000   0.000  -0.000   0.000  -0.000


------------------------ aborting loop because EDIFF is reached ----------------------------------------


    CHARGE:  cpu time      3.8296: real time      3.8299
    FORLOC:  cpu time      0.2742: real time      0.2742
    FORNL :  cpu time      3.3866: real time      3.3870
    STRESS:  cpu time     10.3303: real time     10.3312
    FORCOR:  cpu time     19.7591: real time     19.7607
    FORHAR:  cpu time      3.6868: real time      3.6871
    MIXING:  cpu time      0.0920: real time      0.0921
    OFIELD:  cpu time      0.0000: real time      0.0000

 ---------------------------------------------------------------------------------------------

         DFTD3 V3.0 Rev 1        
 Edisp (eV)   -0.15408

 E6    (eV) :    -0.0594
 E8    (eV) :    -0.0946
 % E8        : 61.42
    FORVDW:  cpu time      0.0067: real time      0.0071

  FORCE on cell =-STRESS in cart. coord.  units (eV):
  Direction    XX          YY          ZZ          XY          YZ          ZX
  --------------------------------------------------------------------------------------
  Alpha Z     0.15041     0.15041     0.15041
  Ewald    2675.47527  1924.33302  -362.83987  -155.94381     0.87507     0.39762
  Hartree  2980.00550  2240.11452   791.66490  -112.79286     0.53240     0.27850
  E(xc)    -176.07381  -175.91330  -180.32636    -0.17215     0.00184     0.00062
  Local   -6196.93500 -4688.02594 -1048.10954   265.35828    -1.36738    -0.66472
  n-local    20.30574    18.69125    22.37402     0.08028    -0.00064     0.00013
  augment   -14.52098   -15.56518   -14.93298     1.02110    -0.00023     0.00025
  Kinetic   712.57561   697.59334   790.31642     2.95643    -0.03823    -0.01146
  Fock        0.00000     0.00000     0.00000     0.00000     0.00000     0.00000
  vdW         0.03224     0.04952    -0.00000     0.00510     0.00002    -0.00000
  -------------------------------------------------------------------------------------
  Total       1.01498     1.42765    -1.70300     0.51237     0.00284     0.00094
  in kB       0.02541     0.03574    -0.04263     0.01283     0.00007     0.00002
  external pressure =        0.01 kB  Pullay stress =        0.00 kB


 VOLUME and BASIS-vectors are now :
 -----------------------------------------------------------------------------
  energy-cutoff  :      500.00
  volume of cell :    64000.00
      direct lattice vectors                 reciprocal lattice vectors
    40.000000000  0.000000000  0.000000000     0.025000000  0.000000000  0.000000000
     0.000000000 40.000000000  0.000000000     0.000000000  0.025000000  0.000000000
     0.000000000  0.000000000 40.000000000     0.000000000  0.000000000  0.025000000

  length of vectors
    40.000000000 40.000000000 40.000000000     0.025000000  0.025000000  0.025000000


 FORCES acting on ions
    electron-ion (+dipol)            ewald-force                    non-local-force                 convergence-correction
 -----------------------------------------------------------------------------------------------
   0.281E+02 0.174E+03 0.759E-01   -.266E+02 -.174E+03 -.758E-01   -.126E-01 0.119E+01 0.107E-02   0.294E-02 -.549E-02 0.157E-04
   0.166E+03 0.131E+03 0.823E-01   -.164E+03 -.130E+03 -.819E-01   0.483E+00 0.233E+00 0.219E-03   -.129E-02 -.450E-02 0.187E-04
   0.209E+03 -.446E+02 0.120E-01   -.208E+03 0.445E+02 -.118E-01   0.965E+00 -.239E+00 -.510E-03   -.367E-02 0.326E-03 -.645E-05
   0.980E+02 -.185E+03 -.634E-01   -.971E+02 0.184E+03 0.635E-01   0.341E+00 -.405E+00 -.185E-02   0.110E-03 0.333E-02 -.256E-04
   -.452E+02 -.164E+03 -.419E-01   0.468E+02 0.165E+03 0.410E-01   -.622E+00 -.128E+01 0.179E-03   0.250E-02 0.140E-02 -.288E-04
   -.174E+02 -.186E+01 -.644E-02   0.170E+02 0.216E+01 0.612E-02   0.151E+01 -.684E+00 -.227E-03   0.396E-02 -.265E-02 -.186E-04
   -.710E+02 -.587E+02 -.502E-01   0.664E+02 0.603E+02 0.508E-01   0.544E+01 -.227E+01 -.149E-02   0.513E-02 -.500E-02 0.896E-05
   -.271E+03 -.189E+03 -.707E-01   0.274E+03 0.190E+03 0.706E-01   -.301E+01 -.280E+01 -.518E-03   0.189E-03 -.520E-02 -.402E-05
   -.212E+03 0.324E+03 0.605E-01   0.235E+03 -.370E+03 -.719E-01   -.207E+02 0.449E+02 0.116E-01   0.262E-03 -.498E-03 0.656E-05
   -.354E+02 -.759E+02 -.595E-01   0.394E+02 0.797E+02 0.628E-01   -.385E+01 -.432E+01 -.432E-02   0.565E-03 0.285E-03 -.382E-05
   0.313E+02 -.811E+02 -.429E-01   -.327E+02 0.860E+02 0.455E-01   0.169E+01 -.544E+01 -.328E-02   -.151E-03 0.750E-03 -.167E-05
   0.843E+02 -.182E+02 0.643E-02   -.893E+02 0.193E+02 -.678E-02   0.557E+01 -.121E+01 0.473E-03   -.845E-03 0.104E-03 0.143E-05
   0.617E+02 0.613E+02 0.428E-01   -.650E+02 -.652E+02 -.454E-01   0.379E+01 0.425E+01 0.300E-02   -.309E-03 -.850E-03 0.366E-05
   -.281E+01 0.862E+02 0.447E-01   0.504E+01 -.913E+02 -.468E-01   -.176E+01 0.548E+01 0.268E-02   0.781E-03 -.893E-03 0.355E-05
 -----------------------------------------------------------------------------------------------
   0.102E+02 -.374E+02 -.919E-02   0.266E-13 -.114E-12 0.416E-16   -.102E+02 0.374E+02 0.699E-02   0.102E-01 -.189E-01 -.303E-04
 
 
 POSITION                                       TOTAL-FORCE (eV/Angst)
 -----------------------------------------------------------------------------------
     19.86807     18.74675     19.99943        -0.011768     -0.006429      0.000735
     18.51587     19.05292     19.99933        -0.008738     -0.005132      0.000165
     18.06667     20.39007     19.99985        -0.003984      0.002825     -0.000258
     19.03247     21.41990     20.00046        -0.009162      0.005424     -0.000983
     20.39115     21.13969     20.00046        -0.009394      0.005296      0.000224
     20.86794     19.78668     20.00005         0.003740     -0.005443     -0.000327
     22.22688     19.38163     20.00017        -0.011001     -0.000812     -0.000563
     23.47823     20.84344     20.00061         0.012372      0.010221      0.000397
     22.74620     18.25280     19.99989         0.010653     -0.004392      0.000336
     21.11268     21.95615     20.00126         0.001092     -0.003082     -0.000442
     18.70796     22.46389     20.00106         0.006670     -0.007057     -0.000208
     17.00084     20.62238     19.99977         0.011309     -0.001132      0.000256
     17.78792     18.23692     19.99875         0.006394      0.007116      0.000292
     20.19710     17.70681     19.99892         0.001817      0.002597      0.000376
 -----------------------------------------------------------------------------------
    total drift:                               -0.001336     -0.000044     -0.002228


--------------------------------------------------------------------------------------------------------



  FREE ENERGIE OF THE ION-ELECTRON SYSTEM (eV)
  ---------------------------------------------------
  free  energy   TOTEN  =       -93.61065053 eV

  energy  without entropy=      -93.61065053  energy(sigma->0) =      -93.61065053
 
 d Force = 0.2447373E-05[ 0.520E-06, 0.438E-05]  d Energy = 0.2238359E-05 0.209E-06
 d Force =-0.1429487E+00[-0.143E+00,-0.143E+00]  d Ewald  =-0.1429487E+00 0.524E-09


--------------------------------------------------------------------------------------------------------


    POTLOK:  cpu time    529.9939: real time    530.0367


--------------------------------------------------------------------------------------------------------




--------------------------------------------------------------------------------------------------------


  
 reached required accuracy - stopping structural energy minimisation
 writing wavefunctions
     LOOP+:  cpu time   1738.6264: real time   1739.9139
    4ORBIT:  cpu time      0.0000: real time      0.0000

 total amount of memory used by VASP MPI-rank0   558020. kBytes
=======================================================================

   base      :      30000. kBytes
   nonlr-proj:        837. kBytes
   fftplans  :     131430. kBytes
   grid      :     371484. kBytes
   one-center:          6. kBytes
   wavefun   :      24263. kBytes
 
  
  
 General timing and accounting informations for this job:
 ========================================================
  
                  Total CPU time used (sec):    29292.506
                            User time (sec):    10975.219
                          System time (sec):    18317.286
                         Elapsed time (sec):    29297.482
  
                   Maximum memory used (kb):     1607784.
                   Average memory used (kb):          N/A
  
                          Minor page faults:     62554654
                          Major page faults:            0
                 Voluntary context switches:         5194
