
                                 *****************
                                 * O   R   C   A *
                                 *****************

                                            #,                                       
                                            ###                                      
                                            ####                                     
                                            #####                                    
                                            ######                                   
                                           ########,                                 
                                     ,,################,,,,,                         
                               ,,#################################,,                 
                          ,,##########################################,,             
                       ,#########################################, ''#####,          
                    ,#############################################,,   '####,        
                  ,##################################################,,,,####,       
                ,###########''''           ''''###############################       
              ,#####''   ,,,,##########,,,,          '''####'''          '####       
            ,##' ,,,,###########################,,,                        '##       
           ' ,,###''''                  '''############,,,                           
         ,,##''                                '''############,,,,        ,,,,,,###''
      ,#''                                            '''#######################'''  
     '                                                          ''''####''''         
             ,#######,   #######,   ,#######,      ##                                
            ,#'     '#,  ##    ##  ,#'     '#,    #''#        ,####,   ,####,        
            ##       ##  ##   ,#'  ##            #'  '#       #'       #'  '#        
            ##       ##  #######   ##           ,######,      #####,   #    #        
            '#,     ,#'  ##    ##  '#,     ,#' ,#      #,     #,   #   #,  ,#        
             '#######'   ##     ##  '#######'  #'      '#     '####' # '####'        



                #########################################################
                #                        -***-                          #
                #          Department of theory and spectroscopy        #
                #                                                       #
                #                      Frank Neese                      #
                #                                                       #
                #     Directorship, Architecture, Infrastructure        #
                #                    SHARK, DRIVERS                     #
                #        Core code/Algorithms in most modules           #
                #                                                       #
                #        Max Planck Institute fuer Kohlenforschung      #
                #                Kaiser Wilhelm Platz 1                 #
                #                 D-45470 Muelheim/Ruhr                 #
                #                      Germany                          #
                #                                                       #
                #                  All rights reserved                  #
                #                        -***-                          #
                #########################################################


                         Program Version 6.0.0  -   RELEASE  -


 With contributions from (in alphabetic order):
   Daniel Aravena         : Magnetic Suceptibility
   Michael Atanasov       : Ab Initio Ligand Field Theory (pilot matlab implementation)
   Alexander A. Auer      : GIAO ZORA, VPT2 properties, NMR spectrum
   Ute Becker             : All parallelization in ORCA, NUMFREQ, NUMCALC
   Giovanni Bistoni       : ED, misc. LED, open-shell LED, HFLD
   Martin Brehm           : Molecular dynamics
   Dmytro Bykov           : pre 5.0 version of the SCF Hessian
   Marcos Casanova-Páez   : Triplet and SCS-CIS(D). UHF-(DLPNO)-IP/EA/STEOM-CCSD. UHF-CVS-IP/STEOM-CCSD
   Vijay G. Chilkuri      : MRCI spin determinant printing, contributions to CSF-ICE
   Pauline Colinet        : FMM embedding
   Dipayan Datta          : RHF DLPNO-CCSD density
   Achintya Kumar Dutta   : EOM-CC, STEOM-CC
   Nicolas Foglia         : Exact transition moments, OPA infrastructure, MCD improvements
   Dmitry Ganyushin       : Spin-Orbit,Spin-Spin,Magnetic field MRCI
   Miquel Garcia          : C-PCM and meta-GGA Hessian, CCSD/C-PCM, Gaussian charge scheme
   Tiago L. C. Gouveia    : GS-ROHF, GS-ROCIS
   Yang Guo               : DLPNO-NEVPT2, F12-NEVPT2, CIM, IAO-localization
   Andreas Hansen         : Spin unrestricted coupled pair/coupled cluster methods
   Ingolf Harden          : AUTO-CI MPn and infrastructure 
   Benjamin Helmich-Paris : MC-RPA, TRAH-(SCF,CASSCF), AVAS, COSX integrals, SCF dyn. polar.
   Lee Huntington         : MR-EOM, pCC
   Robert Izsak           : Overlap fitted RIJCOSX, COSX-SCS-MP3, EOM
   Riya Kayal             : Wick's Theorem for AUTO-CI, AUTO-CI UHF-CCSDT
   Emily Kempfer          : AUTO-CI, RHF CISDT and CCSDT
   Christian Kollmar      : KDIIS, OOCD, Brueckner-CCSD(T), CCSD density, CASPT2, CASPT2-K, improved NEVPT2
   Axel Koslowski         : Symmetry handling
   Simone Kossmann        : Meta GGA functionals, TD-DFT gradient, OOMP2, (MP2 Hessian; deprecated post 5.0)
   Lucas Lang             : DCDCAS
   Marvin Lechner         : AUTO-CI (C++ implementation), FIC-MRCC
   Spencer Leger          : CASSCF response
   Dagmar Lenk            : GEPOL surface, SMD, ORCA-2-JSON
   Dimitrios Liakos       : Extrapolation schemes; Compound Job, initial MDCI parallelization
   Dimitrios Manganas     : Further ROCIS development; embedding schemes. LFT, Crystal Embedding
   Dimitrios Pantazis     : SARC Basis sets
   Anastasios Papadopoulos: AUTO-CI, single reference methods and gradients
   Taras Petrenko         : pre 6.0 DFT Hessian and TD-DFT gradient, (ASA, deprecated), ECA, 1-Electron XAS/XES, NRVS
   Peter Pinski           : DLPNO-MP2, DLPNO-MP2 Gradient
   Christoph Reimann      : Effective Core Potentials
   Marius Retegan         : Local ZFS, SOC
   Christoph Riplinger    : Optimizer, TS searches, QM/MM, DLPNO-CCSD(T), (RO)-DLPNO pert. Triples
   Michael Roemelt        : Original ROCIS implementation
   Masaaki Saitow         : Open-shell DLPNO-CCSD energy and density
   Barbara Sandhoefer     : DKH picture change effects
   Kantharuban Sivalingam : CASSCF convergence/infrastructure, NEVPT2 and variants, FIC-MRCI
   Bernardo de Souza      : ESD, SOC TD-DFT
   Georgi Stoychev        : AutoAux, RI-MP2 NMR, DLPNO-MP2 response, X2C
   Van Anh Tran           : RI-MP2 g-tensors
   Willem Van den Heuvel  : Paramagnetic NMR
   Zikuan Wang            : NOTCH, Electric field optimization 
   Frank Wennmohs         : Technical directorship and infrastructure
   Hang Xu                : AUTO-CI-Response properties 


 We gratefully acknowledge several colleagues who have allowed us to
 interface, adapt or use parts of their codes:
   Stefan Grimme, W. Hujo, H. Kruse, P. Pracht,  : VdW corrections, initial TS optimization,
                  C. Bannwarth, S. Ehlert,         DFT functionals, gCP, sTDA/sTD-DF
                  L. Wittmann, M. Mueller
   Ed Valeev, F. Pavosevic, A. Kumar             : LibInt (2-el integral package), F12 methods
   Garnet Chan, S. Sharma, J. Yang, R. Olivares  : DMRG
   Ulf Ekstrom                                   : XCFun DFT Library
   Mihaly Kallay                                 : mrcc  (arbitrary order and MRCC methods)
   Frank Weinhold                                : gennbo (NPA and NBO analysis)
   Simon Mueller                                 : openCOSMO-RS
   Christopher J. Cramer and Donald G. Truhlar   : smd solvation model
   Lars Goerigk                                  : TD-DFT with DH, B97 family of functionals
   V. Asgeirsson, H. Jonsson                     : NEB implementation
   FAccTs GmbH                                   : IRC, NEB, NEB-TS, DLPNO-Multilevel, CI-OPT
                                                   MM, QMMM, 2- and 3-layer-ONIOM, Crystal-QMMM,
                                                   LR-CPCM, SF, NACMEs, symmetry and pop. for TD-DFT,
                                                   nearIR, NL-DFT gradient (VV10), updates on ESD,
                                                   ML-optimized integration grids, MBIS, APM,
                                                   GOAT, DOCKER, SOLVATOR, interface openCOSMO-RS
   S Lehtola, MJT Oliveira, MAL Marques          : LibXC Library
   Liviu Ungur et al                             : ANISO software


 Your calculation uses the libint2 library for the computation of 2-el integrals
 For citations please refer to: http://libint.valeyev.net

 Your ORCA version has been built with support for libXC version: 6.2.2
 For citations please refer to: https://libxc.gitlab.io

 This ORCA versions uses:
   CBLAS   interface :  Fast vector & matrix operations
   LAPACKE interface :  Fast linear algebra routines
   SCALAPACK package :  Parallel linear algebra routines
   Shared memory     :  Shared parallel matrices
   BLAS/LAPACK       :  OpenBLAS 0.3.27  USE64BITINT DYNAMIC_ARCH NO_AFFINITY SkylakeX SINGLE_THREADED
        Core in use  :  SkylakeX
   Copyright (c) 2011-2014, The OpenBLAS Project


NOTE: MaxCore=3000 MB was set to SCF,MP2,MDCI,CIPSI,MRCI and CIS
      => If you want to overwrite this, your respective input block should be placed after the MaxCore statement
Your calculation utilizes the atom-pairwise dispersion correction
with the Becke-Johnson damping scheme (D3BJ)


Your calculation utilizes the SMD solvation module
Please cite in your paper:
A.V. Marenich, C.J. Cramer, D.G. Truhlar J. Phys. Chem. B, 113, (2009), 6378 

Warning: RI is on but no J-basis has been assigned. Assigning Def2/J (nothing to worry about!)
================================================================================

----- Orbital basis set information -----
Your calculation utilizes the basis: aug-cc-pVTZ 
    H, B-Ne : Obtained from the ccRepo (grant-hill.group.shef.ac.uk/ccrepo) Feb. 2017
              R. A. Kendall, T. H. Dunning, Jr., R. J. Harrison, J. Chem. Phys. 96, 6796 (1992)
         He : Obtained from the ccRepo (grant-hill.group.shef.ac.uk/ccrepo) Feb. 2017
              D. E. Woon, T. H. Dunning, Jr., J. Chem. Phys. 100, 2975 (1994)
  Li-Be, Na : Obtained from the ccRepo (grant-hill.group.shef.ac.uk/ccrepo) Feb. 2017
              B. P. Prascher, D. E. Woon, K. A. Peterson, T. H. Dunning, Jr., A. K. Wilson, Theor. Chem. Acc. 128, 69 (2011)
         Mg : Obtained from the Peterson Research Group Website (tyr0.chem.wsu.edu/~kipeters) Feb. 2017
              B. P. Prascher, D. E. Woon, K. A. Peterson, T. H. Dunning, Jr., A. K. Wilson, Theor. Chem. Acc. 128, 69 (2011)
      Al-Ar : Obtained from the ccRepo (grant-hill.group.shef.ac.uk/ccrepo) Feb. 2017
              D. E. Woon, T. H. Dunning, Jr., J. Chem. Phys. 98, 1358 (1993)
      Sc-Zn : Obtained from the ccRepo (grant-hill.group.shef.ac.uk/ccrepo) Feb. 2017
              N. B. Balabanov, K. A. Peterson, J. Chem. Phys. 123, 064107 (2005)
              N. B. Balabanov, K. A. Peterson, J. Chem. Phys. 125, 074110 (2006)
      Ga-Kr : Obtained from the ccRepo (grant-hill.group.shef.ac.uk/ccrepo) Feb. 2017
              A. K. Wilson, D. E. Woon, K. A. Peterson, T. H. Dunning, Jr., J. Chem. Phys. 110, 7667 (1999)
     Ag, Au : Obtained from the Peterson Research Group Website (tyr0.chem.wsu.edu/~kipeters) Feb. 2017
              K. A. Peterson, C. Puzzarini, Theor. Chem. Acc. 114, 283 (2005)

----- AuxJ basis set information -----
Your calculation utilizes the auxiliary basis: def2/J
   F. Weigend, Phys. Chem. Chem. Phys. 8, 1057 (2006).

================================================================================
                                        WARNINGS
                       Please study these warnings very carefully!
================================================================================

Using LibXC functional ID 497 : Re-regularized SCAN exchange by Furness et al
[ 1]  J. W. Furness, A. D. Kaplan, J. Ning, J. P. Perdew, and J. Sun.,  J. Phys. Chem. Lett. 11, 8208-8215 (2020)
[ 2]  J. W. Furness, A. D. Kaplan, J. Ning, J. P. Perdew, and J. Sun.,  J. Phys. Chem. Lett. 11, 9248-9248 (2020)
Using LibXC functional ID 498 : Re-regularized SCAN correlation by Furness et al
[ 1]  J. W. Furness, A. D. Kaplan, J. Ning, J. P. Perdew, and J. Sun.,  J. Phys. Chem. Lett. 11, 8208-8215 (2020)
[ 2]  J. W. Furness, A. D. Kaplan, J. Ning, J. P. Perdew, and J. Sun.,  J. Phys. Chem. Lett. 11, 9248-9248 (2020)
Using LibXC functional ID 497 : Re-regularized SCAN exchange by Furness et al
[ 1]  J. W. Furness, A. D. Kaplan, J. Ning, J. P. Perdew, and J. Sun.,  J. Phys. Chem. Lett. 11, 8208-8215 (2020)
[ 2]  J. W. Furness, A. D. Kaplan, J. Ning, J. P. Perdew, and J. Sun.,  J. Phys. Chem. Lett. 11, 9248-9248 (2020)
Using LibXC functional ID 498 : Re-regularized SCAN correlation by Furness et al
[ 1]  J. W. Furness, A. D. Kaplan, J. Ning, J. P. Perdew, and J. Sun.,  J. Phys. Chem. Lett. 11, 8208-8215 (2020)
[ 2]  J. W. Furness, A. D. Kaplan, J. Ning, J. P. Perdew, and J. Sun.,  J. Phys. Chem. Lett. 11, 9248-9248 (2020)


WARNING: Found flag for RIJCOSX approximation but no HF exchange needed!
  ===> : RIJCOSX  will be disabled and Split-RI-J is turned on

================================================================================
                                       INPUT FILE
================================================================================
NAME = cs_rporg_019_red_solv_03.inp
|  1> !r2SCAN aug-cc-pVTZ d3 TightSCF SlowConv RIJCOSX defgrid2
|  2>  
|  3> %pal
|  4> nprocs 4
|  5> end
|  6>  
|  7> %scf
|  8> MaxIter 1500
|  9> end
| 10>  
| 11> %maxcore 3000
| 12>  
| 13> !CPCM
| 14> %cpcm smd true
| 15> SMDsolvent "MeCN"
| 16> surfacetype gepol_ses
| 17> rsolv 2.19
| 18> end 
| 19>  
| 20> * xyz 0 1
| 21> C           1.57085042838004     -1.17474438788844     -0.33321365208336
| 22> C           2.96192041551293     -1.15651629940685     -0.31860147015010
| 23> C           3.64782695539498      0.00855864334947      0.02599003748590
| 24> C           2.92361947907694      1.15458909719340      0.34785674698480
| 25> C           1.53060388669529      1.13435322432905      0.32993520415109
| 26> C           0.82328467622844     -0.03397612396155      0.00340161993556
| 27> C          -0.65741272614693     -0.04733327290659      0.00534536563332
| 28> C          -1.35282390658214     -1.16758358658154      0.27962064543062
| 29> C          -2.84853700806778     -1.25828591796901      0.30847424531628
| 30> C          -3.51990150406660      0.11087068594057      0.31565142940002
| 31> C          -2.83381225328130      1.04341808051259     -0.67327419385531
| 32> C          -1.37142433850592      1.25026584913834     -0.29589644947955
| 33> H          -0.83991530281643      1.78116962585690     -1.10618334228773
| 34> H          -1.30989672858064      1.91765444185113      0.58676465237026
| 35> H          -3.35148405171204      2.01729252554914     -0.71973408682922
| 36> H          -2.89053837289839      0.60490265207129     -1.68762863260766
| 37> H          -4.59471066896096      0.01138665951998      0.08467603040594
| 38> H          -3.45292200027469      0.54772553729573      1.33001780873961
| 39> H          -3.19002868806132     -1.84280149491509     -0.57088642583127
| 40> H          -3.16602339134086     -1.84941487747488      1.18737448619474
| 41> H          -0.80474635256816     -2.08768769328037      0.51396987653596
| 42> H           0.98362946668811      2.04390039060663      0.59144870231404
| 43> H           3.44740931149543      2.07717728450666      0.61616083395012
| 44> H           4.74164950120465      0.02477698912015      0.03349122220482
| 45> H           3.51725863806072     -2.05891161890825     -0.59221005705267
| 46> H           1.04979053512663     -2.08648421354846     -0.63790469687620
| 47> *
| 48> 
| 49>                          ****END OF INPUT****
================================================================================

                       ****************************
                       * Single Point Calculation *
                       ****************************

---------------------------------
CARTESIAN COORDINATES (ANGSTROEM)
---------------------------------
  C      1.570850   -1.174744   -0.333214
  C      2.961920   -1.156516   -0.318601
  C      3.647827    0.008559    0.025990
  C      2.923619    1.154589    0.347857
  C      1.530604    1.134353    0.329935
  C      0.823285   -0.033976    0.003402
  C     -0.657413   -0.047333    0.005345
  C     -1.352824   -1.167584    0.279621
  C     -2.848537   -1.258286    0.308474
  C     -3.519902    0.110871    0.315651
  C     -2.833812    1.043418   -0.673274
  C     -1.371424    1.250266   -0.295896
  H     -0.839915    1.781170   -1.106183
  H     -1.309897    1.917654    0.586765
  H     -3.351484    2.017293   -0.719734
  H     -2.890538    0.604903   -1.687629
  H     -4.594711    0.011387    0.084676
  H     -3.452922    0.547726    1.330018
  H     -3.190029   -1.842801   -0.570886
  H     -3.166023   -1.849415    1.187374
  H     -0.804746   -2.087688    0.513970
  H      0.983629    2.043900    0.591449
  H      3.447409    2.077177    0.616161
  H      4.741650    0.024777    0.033491
  H      3.517259   -2.058912   -0.592210
  H      1.049791   -2.086484   -0.637905

----------------------------
CARTESIAN COORDINATES (A.U.)
----------------------------
  NO LB      ZA    FRAG     MASS         X           Y           Z
   0 C     6.0000    0    12.011    2.968477   -2.219945   -0.629683
   1 C     6.0000    0    12.011    5.597218   -2.185499   -0.602070
   2 C     6.0000    0    12.011    6.893394    0.016173    0.049114
   3 C     6.0000    0    12.011    5.524840    2.181857    0.657354
   4 C     6.0000    0    12.011    2.892422    2.143617    0.623487
   5 C     6.0000    0    12.011    1.555783   -0.064206    0.006428
   6 C     6.0000    0    12.011   -1.242330   -0.089447    0.010101
   7 C     6.0000    0    12.011   -2.556467   -2.206413    0.528406
   8 C     6.0000    0    12.011   -5.382955   -2.377816    0.582932
   9 C     6.0000    0    12.011   -6.651650    0.209515    0.596495
  10 C     6.0000    0    12.011   -5.355129    1.971774   -1.272304
  11 C     6.0000    0    12.011   -2.591616    2.362660   -0.559163
  12 H     1.0000    0     1.008   -1.587210    3.365923   -2.090384
  13 H     1.0000    0     1.008   -2.475346    3.623842    1.108824
  14 H     1.0000    0     1.008   -6.333387    3.812130   -1.360100
  15 H     1.0000    0     1.008   -5.462326    1.143100   -3.189156
  16 H     1.0000    0     1.008   -8.682745    0.021518    0.160015
  17 H     1.0000    0     1.008   -6.525077    1.035051    2.513369
  18 H     1.0000    0     1.008   -6.028281   -3.482390   -1.078819
  19 H     1.0000    0     1.008   -5.982917   -3.494888    2.243813
  20 H     1.0000    0     1.008   -1.520750   -3.945158    0.971262
  21 H     1.0000    0     1.008    1.858790    3.862412    1.117676
  22 H     1.0000    0     1.008    6.514659    3.925296    1.164375
  23 H     1.0000    0     1.008    8.960419    0.046822    0.063289
  24 H     1.0000    0     1.008    6.646656   -3.890779   -1.119115
  25 H     1.0000    0     1.008    1.983817   -3.942884   -1.205465

--------------------------------
INTERNAL COORDINATES (ANGSTROEM)
--------------------------------
 C      0   0   0     0.000000000000     0.00000000     0.00000000
 C      1   0   0     1.391266145701     0.00000000     0.00000000
 C      2   1   0     1.395209916402   120.33670867     0.00000000
 C      3   2   1     1.393362999572   119.23274041   359.64956401
 C      4   3   2     1.393277830465   120.31410078     0.22599735
 C      5   4   3     1.404250018050   121.24368209     0.65058735
 C      6   5   4     1.480758923315   120.72231342   179.18570069
 C      7   6   5     1.346768133077   121.60799176   209.52763967
 C      8   7   6     1.498738511249   124.72053369   179.64118690
 C      9   8   7     1.524916917241   112.65164934   346.60744291
 C     10   9   8     1.522608614023   110.39360719    42.91923403
 C      7   6   5     1.511397596692   117.67090626    28.78667426
 H     12   7   6     1.104954987233   109.35530729    39.98679886
 H     12   7   6     1.108279658383   109.39238774   284.84965862
 H     11  10   9     1.103890414507   110.87656278   176.54358841
 H     11  10   9     1.106539001140   109.24258650    59.25503083
 H     10   9   8     1.103839411959   110.29047950   165.92412409
 H     10   9   8     1.106466251910   109.39964438   282.91669531
 H      9   8   7     1.109752322439   108.88795141   108.84945564
 H      9   8   7     1.105756159262   109.52372773   223.22820737
 H      8   7   6     1.096312060728   118.91453894     0.46783512
 H      5   4   3     1.093090286091   119.02138358   179.66450683
 H      4   3   2     1.094308838947   120.08486675   180.25178433
 H      3   2   1     1.093968493254   120.37272386   180.26449515
 H      2   1   3     1.094339761184   119.60138756   180.80741589
 H      1   2   3     1.093439323798   119.36142384   177.97192358

---------------------------
INTERNAL COORDINATES (A.U.)
---------------------------
 C      0   0   0     0.000000000000     0.00000000     0.00000000
 C      1   0   0     2.629111994770     0.00000000     0.00000000
 C      2   1   0     2.636564641331   120.33670867     0.00000000
 C      3   2   1     2.633074474330   119.23274041   359.64956401
 C      4   3   2     2.632913528044   120.31410078     0.22599735
 C      5   4   3     2.653647957668   121.24368209     0.65058735
 C      6   5   4     2.798228835425   120.72231342   179.18570069
 C      7   6   5     2.545022937407   121.60799176   209.52763967
 C      8   7   6     2.832205332622   124.72053369   179.64118690
 C      9   8   7     2.881675350569   112.65164934   346.60744291
 C     10   9   8     2.877313289653   110.39360719    42.91923403
 C      7   6   5     2.856127537216   117.67090626    28.78667426
 H     12   7   6     2.088062316180   109.35530729    39.98679886
 H     12   7   6     2.094345034139   109.39238774   284.84965862
 H     11  10   9     2.086050565279   110.87656278   176.54358841
 H     11  10   9     2.091055668658   109.24258650    59.25503083
 H     10   9   8     2.085954184431   110.29047950   165.92412409
 H     10   9   8     2.090918192536   109.39964438   282.91669531
 H      9   8   7     2.097127965893   108.88795141   108.84945564
 H      9   8   7     2.089576311902   109.52372773   223.22820737
 H      8   7   6     2.071729552091   118.91453894     0.46783512
 H      5   4   3     2.065641280362   119.02138358   179.66450683
 H      4   3   2     2.067944011539   120.08486675   180.25178433
 H      3   2   1     2.067300851389   120.37272386   180.26449515
 H      2   1   3     2.068002446098   119.60138756   180.80741589
 H      1   2   3     2.066300866039   119.36142384   177.97192358

---------------------
BASIS SET INFORMATION
---------------------
There are 2 groups of distinct atoms

 Group   1 Type C   : 19s6p3d2f contracted to 5s4p3d2f pattern {88111/3111/111/11}
 Group   2 Type H   : 6s3p2d contracted to 4s3p2d pattern {3111/111/11}

Atom   0C    basis set group =>   1
Atom   1C    basis set group =>   1
Atom   2C    basis set group =>   1
Atom   3C    basis set group =>   1
Atom   4C    basis set group =>   1
Atom   5C    basis set group =>   1
Atom   6C    basis set group =>   1
Atom   7C    basis set group =>   1
Atom   8C    basis set group =>   1
Atom   9C    basis set group =>   1
Atom  10C    basis set group =>   1
Atom  11C    basis set group =>   1
Atom  12H    basis set group =>   2
Atom  13H    basis set group =>   2
Atom  14H    basis set group =>   2
Atom  15H    basis set group =>   2
Atom  16H    basis set group =>   2
Atom  17H    basis set group =>   2
Atom  18H    basis set group =>   2
Atom  19H    basis set group =>   2
Atom  20H    basis set group =>   2
Atom  21H    basis set group =>   2
Atom  22H    basis set group =>   2
Atom  23H    basis set group =>   2
Atom  24H    basis set group =>   2
Atom  25H    basis set group =>   2
---------------------------------
AUXILIARY/J BASIS SET INFORMATION
---------------------------------
There are 2 groups of distinct atoms

 Group   1 Type C   : 12s5p4d2f1g contracted to 6s4p3d1f1g pattern {711111/2111/211/2/1}
 Group   2 Type H   : 5s2p1d contracted to 3s1p1d pattern {311/2/1}

Atom   0C    basis set group =>   1
Atom   1C    basis set group =>   1
Atom   2C    basis set group =>   1
Atom   3C    basis set group =>   1
Atom   4C    basis set group =>   1
Atom   5C    basis set group =>   1
Atom   6C    basis set group =>   1
Atom   7C    basis set group =>   1
Atom   8C    basis set group =>   1
Atom   9C    basis set group =>   1
Atom  10C    basis set group =>   1
Atom  11C    basis set group =>   1
Atom  12H    basis set group =>   2
Atom  13H    basis set group =>   2
Atom  14H    basis set group =>   2
Atom  15H    basis set group =>   2
Atom  16H    basis set group =>   2
Atom  17H    basis set group =>   2
Atom  18H    basis set group =>   2
Atom  19H    basis set group =>   2
Atom  20H    basis set group =>   2
Atom  21H    basis set group =>   2
Atom  22H    basis set group =>   2
Atom  23H    basis set group =>   2
Atom  24H    basis set group =>   2
Atom  25H    basis set group =>   2


           ************************************************************
           *        Program running with 4 parallel MPI-processes     *
           *              working on a common directory               *
           ************************************************************
------------------------------------------------------------------------------
                             ORCA STARTUP CALCULATIONS
                           -- RI-GTO INTEGRALS CHOSEN --
------------------------------------------------------------------------------
------------------------------------------------------------------------------
                   ___                                                        
                  /   \      - P O W E R E D   B Y -                         
                 /     \                                                     
                 |  |  |   _    _      __       _____    __    __             
                 |  |  |  | |  | |    /  \     |  _  \  |  |  /  |          
                  \  \/   | |  | |   /    \    | | | |  |  | /  /          
                 / \  \   | |__| |  /  /\  \   | |_| |  |  |/  /          
                |  |  |   |  __  | /  /__\  \  |    /   |      \           
                |  |  |   | |  | | |   __   |  |    \   |  |\   \          
                \     /   | |  | | |  |  |  |  | |\  \  |  | \   \       
                 \___/    |_|  |_| |__|  |__|  |_| \__\ |__|  \__/        
                                                                              
                      - O R C A' S   B I G   F R I E N D -                    
                                      &                                       
                       - I N T E G R A L  F E E D E R -                       
                                                                              
 v1 FN, 2020, v2 2021, v3 2022-2024                                           
------------------------------------------------------------------------------


----------------------
SHARK INTEGRAL PACKAGE
----------------------

Number of atoms                             ...     26
Number of basis functions                   ...    946
Number of shells                            ...    366
Maximum angular momentum                    ...      3
Integral batch strategy                     ... SHARK/LIBINT Hybrid
RI-J (if used) integral strategy            ... SPLIT-RIJ (Revised 2003 algorithm where possible)
Printlevel                                  ...      1
Contraction scheme used                     ... PARTIAL GENERAL contraction
Prescreening option                         ... SCHWARTZ
   Thresh                                   ... 2.500e-11
   Tcut                                     ... 2.500e-12
   Tpresel                                  ... 2.500e-12 
Coulomb Range Separation                    ... NOT USED
Exchange Range Separation                   ... NOT USED
Multipole approximations                    ... NOT USED
Finite Nucleus Model                        ... NOT USED
CABS basis                                  ... NOT available
Auxiliary Coulomb fitting basis             ... AVAILABLE
   # of basis functions in Aux-J            ...    742
   # of shells in Aux-J                     ...    250
   Maximum angular momentum in Aux-J        ...      4
Auxiliary J/K fitting basis                 ... NOT available
Auxiliary Correlation fitting basis         ... NOT available
Auxiliary 'external' fitting basis          ... NOT available

Checking pre-screening integrals            ... done (  0.0 sec) Dimension = 366
Save PGC pre-screening integrals            ... done (  0.0 sec) Dimension = 366
Calculate PGC overlap integrals             ... done (  0.3 sec) Dimension = 294
Calculating pre-screening integrals (ORCA)  ... done (  0.4 sec) Dimension = 294
Check shell pair data                       ... done (  0.0 sec)
Shell pair information
Shell pair cut-off parameter TPreSel        ...   2.5e-12
Total number of shell pairs                 ...     67161
Shell pairs after pre-screening             ...     54165
Total number of primitive shell pairs       ...     87649
Primitive shell pairs kept                  ...     65020
          la=0 lb=0:  12237 shell pairs
          la=1 lb=0:  14043 shell pairs
          la=1 lb=1:   3720 shell pairs
          la=2 lb=0:   9702 shell pairs
          la=2 lb=1:   5152 shell pairs
          la=2 lb=2:   1835 shell pairs
          la=3 lb=0:   3810 shell pairs
          la=3 lb=1:   1981 shell pairs
          la=3 lb=2:   1400 shell pairs
          la=3 lb=3:    285 shell pairs

Calculating one electron integrals          ... done (  0.1 sec)
Calculating RI/J V-Matrix + Cholesky decomp.... done (  0.1 sec)
Calculating Nuclear repulsion               ... done (  0.0 sec) ENN=    648.362623515966 Eh

Diagonalization of the overlap matrix:
Smallest eigenvalue                        ... 4.175e-07
Time for diagonalization                   ...    0.176 sec
Threshold for overlap eigenvalues          ... 1.000e-07
Number of eigenvalues below threshold      ... 0

IMPORTANT:
Smallest eigenvalue of S below the DiffSThresh (1.000e-06) while
Thresh>1e-12 and/or TCut>1e-13! In order to avoid SCF convergence issues,
Thresh will be set to at least 1e-12 and TCut to at least 1e-13.
This can be turned off by adding %SCF DiffSThresh -1 END to the input.

Time for construction of square roots      ...    0.109 sec
Total time needed                          ...    0.370 sec

-------------------
DFT GRID GENERATION
-------------------

General Integration Accuracy     IntAcc      ... 4.388
Radial Grid Type                 RadialGrid  ... OptM3 with GC (2021)
Angular Grid (max. ang.)         AngularGrid ... 4 (Lebedev-302)
Angular grid pruning method      GridPruning ... 4 (adaptive)
Weight generation scheme         WeightScheme... mBecke (2022)
Basis function cutoff            BFCut       ... 1.0000e-11
Integration weight cutoff        WCut        ... 1.0000e-14
Partially contracted basis set               ... off
Rotationally invariant grid construction     ... off
Angular grids for H and He will be reduced by one unit
Diffuse basis detected: some atoms will have their outermost
                        angular grid increased by 1.

Total number of grid points                  ...   121674
Total number of batches                      ...     1914
Average number of points per batch           ...       63
Average number of grid points per atom       ...     4680

---------------------
SHARK GRID GENERATION
---------------------

General Integration Accuracy     IntAcc      ... 4.388
Radial Grid Type                 RadialGrid  ... OptM3 with GC (2021)
Angular Grid (max. ang.)         AngularGrid ... 4 (Lebedev-302)
Angular grid pruning method      GridPruning ... 4 (adaptive)
Weight generation scheme         WeightScheme... mBecke (2022)
Basis function cutoff            BFCut       ... 1.0000e-11
Integration weight cutoff        WCut        ... 1.0000e-14
Partially contracted basis set               ... off
Rotationally invariant grid construction     ... off
Angular grids for H and He will be reduced by one unit
Diffuse basis detected: some atoms will have their outermost
                        angular grid increased by 1.
Steep s-basis detected: some atoms will have their radial
                        grid points doubled.

Total number of grid points                  ...   196430
Total number of batches                      ...     3083
Average number of points per batch           ...       63
Average number of grid points per atom       ...     7555
Initializing property integral containers    ... done (  0.1 sec)

SHARK setup successfully completed in  14.3 seconds

Maximum memory used throughout the entire STARTUP-calculation: 118.2 MB


           ************************************************************
           *        Program running with 4 parallel MPI-processes     *
           *              working on a common directory               *
           ************************************************************
-------------------------------------------------------------------------------
                                 ORCA GUESS
                   Start orbitals & Density for SCF / CASSCF
-------------------------------------------------------------------------------

------------
SCF SETTINGS
------------
Hamiltonian:
 Density Functional     Method          .... DFT(GTOs)
  Functional kind                       .... Exchange
  Functional name                       .... Re-regularized SCAN exchange by Furness et al
  Functional family                     .... MGGA
  Functional refs                              
    [ 0] J. W. Furness, A. D. Kaplan, J. Ning, J. P. Perdew, and J. Sun.,  J. Phys. Chem. Lett. 11, 8208-8215 (2020), doi: 10.1021/acs.jpclett.0c02405
    [ 1] J. W. Furness, A. D. Kaplan, J. Ning, J. P. Perdew, and J. Sun.,  J. Phys. Chem. Lett. 11, 9248-9248 (2020), doi: 10.1021/acs.jpclett.0c03077
  Functional external parameters        .... 6
    Parameter  0 _c1        =  6.670000e-01 : c1 parameter        
    Parameter  1 _c2        =  8.000000e-01 : c2 parameter        
    Parameter  2 _d         =  1.240000e+00 : d parameter         
    Parameter  3 _k1        =  6.500000e-02 : k1 parameter        
    Parameter  4 _eta       =  1.000000e-03 : eta parameter       
    Parameter  5 _dp2       =  3.610000e-01 : dp2 parameter       
  Functional kind                       .... Correlation
  Functional name                       .... Re-regularized SCAN correlation by Furness et al
  Functional family                     .... MGGA
  Functional refs                              
    [ 0] J. W. Furness, A. D. Kaplan, J. Ning, J. P. Perdew, and J. Sun.,  J. Phys. Chem. Lett. 11, 8208-8215 (2020), doi: 10.1021/acs.jpclett.0c02405
    [ 1] J. W. Furness, A. D. Kaplan, J. Ning, J. P. Perdew, and J. Sun.,  J. Phys. Chem. Lett. 11, 9248-9248 (2020), doi: 10.1021/acs.jpclett.0c03077
  Functional external parameters        .... 1
    Parameter  0 _eta       =  1.000000e-03 : Regularization parameter
 Gradients option       PostSCFGGA      .... off
   NL short-range parameter             .... 12.300000
 RI-approximation to the Coulomb term is turned on
   Number of AuxJ basis functions       .... 742


General Settings:
 Integral files         IntName         .... cs_rporg_019_red_solv_03
 Hartree-Fock type      HFTyp           .... RHF
 Total Charge           Charge          ....    0
 Multiplicity           Mult            ....    1
 Number of Electrons    NEL             ....   86
 Basis Dimension        Dim             ....  874
 Nuclear Repulsion      ENuc            ....    648.3626235160 Eh

Convergence Acceleration:
 AO-DIIS                CNVDIIS         .... on
   Start iteration      DIISMaxIt       ....     0
   Startup error        DIISStart       ....  0.200000
   # of expansion vecs  DIISMaxEq       ....     5
   Bias factor          DIISBfac        ....   1.050
   Max. coefficient     DIISMaxC        ....  10.000
 MO-DIIS                CNVKDIIS        .... off
 Trust-Rad. Augm. Hess. CNVTRAH         .... auto
   Auto Start mean grad. ratio tolernc. ....  1.125000
   Auto Start start iteration           ....    50
   Auto Start num. interpolation iter.  ....    10
   Max. Number of Micro iterations      ....    24
   Max. Number of Macro iterations      .... Maxiter - #DIIS iter
   Number of Davidson start vectors     ....     2
   Converg. threshold    (grad. norm)   ....   1.000e-05
   Grad. Scal. Fac. for Micro threshold ....   0.100
   Minimum threshold for Micro iter.    ....   1.000e-02
   NR start threshold (gradient norm)   ....   1.000e-04
   Initial trust radius                 ....   0.400
   Minimum AH scaling param. (alpha)    ....   1.000
   Maximum AH scaling param. (alpha)    .... 1000.000
   Quad. conv. algorithm                .... NR
   White noise on init. David. guess    .... on
   Maximum white noise                  ....   0.010
   Pseudo random numbers                .... off
   Inactive MOs                         .... canonical
   Orbital update algorithm             .... Taylor
   Preconditioner                       .... Diag
   Full preconditioner red. dimension   ....   250
 SOSCF                  CNVSOSCF        .... on
   Start iteration      SOSCFMaxIt      ....   150
   Startup grad/error   SOSCFStart      ....  0.001000
   Hessian update       SOSCFHessUp     .... L-BFGS
 Level Shifting         CNVShift        .... on
   Level shift para.    LevelShift      ....    0.2500
   Turn off err/grad.   ShiftErr        ....    0.0000
 Zerner damping         CNVZerner       .... off
 Static damping         CNVDamp         .... on
   Fraction old density DampFac         ....    0.8500
   Max. Damping (<1)    DampMax         ....    0.9800
   Min. Damping (>=0)   DampMin         ....    0.0000
   Turn off err/grad.   DampErr         ....    0.0300

SCF Procedure:
 Maximum # iterations   MaxIter         ....  1500
 SCF integral mode      SCFMode         .... Direct
   Integral package                     .... SHARK and LIBINT hybrid scheme
 Reset frequency        DirectResetFreq ....    20
 Integral Threshold     Thresh          ....  1.000e-12 Eh
 Primitive CutOff       TCut            ....  1.000e-13 Eh

Convergence Tolerance:
 Convergence Check Mode ConvCheckMode   .... Total+1el-Energy
 Convergence forced     ConvForced      .... 0
 Energy Change          TolE            ....  1.000e-08 Eh
 1-El. energy change                    ....  1.000e-05 Eh
 Orbital Gradient       TolG            ....  1.000e-05
 Orbital Rotation angle TolX            ....  1.000e-05
 DIIS Error             TolErr          ....  5.000e-07

------------------------------
INITIAL GUESS: MODEL POTENTIAL
------------------------------
Loading Hartree-Fock densities                     ... done
Calculating cut-offs                               ... done
Initializing the effective Hamiltonian             ... done
Setting up the integral package (SHARK)            ... done
Starting the Coulomb interaction                   ... done (   1.3 sec)
Making the grid                                    ... done (   0.7 sec)
Mapping shells                                     ... done
Starting the XC term evaluation                    ... done (   1.9 sec)
  promolecular density results
     # of electrons  =     85.992792305
     EX              =    -65.495050517
     EC              =     -2.841951994
     EX+EC           =    -68.337002510
Transforming the Hamiltonian                       ... done (   0.1 sec)
Diagonalizing the Hamiltonian                      ... done (   0.2 sec)
Back transforming the eigenvectors                 ... done (   0.1 sec)
Now organizing SCF variables                       ... done
                      ------------------
                      INITIAL GUESS DONE (   4.4 sec)
                      ------------------
             **** ENERGY FILE WAS UPDATED (cs_rporg_019_red_solv_03.en.tmp) ****
Finished Guess after   5.7 sec
Maximum memory used throughout the entire GUESS-calculation: 95.0 MB


           ************************************************************
           *        Program running with 4 parallel MPI-processes     *
           *              working on a common directory               *
           ************************************************************

-------------------------------------------------------------------------------------------
                                      ORCA LEAN-SCF
                              memory conserving SCF solver
-------------------------------------------------------------------------------------------

--------------------
CPCM SOLVATION MODEL
--------------------
CPCM parameters:
  Epsilon                                         ...      35.6880
  Refrac                                          ...       1.3442
  Rsolv                                           ...       2.1900
  Surface type                                    ...    GEPOL SES
  Discretization scheme                           ... Constant num. charges
  Epsilon function type                           ...         CPCM
Solvent:                                          ... ACETONITRILE
SMD-CDS solvent descriptors:
  Soln                                            ...       1.3442
  Soln25                                          ...       1.3416
  Sola                                            ...       0.0700
  Solb                                            ...       0.3200
  Solg                                            ...      41.2500
  Solc                                            ...       0.0000
  Solh                                            ...       0.0000
Radii:
  Scheme                                          ... Element-dependent radii
  Radius for C  used is    3.4960 Bohr (=   1.8500 Ang.)
  Radius for H  used is    2.2677 Bohr (=   1.2000 Ang.)
Calculating surface                               ...        done! (  0.1s)
Cavity surface points                             ...          845
Cavity Volume                                     ...    1262.4168
Cavity Surface-area                               ...     709.4759
Calculating surface distance matrix               ...        done! (  0.0s)
Performing Cholesky decomposition & store         ...        done! (  0.0s)
Overall time for CPCM initialization              ...                 0.1s

----------------------------------------D-I-I-S--------------------------------------------
Iteration    Energy (Eh)           Delta-E    RMSDP     MaxDP     DIISErr   Damp  Time(sec)
-------------------------------------------------------------------------------------------
               ***  Starting incremental Fock matrix formation  ***
    1    -465.3075282472613026     0.00e+00  9.18e-04  6.45e-02  1.63e-01  0.850  23.6
    2    -465.3806107074364036    -7.31e-02  8.67e-04  6.47e-02  1.23e-01  0.850  20.3
                               ***Turning on AO-DIIS***
    3    -465.4301726399070276    -4.96e-02  6.93e-04  4.45e-02  8.51e-02  0.850  20.3
    4    -465.4623364929262834    -3.22e-02  5.75e-04  3.44e-02  6.71e-02  0.850  18.8
    5    -465.4854916620164431    -2.32e-02  4.83e-04  2.90e-02  5.58e-02  0.850  20.3
    6    -465.5035474367037978    -1.81e-02  4.08e-04  2.47e-02  4.71e-02  0.850  18.5
    7    -465.5182391784577476    -1.47e-02  3.46e-04  2.12e-02  3.98e-02  0.850  18.7
    8    -465.5303634841178564    -1.21e-02  2.93e-04  1.81e-02  3.32e-02  0.850  18.7
    9    -465.5403527607548995    -9.99e-03  2.48e-04  1.54e-02  2.78e-02  0.850  18.7
   10    -465.5485967957175717    -8.24e-03  1.40e-03  8.74e-02  2.34e-02  0.000  18.3
   11    -465.5915649160498333    -4.30e-02  4.65e-05  3.28e-03  1.60e-03  0.000  18.5
                              *** Initializing SOSCF ***
---------------------------------------S-O-S-C-F--------------------------------------
Iteration    Energy (Eh)           Delta-E    RMSDP     MaxDP     MaxGrad    Time(sec)
--------------------------------------------------------------------------------------
   12    -465.5915988129960397    -3.39e-05  1.39e-05  1.46e-03  5.30e-04    16.2
               *** Restarting incremental Fock matrix formation ***
   13    -465.5916013189222440    -2.51e-06  1.19e-05  1.18e-03  4.64e-05    22.3
   14    -465.5916010969871195     2.22e-07  3.09e-06  2.13e-04  1.32e-04    14.5
   15    -465.5916015255310185    -4.29e-07  3.15e-06  1.72e-04  1.55e-05    15.1
   16    -465.5916015060450945     1.95e-08  1.48e-06  1.42e-04  8.71e-06    14.1
   17    -465.5916015339574869    -2.79e-08  1.71e-06  8.69e-05  1.59e-06    13.2
                  *** Gradient check signals convergence ***

               *****************************************************
               *                     SUCCESS                       *
               *           SCF CONVERGED AFTER  17 CYCLES          *
               *****************************************************


SMD CDS free energy correction energy :                -3.82353     Kcal/mol
Total Energy after SMD CDS correction =              -465.597694722 Eh
             **** ENERGY FILE WAS UPDATED (cs_rporg_019_red_solv_03.en.tmp) ****

----------------
TOTAL SCF ENERGY
----------------

Total Energy       :       -465.59769472215453 Eh          -12669.55738 eV

Components:
Nuclear Repulsion  :        648.36262351596554 Eh           17642.84393 eV
Electronic Energy  :      -1113.94526319226406 Eh          -30311.99164 eV
One Electron Energy:      -1913.23462174396309 Eh          -52061.76083 eV
Two Electron Energy:        799.28935855169902 Eh           21749.76918 eV
CPCM Dielectric    :         -0.00896185765895 Eh              -0.24386 eV
SMD CDS (Gcds)     :         -0.00609318819703 Eh              -0.16580 eV

Virial components:
Potential Energy   :       -928.39815612899577 Eh          -25262.99817 eV
Kinetic Energy     :        462.80046140684124 Eh           12593.44079 eV
Virial Ratio       :          2.00604414547645

DFT components:
N(Alpha)           :       42.999982688323 electrons
N(Beta)            :       42.999982688323 electrons
N(Total)           :       85.999965376647 electrons
E(X)               :      -67.399898545348 Eh       
E(C)               :       -2.742434706599 Eh       
E(XC)              :      -70.142333251946 Eh       

CPCM Solvation Model Properties:
Surface-charge          :         -0.05628369069978
Corrected charge        :         -0.00000000000000
Outlying charge corr.   :          0.00021005726708 Eh               0.00572 eV
Free-energy (cav+disp)  :         -0.00609318819703 Eh              -0.16580 eV

---------------
SCF CONVERGENCE
---------------

  Last Energy change         ...    2.7912e-08  Tolerance :   1.0000e-08
  Last MAX-Density change    ...    8.6943e-05  Tolerance :   1.0000e-07
  Last RMS-Density change    ...    1.7142e-06  Tolerance :   5.0000e-09
  Last DIIS Error            ...    5.3033e-04  Tolerance :   5.0000e-07
  Last Orbital Gradient      ...    1.5926e-06  Tolerance :   1.0000e-05
  Last Orbital Rotation      ...    8.2149e-06  Tolerance :   1.0000e-05


----------------
ORBITAL ENERGIES
----------------

  NO   OCC          E(Eh)            E(eV) 
   0   2.0000     -10.049797      -273.4689 
   1   2.0000     -10.040405      -273.2133 
   2   2.0000     -10.038918      -273.1728 
   3   2.0000     -10.038842      -273.1708 
   4   2.0000     -10.037219      -273.1266 
   5   2.0000     -10.037148      -273.1247 
   6   2.0000     -10.037056      -273.1222 
   7   2.0000     -10.029923      -272.9281 
   8   2.0000     -10.029894      -272.9273 
   9   2.0000     -10.029439      -272.9149 
  10   2.0000     -10.024625      -272.7839 
  11   2.0000     -10.023926      -272.7649 
  12   2.0000      -0.828314       -22.5396 
  13   2.0000      -0.796691       -21.6791 
  14   2.0000      -0.737733       -20.0747 
  15   2.0000      -0.713424       -19.4132 
  16   2.0000      -0.702273       -19.1098 
  17   2.0000      -0.681935       -18.5564 
  18   2.0000      -0.592068       -16.1110 
  19   2.0000      -0.582920       -15.8621 
  20   2.0000      -0.556758       -15.1501 
  21   2.0000      -0.543583       -14.7917 
  22   2.0000      -0.489119       -13.3096 
  23   2.0000      -0.471478       -12.8296 
  24   2.0000      -0.440813       -11.9951 
  25   2.0000      -0.420945       -11.4545 
  26   2.0000      -0.416697       -11.3389 
  27   2.0000      -0.398375       -10.8403 
  28   2.0000      -0.389786       -10.6066 
  29   2.0000      -0.382510       -10.4086 
  30   2.0000      -0.375737       -10.2243 
  31   2.0000      -0.362618        -9.8673 
  32   2.0000      -0.351797        -9.5729 
  33   2.0000      -0.342538        -9.3209 
  34   2.0000      -0.337093        -9.1728 
  35   2.0000      -0.314767        -8.5652 
  36   2.0000      -0.306304        -8.3350 
  37   2.0000      -0.289679        -7.8826 
  38   2.0000      -0.280080        -7.6214 
  39   2.0000      -0.272112        -7.4045 
  40   2.0000      -0.255137        -6.9426 
  41   2.0000      -0.238301        -6.4845 
  42   2.0000      -0.200812        -5.4644 
  43   0.0000      -0.054163        -1.4738 
  44   0.0000      -0.036268        -0.9869 
  45   0.0000       0.003870         0.1053 
  46   0.0000       0.013485         0.3669 
  47   0.0000       0.019299         0.5251 
  48   0.0000       0.023788         0.6473 
  49   0.0000       0.025750         0.7007 
  50   0.0000       0.033833         0.9206 
  51   0.0000       0.037521         1.0210 
  52   0.0000       0.042938         1.1684 
  53   0.0000       0.046661         1.2697 
*Only the first 10 virtual orbitals were printed.

                    ********************************
                    * MULLIKEN POPULATION ANALYSIS *
                    ********************************

-----------------------
MULLIKEN ATOMIC CHARGES
-----------------------
   0 C :   -0.980781
   1 C :   -0.836340
   2 C :   -0.133155
   3 C :   -0.926546
   4 C :   -0.923832
   5 C :    2.185938
   6 C :    1.962495
   7 C :   -1.174022
   8 C :   -0.102498
   9 C :   -0.255286
  10 C :   -0.452415
  11 C :   -0.231682
  12 H :    0.129089
  13 H :    0.184883
  14 H :    0.152627
  15 H :    0.083523
  16 H :    0.191464
  17 H :    0.104707
  18 H :    0.125115
  19 H :    0.147024
  20 H :   -0.261497
  21 H :   -0.187100
  22 H :    0.440995
  23 H :    0.520819
  24 H :    0.464935
  25 H :   -0.228458
Sum of atomic charges:   -0.0000000

--------------------------------
MULLIKEN REDUCED ORBITAL CHARGES
--------------------------------
  0 C s       :     4.100934  s :     4.100934
      pz      :     1.014441  p :     2.755659
      px      :     0.734733
      py      :     1.006485
      dz2     :    -0.003777  d :     0.142835
      dxz     :     0.009100
      dyz     :    -0.029596
      dx2y2   :    -0.090588
      dxy     :     0.257696
      f0      :    -0.000320  f :    -0.018647
      f+1     :     0.001026
      f-1     :    -0.000108
      f+2     :    -0.004014
      f-2     :     0.000118
      f+3     :     0.002995
      f-3     :    -0.018344

  1 C s       :     3.750571  s :     3.750571
      pz      :     0.967637  p :     2.979732
      px      :     1.135500
      py      :     0.876595
      dz2     :     0.004004  d :     0.115855
      dxz     :     0.038619
      dyz     :     0.014067
      dx2y2   :    -0.029804
      dxy     :     0.088968
      f0      :     0.000259  f :    -0.009817
      f+1     :     0.000192
      f-1     :     0.000118
      f+2     :    -0.001888
      f-2     :     0.001053
      f+3     :     0.002057
      f-3     :    -0.011608

  2 C s       :     3.498580  s :     3.498580
      pz      :     0.956093  p :     2.733996
      px      :     0.906522
      py      :     0.871381
      dz2     :    -0.020275  d :    -0.090869
      dxz     :    -0.004018
      dyz     :     0.017047
      dx2y2   :    -0.119659
      dxy     :     0.036037
      f0      :     0.000204  f :    -0.008553
      f+1     :     0.001153
      f-1     :    -0.000079
      f+2     :     0.000086
      f-2     :    -0.001061
      f+3     :     0.001404
      f-3     :    -0.010260

  3 C s       :     3.824218  s :     3.824218
      pz      :     0.950869  p :     2.972580
      px      :     1.152203
      py      :     0.869508
      dz2     :     0.003922  d :     0.138324
      dxz     :     0.039784
      dyz     :     0.007328
      dx2y2   :    -0.030767
      dxy     :     0.118057
      f0      :     0.000255  f :    -0.008577
      f+1     :     0.000167
      f-1     :     0.000112
      f+2     :    -0.001411
      f-2     :     0.000714
      f+3     :     0.002301
      f-3     :    -0.010714

  4 C s       :     4.112359  s :     4.112359
      pz      :     1.030532  p :     2.639122
      px      :     0.657303
      py      :     0.951287
      dz2     :    -0.009467  d :     0.188558
      dxz     :     0.004639
      dyz     :    -0.005050
      dx2y2   :    -0.041404
      dxy     :     0.239841
      f0      :     0.000078  f :    -0.016207
      f+1     :     0.000431
      f-1     :    -0.000199
      f+2     :    -0.003536
      f-2     :     0.000413
      f+3     :     0.004350
      f-3     :    -0.017744

  5 C s       :     2.875768  s :     2.875768
      pz      :     0.923251  p :     1.269481
      px      :     0.064918
      py      :     0.281311
      dz2     :    -0.017393  d :    -0.212932
      dxz     :    -0.015246
      dyz     :    -0.047050
      dx2y2   :    -0.079924
      dxy     :    -0.053320
      f0      :    -0.000048  f :    -0.118255
      f+1     :    -0.005293
      f-1     :    -0.001849
      f+2     :    -0.002478
      f-2     :    -0.005608
      f+3     :    -0.009867
      f-3     :    -0.093111

  6 C s       :     2.860070  s :     2.860070
      pz      :     0.990634  p :     1.349562
      px      :    -0.133093
      py      :     0.492021
      dz2     :     0.029123  d :    -0.080244
      dxz     :    -0.019878
      dyz     :     0.009126
      dx2y2   :    -0.122480
      dxy     :     0.023865
      f0      :    -0.000687  f :    -0.091882
      f+1     :    -0.003567
      f-1     :    -0.001708
      f+2     :    -0.001762
      f-2     :    -0.003829
      f+3     :    -0.007675
      f-3     :    -0.072654

  7 C s       :     4.237010  s :     4.237010
      pz      :     1.023853  p :     2.873764
      px      :     0.876471
      py      :     0.973440
      dz2     :     0.005094  d :     0.085442
      dxz     :    -0.000559
      dyz     :     0.003680
      dx2y2   :     0.003965
      dxy     :     0.073262
      f0      :    -0.000665  f :    -0.022194
      f+1     :     0.001348
      f-1     :    -0.000523
      f+2     :    -0.004181
      f-2     :    -0.002198
      f+3     :     0.000241
      f-3     :    -0.016215

  8 C s       :     3.257485  s :     3.257485
      pz      :     1.023831  p :     2.817771
      px      :     0.843064
      py      :     0.950876
      dz2     :    -0.008718  d :     0.030505
      dxz     :    -0.014236
      dyz     :     0.022916
      dx2y2   :     0.008318
      dxy     :     0.022226
      f0      :     0.001831  f :    -0.003263
      f+1     :    -0.001978
      f-1     :     0.004649
      f+2     :     0.002577
      f-2     :    -0.002588
      f+3     :    -0.000201
      f-3     :    -0.007553

  9 C s       :     3.301033  s :     3.301033
      pz      :     1.021383  p :     2.880234
      px      :     0.958370
      py      :     0.900481
      dz2     :     0.027757  d :     0.067620
      dxz     :    -0.005576
      dyz     :     0.005169
      dx2y2   :     0.007158
      dxy     :     0.033112
      f0      :     0.000186  f :     0.006399
      f+1     :    -0.000072
      f-1     :     0.000243
      f+2     :     0.000841
      f-2     :    -0.001230
      f+3     :     0.003520
      f-3     :     0.002911

 10 C s       :     3.400189  s :     3.400189
      pz      :     0.969305  p :     2.962676
      px      :     0.979198
      py      :     1.014174
      dz2     :     0.008583  d :     0.084366
      dxz     :     0.010883
      dyz     :     0.018718
      dx2y2   :     0.032266
      dxy     :     0.013915
      f0      :    -0.000962  f :     0.005185
      f+1     :    -0.001098
      f-1     :     0.001308
      f+2     :    -0.000844
      f-2     :     0.000257
      f+3     :     0.004542
      f-3     :     0.001980

 11 C s       :     3.432264  s :     3.432264
      pz      :     1.017308  p :     2.737867
      px      :     0.876564
      py      :     0.843995
      dz2     :    -0.013996  d :     0.063782
      dxz     :    -0.037743
      dyz     :     0.018151
      dx2y2   :     0.027305
      dxy     :     0.070065
      f0      :    -0.000182  f :    -0.002231
      f+1     :     0.001079
      f-1     :     0.002737
      f+2     :    -0.003822
      f-2     :     0.000447
      f+3     :     0.001392
      f-3     :    -0.003882

 12 H s       :     0.824611  s :     0.824611
      pz      :     0.011810  p :     0.034329
      px      :     0.013728
      py      :     0.008792
      dz2     :     0.002591  d :     0.011970
      dxz     :     0.000390
      dyz     :     0.002586
      dx2y2   :     0.003808
      dxy     :     0.002595

 13 H s       :     0.780504  s :     0.780504
      pz      :     0.006819  p :     0.024800
      px      :     0.007697
      py      :     0.010284
      dz2     :     0.001790  d :     0.009814
      dxz     :     0.001852
      dyz     :     0.002282
      dx2y2   :     0.002171
      dxy     :     0.001719

 14 H s       :     0.798831  s :     0.798831
      pz      :     0.014895  p :     0.034887
      px      :     0.017057
      py      :     0.002935
      dz2     :     0.000531  d :     0.013656
      dxz     :     0.001031
      dyz     :     0.004860
      dx2y2   :     0.005178
      dxy     :     0.002056

 15 H s       :     0.857969  s :     0.857969
      pz      :     0.019896  p :     0.046527
      px      :     0.023573
      py      :     0.003057
      dz2     :     0.004238  d :     0.011981
      dxz     :     0.005167
      dyz     :     0.001998
      dx2y2   :     0.000354
      dxy     :     0.000225

 16 H s       :     0.760552  s :     0.760552
      pz      :     0.015770  p :     0.034363
      px      :     0.001956
      py      :     0.016637
      dz2     :     0.001750  d :     0.013621
      dxz     :     0.003492
      dyz     :     0.000269
      dx2y2   :     0.001415
      dxy     :     0.006694

 17 H s       :     0.833687  s :     0.833687
      pz      :     0.025050  p :     0.051022
      px      :    -0.002408
      py      :     0.028380
      dz2     :     0.002438  d :     0.010584
      dxz     :     0.003882
      dyz     :     0.002846
      dx2y2   :     0.000628
      dxy     :     0.000790

 18 H s       :     0.812271  s :     0.812271
      pz      :     0.012171  p :     0.052612
      px      :     0.019642
      py      :     0.020799
      dz2     :     0.002271  d :     0.010002
      dxz     :     0.001040
      dyz     :     0.001895
      dx2y2   :     0.003147
      dxy     :     0.001649

 19 H s       :     0.805057  s :     0.805057
      pz      :     0.009094  p :     0.035683
      px      :     0.007194
      py      :     0.019395
      dz2     :     0.002788  d :     0.012236
      dxz     :     0.001736
      dyz     :     0.002056
      dx2y2   :     0.003645
      dxy     :     0.002012

 20 H s       :     1.200577  s :     1.200577
      pz      :     0.023417  p :     0.048193
      px      :    -0.004755
      py      :     0.029531
      dz2     :     0.001351  d :     0.012727
      dxz     :     0.000937
      dyz     :     0.002173
      dx2y2   :     0.004760
      dxy     :     0.003505

 21 H s       :     1.123900  s :     1.123900
      pz      :     0.040666  p :     0.055209
      px      :    -0.035650
      py      :     0.050193
      dz2     :     0.000567  d :     0.007991
      dxz     :     0.001480
      dyz     :     0.002996
      dx2y2   :     0.002248
      dxy     :     0.000701

 22 H s       :     0.533905  s :     0.533905
      pz      :     0.019441  p :     0.015406
      px      :    -0.002063
      py      :    -0.001973
      dz2     :     0.001038  d :     0.009694
      dxz     :     0.001063
      dyz     :     0.003193
      dx2y2   :     0.001838
      dxy     :     0.002562

 23 H s       :     0.490617  s :     0.490617
      pz      :     0.015057  p :    -0.020439
      px      :    -0.031004
      py      :    -0.004492
      dz2     :    -0.000342  d :     0.009003
      dxz     :     0.005465
      dyz     :    -0.000142
      dx2y2   :     0.001720
      dxy     :     0.002302

 24 H s       :     0.519378  s :     0.519378
      pz      :     0.017206  p :     0.006215
      px      :    -0.010998
      py      :     0.000007
      dz2     :     0.001014  d :     0.009473
      dxz     :     0.001203
      dyz     :     0.003013
      dx2y2   :     0.001867
      dxy     :     0.002377

 25 H s       :     1.148730  s :     1.148730
      pz      :     0.036166  p :     0.070125
      px      :     0.000573
      py      :     0.033386
      dz2     :     0.001703  d :     0.009602
      dxz     :     0.000747
      dyz     :     0.002740
      dx2y2   :     0.003403
      dxy     :     0.001009



                     *******************************
                     * LOEWDIN POPULATION ANALYSIS *
                     *******************************

----------------------
LOEWDIN ATOMIC CHARGES
----------------------
   0 C :    0.202454
   1 C :    0.188704
   2 C :    0.180239
   3 C :    0.189324
   4 C :    0.204900
   5 C :   -0.125156
   6 C :   -0.082745
   7 C :    0.253520
   8 C :    0.267584
   9 C :    0.271410
  10 C :    0.277263
  11 C :    0.263405
  12 H :   -0.131538
  13 H :   -0.129113
  14 H :   -0.128367
  15 H :   -0.126031
  16 H :   -0.130358
  17 H :   -0.128526
  18 H :   -0.130831
  19 H :   -0.137275
  20 H :   -0.174431
  21 H :   -0.178955
  22 H :   -0.171367
  23 H :   -0.174573
  24 H :   -0.171602
  25 H :   -0.177939

-------------------------------
LOEWDIN REDUCED ORBITAL CHARGES
-------------------------------
  0 C s       :     2.477494  s :     2.477494
      pz      :     0.624535  p :     2.269304
      px      :     0.843427
      py      :     0.801343
      dz2     :     0.070715  d :     0.708507
      dxz     :     0.123817
      dyz     :     0.068768
      dx2y2   :     0.207078
      dxy     :     0.238130
      f0      :     0.023655  f :     0.342241
      f+1     :     0.030336
      f-1     :     0.022675
      f+2     :     0.051490
      f-2     :     0.030259
      f+3     :     0.057893
      f-3     :     0.125935

  1 C s       :     2.492827  s :     2.492827
      pz      :     0.622432  p :     2.286418
      px      :     0.846240
      py      :     0.817746
      dz2     :     0.068477  d :     0.697636
      dxz     :     0.117413
      dyz     :     0.070325
      dx2y2   :     0.190306
      dxy     :     0.251114
      f0      :     0.022582  f :     0.334415
      f+1     :     0.027464
      f-1     :     0.024071
      f+2     :     0.053384
      f-2     :     0.025932
      f+3     :     0.054308
      f-3     :     0.126673

  2 C s       :     2.494865  s :     2.494865
      pz      :     0.627691  p :     2.294137
      px      :     0.829843
      py      :     0.836603
      dz2     :     0.076138  d :     0.697594
      dxz     :     0.050083
      dyz     :     0.131628
      dx2y2   :     0.275963
      dxy     :     0.163781
      f0      :     0.020765  f :     0.333166
      f+1     :     0.025324
      f-1     :     0.027124
      f+2     :     0.028961
      f-2     :     0.055412
      f+3     :     0.054659
      f-3     :     0.120921

  3 C s       :     2.492456  s :     2.492456
      pz      :     0.620710  p :     2.285659
      px      :     0.845526
      py      :     0.819422
      dz2     :     0.067911  d :     0.697907
      dxz     :     0.116972
      dyz     :     0.068241
      dx2y2   :     0.197043
      dxy     :     0.247740
      f0      :     0.022148  f :     0.334654
      f+1     :     0.028827
      f-1     :     0.023050
      f+2     :     0.050786
      f-2     :     0.027145
      f+3     :     0.054763
      f-3     :     0.127935

  4 C s       :     2.476160  s :     2.476160
      pz      :     0.620137  p :     2.270338
      px      :     0.840667
      py      :     0.809534
      dz2     :     0.070309  d :     0.706725
      dxz     :     0.119980
      dyz     :     0.068913
      dx2y2   :     0.203238
      dxy     :     0.244287
      f0      :     0.023065  f :     0.341876
      f+1     :     0.028899
      f-1     :     0.023624
      f+2     :     0.052611
      f-2     :     0.028206
      f+3     :     0.058501
      f-3     :     0.126971

  5 C s       :     2.458673  s :     2.458673
      pz      :     0.617273  p :     2.250081
      px      :     0.810459
      py      :     0.822349
      dz2     :     0.094468  d :     0.922384
      dxz     :     0.149268
      dyz     :     0.134010
      dx2y2   :     0.284111
      dxy     :     0.260529
      f0      :     0.032298  f :     0.494017
      f+1     :     0.039290
      f-1     :     0.031235
      f+2     :     0.064479
      f-2     :     0.063322
      f+3     :     0.076660
      f-3     :     0.186733

  6 C s       :     2.455782  s :     2.455782
      pz      :     0.625238  p :     2.241904
      px      :     0.800143
      py      :     0.816523
      dz2     :     0.086512  d :     0.913128
      dxz     :     0.130625
      dyz     :     0.159041
      dx2y2   :     0.288124
      dxy     :     0.248825
      f0      :     0.034549  f :     0.471930
      f+1     :     0.031976
      f-1     :     0.030046
      f+2     :     0.070440
      f-2     :     0.050435
      f+3     :     0.075932
      f-3     :     0.178552

  7 C s       :     2.472150  s :     2.472150
      pz      :     0.615421  p :     2.243314
      px      :     0.797086
      py      :     0.830807
      dz2     :     0.061952  d :     0.707947
      dxz     :     0.141614
      dyz     :     0.070975
      dx2y2   :     0.202395
      dxy     :     0.231010
      f0      :     0.027698  f :     0.323070
      f+1     :     0.022848
      f-1     :     0.019833
      f+2     :     0.050509
      f-2     :     0.029206
      f+3     :     0.055035
      f-3     :     0.117940

  8 C s       :     2.430553  s :     2.430553
      pz      :     0.756230  p :     2.232389
      px      :     0.736607
      py      :     0.739552
      dz2     :     0.092627  d :     0.745698
      dxz     :     0.115606
      dyz     :     0.177464
      dx2y2   :     0.178545
      dxy     :     0.181457
      f0      :     0.034134  f :     0.323776
      f+1     :     0.029627
      f-1     :     0.028110
      f+2     :     0.048680
      f-2     :     0.032081
      f+3     :     0.044508
      f-3     :     0.106635

  9 C s       :     2.424743  s :     2.424743
      pz      :     0.741596  p :     2.213649
      px      :     0.752161
      py      :     0.719893
      dz2     :     0.176560  d :     0.758312
      dxz     :     0.061345
      dyz     :     0.186535
      dx2y2   :     0.214522
      dxy     :     0.119351
      f0      :     0.051850  f :     0.331885
      f+1     :     0.029072
      f-1     :     0.040840
      f+2     :     0.059348
      f-2     :     0.037807
      f+3     :     0.037963
      f-3     :     0.075005

 10 C s       :     2.422756  s :     2.422756
      pz      :     0.739327  p :     2.209632
      px      :     0.718813
      py      :     0.751492
      dz2     :     0.189192  d :     0.757471
      dxz     :     0.134207
      dyz     :     0.105939
      dx2y2   :     0.148734
      dxy     :     0.179399
      f0      :     0.044345  f :     0.332877
      f+1     :     0.045334
      f-1     :     0.038864
      f+2     :     0.057295
      f-2     :     0.037560
      f+3     :     0.043380
      f-3     :     0.066098

 11 C s       :     2.417149  s :     2.417149
      pz      :     0.749419  p :     2.221108
      px      :     0.732888
      py      :     0.738801
      dz2     :     0.095640  d :     0.765148
      dxz     :     0.145472
      dyz     :     0.169882
      dx2y2   :     0.172533
      dxy     :     0.181620
      f0      :     0.024806  f :     0.333190
      f+1     :     0.044764
      f-1     :     0.035584
      f+2     :     0.045012
      f-2     :     0.037967
      f+3     :     0.044385
      f-3     :     0.100672

 12 H s       :     0.602519  s :     0.602519
      pz      :     0.115776  p :     0.300390
      px      :     0.095403
      py      :     0.089211
      dz2     :     0.069466  d :     0.228629
      dxz     :     0.039947
      dyz     :     0.046535
      dx2y2   :     0.043212
      dxy     :     0.029469

 13 H s       :     0.597843  s :     0.597843
      pz      :     0.122607  p :     0.302213
      px      :     0.083810
      py      :     0.095796
      dz2     :     0.072206  d :     0.229057
      dxz     :     0.051126
      dyz     :     0.043028
      dx2y2   :     0.033494
      dxy     :     0.029203

 14 H s       :     0.621661  s :     0.621661
      pz      :     0.079550  p :     0.288588
      px      :     0.086281
      py      :     0.122757
      dz2     :     0.016920  d :     0.218118
      dxz     :     0.015843
      dyz     :     0.068990
      dx2y2   :     0.067861
      dxy     :     0.048504

 15 H s       :     0.610628  s :     0.610628
      pz      :     0.122717  p :     0.293935
      px      :     0.075445
      py      :     0.095773
      dz2     :     0.061303  d :     0.221468
      dxz     :     0.060602
      dyz     :     0.060569
      dx2y2   :     0.020336
      dxy     :     0.018658

 16 H s       :     0.623160  s :     0.623160
      pz      :     0.083997  p :     0.289387
      px      :     0.128556
      py      :     0.076834
      dz2     :     0.026220  d :     0.217811
      dxz     :     0.067253
      dyz     :     0.011192
      dx2y2   :     0.039769
      dxy     :     0.073377

 17 H s       :     0.611747  s :     0.611747
      pz      :     0.126064  p :     0.294744
      px      :     0.083413
      py      :     0.085266
      dz2     :     0.062263  d :     0.222035
      dxz     :     0.065121
      dyz     :     0.057073
      dx2y2   :     0.021199
      dxy     :     0.016379

 18 H s       :     0.610763  s :     0.610763
      pz      :     0.124872  p :     0.297140
      px      :     0.083835
      py      :     0.088433
      dz2     :     0.077248  d :     0.222928
      dxz     :     0.039188
      dyz     :     0.045048
      dx2y2   :     0.035850
      dxy     :     0.025594

 19 H s       :     0.617283  s :     0.617283
      pz      :     0.123234  p :     0.296380
      px      :     0.082180
      py      :     0.090966
      dz2     :     0.076897  d :     0.223611
      dxz     :     0.040353
      dyz     :     0.043826
      dx2y2   :     0.037535
      dxy     :     0.025000

 20 H s       :     0.635059  s :     0.635059
      pz      :     0.084204  p :     0.312338
      px      :     0.107850
      py      :     0.120284
      dz2     :     0.027253  d :     0.227034
      dxz     :     0.020263
      dyz     :     0.051223
      dx2y2   :     0.077281
      dxy     :     0.051015

 21 H s       :     0.635649  s :     0.635649
      pz      :     0.085219  p :     0.315826
      px      :     0.112085
      py      :     0.118521
      dz2     :     0.028656  d :     0.227480
      dxz     :     0.023693
      dyz     :     0.045268
      dx2y2   :     0.077185
      dxy     :     0.052679

 22 H s       :     0.661508  s :     0.661508
      pz      :     0.084809  p :     0.298177
      px      :     0.090845
      py      :     0.122523
      dz2     :     0.026239  d :     0.211682
      dxz     :     0.019615
      dyz     :     0.046436
      dx2y2   :     0.067074
      dxy     :     0.052319

 23 H s       :     0.664103  s :     0.664103
      pz      :     0.082211  p :     0.299539
      px      :     0.140219
      py      :     0.077110
      dz2     :     0.021424  d :     0.210930
      dxz     :     0.061390
      dyz     :     0.003900
      dx2y2   :     0.045051
      dxy     :     0.079165

 24 H s       :     0.661592  s :     0.661592
      pz      :     0.084971  p :     0.298248
      px      :     0.092722
      py      :     0.120555
      dz2     :     0.026242  d :     0.211762
      dxz     :     0.021280
      dyz     :     0.045037
      dx2y2   :     0.068782
      dxy     :     0.050421

 25 H s       :     0.637135  s :     0.637135
      pz      :     0.086514  p :     0.314158
      px      :     0.108227
      py      :     0.119417
      dz2     :     0.028198  d :     0.226645
      dxz     :     0.026833
      dyz     :     0.046044
      dx2y2   :     0.072445
      dxy     :     0.053125



                      *****************************
                      * MAYER POPULATION ANALYSIS *
                      *****************************

  NA   - Mulliken gross atomic population
  ZA   - Total nuclear charge
  QA   - Mulliken gross atomic charge
  VA   - Mayer's total valence
  BVA  - Mayer's bonded valence
  FA   - Mayer's free valence

  ATOM       NA         ZA         QA         VA         BVA        FA
  0 C      6.9808     6.0000    -0.9808     2.5164     2.5164     0.0000
  1 C      6.8363     6.0000    -0.8363     2.7183     2.7183    -0.0000
  2 C      6.1332     6.0000    -0.1332     2.5719     2.5719    -0.0000
  3 C      6.9265     6.0000    -0.9265     2.5735     2.5735     0.0000
  4 C      6.9238     6.0000    -0.9238     2.2820     2.2820    -0.0000
  5 C      3.8141     6.0000     2.1859    -0.8914    -0.8914     0.0000
  6 C      4.0375     6.0000     1.9625    -0.4609    -0.4609    -0.0000
  7 C      7.1740     6.0000    -1.1740     2.9086     2.9086     0.0000
  8 C      6.1025     6.0000    -0.1025     3.5066     3.5066    -0.0000
  9 C      6.2553     6.0000    -0.2553     3.8533     3.8533    -0.0000
 10 C      6.4524     6.0000    -0.4524     3.9680     3.9680     0.0000
 11 C      6.2317     6.0000    -0.2317     3.4822     3.4822     0.0000
 12 H      0.8709     1.0000     0.1291     0.8765     0.8765     0.0000
 13 H      0.8151     1.0000     0.1849     0.8714     0.8714    -0.0000
 14 H      0.8474     1.0000     0.1526     0.9007     0.9007     0.0000
 15 H      0.9165     1.0000     0.0835     1.0379     1.0379     0.0000
 16 H      0.8085     1.0000     0.1915     0.8854     0.8854    -0.0000
 17 H      0.8953     1.0000     0.1047     1.0533     1.0533    -0.0000
 18 H      0.8749     1.0000     0.1251     1.0089     1.0089    -0.0000
 19 H      0.8530     1.0000     0.1470     0.9282     0.9282    -0.0000
 20 H      1.2615     1.0000    -0.2615     1.0776     1.0776     0.0000
 21 H      1.1871     1.0000    -0.1871     1.2624     1.2624    -0.0000
 22 H      0.5590     1.0000     0.4410     0.7162     0.7162    -0.0000
 23 H      0.4792     1.0000     0.5208     0.5111     0.5111    -0.0000
 24 H      0.5351     1.0000     0.4649     0.6083     0.6083    -0.0000
 25 H      1.2285     1.0000    -0.2285     1.2694     1.2694     0.0000

  Mayer bond orders larger than 0.100000
B(  0-C ,  1-C ) :   1.1565 B(  0-C ,  2-C ) :  -0.1530 B(  0-C ,  4-C ) :  -0.8499 
B(  0-C ,  5-C ) :  -0.1600 B(  0-C ,  6-C ) :   0.3649 B(  0-C , 21-H ) :   0.1478 
B(  0-C , 24-H ) :  -0.1244 B(  0-C , 25-H ) :   1.9462 B(  1-C ,  2-C ) :   1.0950 
B(  1-C ,  3-C ) :   0.2737 B(  1-C ,  6-C ) :  -0.1277 B(  1-C , 21-H ) :  -0.1931 
B(  1-C , 23-H ) :  -0.1043 B(  1-C , 24-H ) :   0.5245 B(  1-C , 25-H ) :  -0.1035 
B(  2-C ,  3-C ) :   1.1011 B(  2-C ,  4-C ) :  -0.1347 B(  2-C ,  5-C ) :  -0.1972 
B(  2-C ,  6-C ) :   0.2854 B(  2-C , 23-H ) :   0.5234 B(  3-C ,  4-C ) :   1.0259 
B(  3-C , 21-H ) :  -0.1317 B(  3-C , 22-H ) :   0.5613 B(  3-C , 25-H ) :  -0.1306 
B(  4-C ,  5-C ) :  -0.2293 B(  4-C ,  6-C ) :   0.3116 B(  4-C ,  7-C ) :   0.1066 
B(  4-C , 21-H ) :   1.9614 B(  4-C , 22-H ) :  -0.1176 B(  5-C ,  6-C ) :  -0.5609 
B(  5-C ,  7-C ) :   0.4727 B(  5-C , 21-H ) :  -0.2903 B(  5-C , 22-H ) :   0.1558 
B(  5-C , 24-H ) :   0.1299 B(  5-C , 25-H ) :  -0.2782 B(  6-C ,  9-C ) :  -0.1217 
B(  6-C , 11-C ) :   0.5077 B(  6-C , 12-H ) :  -0.1091 B(  6-C , 13-H ) :  -0.1181 
B(  6-C , 20-H ) :  -0.6473 B(  6-C , 21-H ) :  -0.2930 B(  6-C , 25-H ) :  -0.2922 
B(  7-C ,  8-C ) :   0.6224 B(  7-C ,  9-C ) :   0.1603 B(  7-C , 11-C ) :  -0.1563 
B(  7-C , 18-H ) :  -0.1007 B(  7-C , 19-H ) :  -0.1557 B(  7-C , 20-H ) :   1.8651 
B(  8-C ,  9-C ) :   0.8860 B(  8-C , 10-C ) :   0.1205 B(  8-C , 18-H ) :   1.0221 
B(  8-C , 19-H ) :   1.0171 B(  8-C , 20-H ) :  -0.1573 B(  9-C , 10-C ) :   0.9024 
B(  9-C , 16-H ) :   0.9395 B(  9-C , 17-H ) :   1.0245 B( 10-C , 11-C ) :   0.9175 
B( 10-C , 14-H ) :   0.9602 B( 10-C , 15-H ) :   1.0556 B( 11-C , 12-H ) :   1.0118 
B( 11-C , 13-H ) :   0.9970 B( 21-H , 25-H ) :   0.2723 

-------
TIMINGS
-------

Total SCF time: 0 days 0 hours 5 min 12 sec 

Total time                  ....     312.345 sec
Sum of individual times     ....     311.713 sec  ( 99.8%)

SCF preparation             ....       1.034 sec  (  0.3%)
Fock matrix formation       ....     294.246 sec  ( 94.2%)
  Startup                   ....       0.935 sec  (  0.3% of F)
  Split-RI-J                ....      37.245 sec  ( 12.7% of F)
  XC integration            ....     234.395 sec  ( 79.7% of F)
    XC Preparation          ....       0.000 sec  (  0.0% of XC)
    Basis function eval.    ....      19.826 sec  (  8.5% of XC)
    Density eval.           ....      69.404 sec  ( 29.6% of XC)
    XC-Functional eval.     ....       2.237 sec  (  1.0% of XC)
    XC-Potential eval.      ....     135.070 sec  ( 57.6% of XC)
  CPCM terms                ....      18.546 sec  (  6.3% of F)
Diagonalization             ....       0.000 sec  (  0.0%)
Density matrix formation    ....       2.223 sec  (  0.7%)
Total Energy calculation    ....       1.375 sec  (  0.4%)
Population analysis         ....       0.446 sec  (  0.1%)
Orbital Transformation      ....       0.962 sec  (  0.3%)
Orbital Orthonormalization  ....       0.000 sec  (  0.0%)
DIIS solution               ....       8.926 sec  (  2.9%)
SOSCF solution              ....       2.501 sec  (  0.8%)
Finished LeanSCF after 312.6 sec

Maximum memory used throughout the entire LEANSCF-calculation: 119.2 MB


-------------------------------------------------------------------------------
                          DFT DISPERSION CORRECTION                            
                                                                               
                              DFTD3 V3.1  Rev 1                                
                          USING Becke-Johnson damping                          
-------------------------------------------------------------------------------
The R2SCAN functional is recognized
Active option DFTDOPT                   ...         4   

molecular C6(AA) [au] = 6691.891401 


            DFT-D V3
 parameters
 s6 scaling factor         :     1.0000 
 a1 scaling factor         :     0.4948 
 s8 scaling factor         :     0.7898 
 a2 scaling factor         :     5.7308 
 ad hoc parameters k1-k3   :    16.0000     1.3333    -4.0000 

 Edisp/kcal,au: -5.717888948448  -0.009112035077 
 E6   /kcal   :  -4.504384452 
 E8   /kcal   :  -1.213504496 
 % E8         :  21.222946212 

-------------------------   ----------------
Dispersion correction           -0.009112035
-------------------------   ----------------


-------------------------   --------------------
FINAL SINGLE POINT ENERGY      -465.606806757231
-------------------------   --------------------



           ************************************************************
           *        Program running with 4 parallel MPI-processes     *
           *              working on a common directory               *
           ************************************************************

------------------------------------------------------------------------------
                              ORCA PROPERTY CALCULATIONS
------------------------------------------------------------------------------

GBWName                                 ... cs_rporg_019_red_solv_03.gbw
Number of atoms                         ...     26
Number of basis functions               ...    946
Max core memory                         ...   3000 MB

Electric properties:
Dipole moment                           ... YES
Quadrupole moment                       ...  NO
Static polarizability (Dipole/Dipole)   ...  NO
Static polarizability (Dipole/Quad.)    ...  NO
Static polarizability (Quad./Quad.)     ...  NO
Static polarizability (Velocity)        ...  NO

Atomic electric properties:
Dipole moment                           ...  NO
Quadrupole moment                       ...  NO
Static polarizability                   ...  NO

Choice of electric origin               ... Center of mass
Position of electric origin             ...     0.006694    -0.006313    -0.005137

General magnetic properties:
Magnetizability                         ...  NO

EPR properties:
g-Tensor (aka g-matrix)                 ...  NO
Zero-Field splitting spin-orbit         ...  NO
Zero-field splitting spin-spin          ...  NO
Hyperfine couplings                     ...  NO (   0 nuclei)
Quadrupole couplings                    ...  NO (   0 nuclei)
Contact density                         ...  NO (   0 nuclei)

NMR properties:
Chemical shifts                         ...  NO (   0 nuclei)
Spin-rotation constants                 ...  NO (   0 nuclei)
Spin-spin couplings                     ...  NO (   0 nuclei,    0 pairs)

Choice of magnetic origin               ... GIAO
Position of magnetic origin             ...     0.000000     0.000000     0.000000

Properties with geometric perturbations:
SCF Hessian                             ...  NO
IR spectrum                             ...  NO
VCD spectrum                            ...  NO
X-ray spectroscopy properties:
SCF XES/XAS/RIXS spectra                ...  NO


-------------
DIPOLE MOMENT
-------------

Method             : SCF
Type of density    : Electron Density
Multiplicity       :   1
Irrep              :   0
Energy             :  -465.5976947221545288 Eh
Relativity type    : 
Basis              : AO
                                X                 Y                 Z
Electronic contribution:      8.858519450      -1.027190667       0.287770651
Nuclear contribution   :     -9.297439936       1.076513750      -0.312023061
                        -----------------------------------------
Total Dipole Moment    :     -0.438920486       0.049323083      -0.024252409
                        -----------------------------------------
Magnitude (a.u.)       :      0.442348437
Magnitude (Debye)      :      1.124360372



--------------------
Rotational spectrum 
--------------------
 
Rotational constants in cm-1:             0.085540             0.017249             0.015002 
Rotational constants in MHz :          2564.428727           517.115238           449.743228 

Dipole components along the rotational axes: 
x,y,z [a.u.] :    -0.439048     0.048869    -0.022815 
x,y,z [Debye]:    -1.115972     0.124215    -0.057992 

 

Dipole moment calculation done in   0.1 sec 

Maximum memory used throughout the entire PROP-calculation: 97.5 MB

--------------------------------
SUGGESTED CITATIONS FOR THIS RUN
--------------------------------

Below you find a list of papers that are relevant to this ORCA run
We neither can nor want to force you to cite these papers, but we appreciate if you do
You receive ORCA, which is the product of decades of hard work by many enthusiastic individuals, for free
The only thing we kindly ask in return is that you cite our papers,
We deeply appreciate it, if you show your appreciation for ORCA by not just citing the generic ORCA reference.

Please note that relegating all ORCA citations to the supporting information does *not* help us.
SI sections are not indexed - citations you put there will not count into any citation statistics
But we need these citations in order to attract the funding resources that allow us to do what we are doing

Therefore, if you are a happy ORCA user, please consider citing a few of the papers listed below in the main body of your paper

In addition to the list printed below, the program has created the file cs_rporg_019_red_solv_03.bibtex that contains the list in bibtex format
You can import this file easily into all common literature databanks and citation aid programs


List of essential papers. We consider these as the minimum necessary citations

  1. Neese,F.
     Software update: the ORCA program system, version 5.0
     WIRES Comput. Molec. Sci., 2022 12(1)e1606
     doi.org/10.1002/wcms.1606

List of papers to cite with high priority. The work reported in these papers was absolutely
necessary for this run to complete.
Our perspective: the developers of density functionals and basis sets usually get cited in chemistry papers
Good! But without the algorithms to do something with them, the functionals or basis sets would not do anything.
Hence, in our opinion, the algorithm design and method developments papers are equally worthy of getting cited

  1. Neese,F.
     An improvement of the resolution of the identity approximation for the formation of the Coulomb matrix
     J. Comp. Chem., 2003 24(14)1740-1747
     doi.org/10.1002/jcc.10318
  2. Garcia-Rates,M.; Neese,F.
     Effect of the Solute Cavity on the Solvation Energy and its Derivatives within the Framework of the Gaussian Charge Scheme
     J. Comput. Chem., 2020 41 922-939
     doi.org/10.1002/jcc.26139
  3. Neese,F.
     The SHARK Integral Generation and Digestion System
     J. Comp. Chem., 2022  1-16
     doi.org/10.1002/jcc.26942
  4. Lehtola,S.; Steigemann,C.; Oliveira,M.; Marques,M.
     Recent developments in Libxc - A comprehensive library of functionals for density functional theory
     Software X, 2018 7 
     doi.org/10.1016/j.softx.2017.11.002
  5. Grimme,S.; Antony,J.; Ehrlich,S.; Krieg,H.
     A consistent and accurate ab initio parametrization of density functional dispersion correction (DFT-D) for the 94 elements H-Pu
     J. Chem. Phys., 2010 132 154104-XXXX
     doi.org/10.1063/1.3382344
  6. Grimme,S.; Ehrlich,S.; Goerigk,L.
     Effect of the damping function in dispersion corrected density functional theory
     J. Comput. Chem., 2011 32(7)1456-1465
     doi.org/10.1002/jcc.21759

List of suggested additional citations. These are papers that are important in the 'surrounding' of 
of this run, or papers that preceded the highly important papers. If you like your results we are grateful for a citation.

  1. Neese,F.
     The ORCA program system
     WIRES Comput. Molec. Sci., 2012 2(1)73-78
     doi.org/10.1002/wcms.81
  2. Neese,F.
     Software update: the ORCA program system, version 4.0
     WIRES Comput. Molec. Sci., 2018 8(1)1-6
     doi.org/10.1002/wcms.1327
  3. Neese,F.; Wennmohs,F.; Becker,U.; Riplinger,C.
     The ORCA quantum chemistry program package
     J. Chem. Phys., 2020 152 Art. No. L224108
     doi.org/10.1063/5.0004608

List of optional additional citations

  1. Neese,F.
     Approximate second-order SCF convergence for spin unrestricted wavefunctions
     Chem. Phys. Lett., 2000 325(1-3)93-98
     doi.org/10.1016/s0009-2614(00)00662-x

Timings for individual modules:

Sum of individual times          ...      342.681 sec (=   5.711 min)
Startup calculation              ...       19.531 sec (=   0.326 min)   5.7 %
SCF iterations                   ...      321.010 sec (=   5.350 min)  93.7 %
Property calculations            ...        2.140 sec (=   0.036 min)   0.6 %
                             ****ORCA TERMINATED NORMALLY****
TOTAL RUN TIME: 0 days 0 hours 5 minutes 46 seconds 165 msec
