 vasp.6.4.2 20Jul23 (build Oct 03 2024 14:39:03) complex                        
  
 executed on             LinuxIFC date 2024.10.22  11:32:49
 running   60 mpi-ranks, on    1 nodes
 distrk:  each k-point on   60 cores,    1 groups
 distr:  one band on NCORE=  10 cores,    6 groups


--------------------------------------------------------------------------------------------------------


 INCAR:
   SYSTEM = 103_red
   ISTART = 1
   ICHARG = 2
   INIWAV = 1
   METAGGA = R2SCAN
   LASPH = .TRUE.
   NELM = 100
   ALGO = fast   	
   ISPIN = 2
   EDIFF = 1E-05
   ISMEAR = 0
   SIGMA = 0.05
   PREC = accurate
   ENCUT = 500
   LREAL = auto  	
   LWAVE = .TRUE.
   LCHARG = .FALSE.
   LAECHG = .FALSE.
   LVHAR = .FALSE.
   LVTOT = .FALSE.
   EDIFFG = -0.02
   IBRION = 2
   NSW = 500
   ISIF = 2
   POTIM = 0.5
   IVDW = 12
   VDW_A1 = 0.49484001
   VDW_S8 = 0.78981345
   VDW_A2 = 5.73083694
   LPLANE = .TRUE.
   NCORE = 10
   LSCALU = .FALSE.
   NSIM = 4
   LSOL = .TRUE.
   EB_K = 35.6880
   LAMBDA_D_K = 3.04
   NELECT = 63
   TAU = 0

 POTCAR:    PAW_PBE C 08Apr2002                   
 POTCAR:    PAW_PBE N 08Apr2002                   
 POTCAR:    PAW_PBE H 15Jun2001                   
 -----------------------------------------------------------------------------
|                                                                             |
|           W    W    AA    RRRRR   N    N  II  N    N   GGGG   !!!           |
|           W    W   A  A   R    R  NN   N  II  NN   N  G    G  !!!           |
|           W    W  A    A  R    R  N N  N  II  N N  N  G       !!!           |
|           W WW W  AAAAAA  RRRRR   N  N N  II  N  N N  G  GGG   !            |
|           WW  WW  A    A  R   R   N   NN  II  N   NN  G    G                |
|           W    W  A    A  R    R  N    N  II  N    N   GGGG   !!!           |
|                                                                             |
|     You use a magnetic or noncollinear calculation, but did not specify     |
|     the initial magnetic moment with the MAGMOM tag. Note that a            |
|     default of 1 will be used for all atoms. This ferromagnetic setup       |
|     may break the symmetry of the crystal, in particular it may rule        |
|     out finding an antiferromagnetic solution. Thence, we recommend         |
|     setting the initial magnetic moment manually or verifying carefully     |
|     that this magnetic setup is desired.                                    |
|                                                                             |
 -----------------------------------------------------------------------------

 POTCAR:    PAW_PBE C 08Apr2002                   
   VRHFIN =C: s2p2                                                                                  
   LEXCH  = PE                                                                                      
   EATOM  =   147.1560 eV,   10.8157 Ry                                                             
                                                                                                    
   TITEL  = PAW_PBE C 08Apr2002                                                                     
   LULTRA =        F    use ultrasoft PP ?                                                          
   IUNSCR =        1    unscreen: 0-lin 1-nonlin 2-no                                               
   RPACOR =    1.200    partial core radius                                                         
   POMASS =   12.011; ZVAL   =    4.000    mass and valenz                                          
   RCORE  =    1.500    outmost cutoff radius                                                       
   RWIGS  =    1.630; RWIGS  =    0.863    wigner-seitz radius (au A)                               
   ENMAX  =  400.000; ENMIN  =  300.000 eV                                                          
   ICORE  =        2    local potential                                                             
   LCOR   =        T    correct aug charges                                                         
   LPAW   =        T    paw PP                                                                      
   EAUG   =  644.873                                                                                
   DEXC   =    0.000                                                                                
   RMAX   =    1.529    core radius for proj-oper                                                   
   RAUG   =    1.300    factor for augmentation sphere                                              
   RDEP   =    1.501    radius for radial grids                                                     
   RDEPT  =    1.300    core radius for aug-charge                                                  
                                                                                                    
   Atomic configuration                                                                             
    4 entries                                                                                       
     n  l   j            E        occ.                                                              
     1  0  0.50      -273.3789   2.0000                                                             
     2  0  0.50       -13.7508   2.0000                                                             
     2  1  0.50        -5.2854   2.0000                                                             
     3  2  1.50        -5.4423   0.0000                                                             
   Description                                                                                      
     l       E           TYP  RCUT    TYP  RCUT                                                     
     0    -13.7508458     23  1.200                                                                 
     0     -8.2022199     23  1.200                                                                 
     1     -5.2854383     23  1.500                                                                 
     1     34.0145650     23  1.500                                                                 
     2     -5.4423304      7  1.500                                                                 
  local pseudopotential read in
  partial core-charges read in
  partial kinetic energy density read in
  atomic valenz-charges read in
  non local Contribution for L=           0  read in
    real space projection operators read in
  non local Contribution for L=           0  read in
    real space projection operators read in
  non local Contribution for L=           1  read in
    real space projection operators read in
  non local Contribution for L=           1  read in
    real space projection operators read in
    PAW grid and wavefunctions read in
 
   number of l-projection  operators is LMAX  =           4
   number of lm-projection operators is LMMAX =           8
 
 POTCAR:    PAW_PBE N 08Apr2002                   
   VRHFIN =N: s2p3                                                                                  
   LEXCH  = PE                                                                                      
   EATOM  =   264.5486 eV,   19.4438 Ry                                                             
                                                                                                    
   TITEL  = PAW_PBE N 08Apr2002                                                                     
   LULTRA =        F    use ultrasoft PP ?                                                          
   IUNSCR =        1    unscreen: 0-lin 1-nonlin 2-no                                               
   RPACOR =    1.200    partial core radius                                                         
   POMASS =   14.001; ZVAL   =    5.000    mass and valenz                                          
   RCORE  =    1.500    outmost cutoff radius                                                       
   RWIGS  =    1.400; RWIGS  =    0.741    wigner-seitz radius (au A)                               
   ENMAX  =  400.000; ENMIN  =  300.000 eV                                                          
   ICORE  =        2    local potential                                                             
   LCOR   =        T    correct aug charges                                                         
   LPAW   =        T    paw PP                                                                      
   EAUG   =  627.112                                                                                
   DEXC   =    0.000                                                                                
   RMAX   =    1.529    core radius for proj-oper                                                   
   RAUG   =    1.300    factor for augmentation sphere                                              
   RDEP   =    1.514    radius for radial grids                                                     
   RDEPT  =    1.338    core radius for aug-charge                                                  
                                                                                                    
   Atomic configuration                                                                             
    4 entries                                                                                       
     n  l   j            E        occ.                                                              
     1  0  0.50      -384.7179   2.0000                                                             
     2  0  0.50       -18.5828   2.0000                                                             
     2  1  0.50        -7.0898   3.0000                                                             
     3  2  1.50        -6.8029   0.0000                                                             
   Description                                                                                      
     l       E           TYP  RCUT    TYP  RCUT                                                     
     0    -18.5828119     23  1.200                                                                 
     0    -13.5018863     23  1.200                                                                 
     1     -7.0897853     23  1.500                                                                 
     1      9.5240782     23  1.500                                                                 
     2     -6.8029130      7  1.500                                                                 
  local pseudopotential read in
  partial core-charges read in
  partial kinetic energy density read in
  atomic valenz-charges read in
  non local Contribution for L=           0  read in
    real space projection operators read in
  non local Contribution for L=           0  read in
    real space projection operators read in
  non local Contribution for L=           1  read in
    real space projection operators read in
  non local Contribution for L=           1  read in
    real space projection operators read in
    PAW grid and wavefunctions read in
 
   number of l-projection  operators is LMAX  =           4
   number of lm-projection operators is LMMAX =           8
 
 POTCAR:    PAW_PBE H 15Jun2001                   
   VRHFIN =H: ultrasoft test                                                                        
   LEXCH  = PE                                                                                      
   EATOM  =    12.4884 eV,    0.9179 Ry                                                             
                                                                                                    
   TITEL  = PAW_PBE H 15Jun2001                                                                     
   LULTRA =        F    use ultrasoft PP ?                                                          
   IUNSCR =        0    unscreen: 0-lin 1-nonlin 2-no                                               
   RPACOR =    0.000    partial core radius                                                         
   POMASS =    1.000; ZVAL   =    1.000    mass and valenz                                          
   RCORE  =    1.100    outmost cutoff radius                                                       
   RWIGS  =    0.700; RWIGS  =    0.370    wigner-seitz radius (au A)                               
   ENMAX  =  250.000; ENMIN  =  200.000 eV                                                          
   RCLOC  =    0.701    cutoff for local pot                                                        
   LCOR   =        T    correct aug charges                                                         
   LPAW   =        T    paw PP                                                                      
   EAUG   =  400.000                                                                                
   RMAX   =    1.123    core radius for proj-oper                                                   
   RAUG   =    1.200    factor for augmentation sphere                                              
   RDEP   =    1.112    radius for radial grids                                                     
   RDEPT  =    0.926    core radius for aug-charge                                                  
                                                                                                    
   Atomic configuration                                                                             
    2 entries                                                                                       
     n  l   j            E        occ.                                                              
     1  0  0.50        -6.4927   1.0000                                                             
     2  1  0.50        -3.4015   0.0000                                                             
   Description                                                                                      
     l       E           TYP  RCUT    TYP  RCUT                                                     
     0     -6.4927494     23  1.100                                                                 
     0      6.8029130     23  1.100                                                                 
     1     -4.0817478     23  1.100                                                                 
  local pseudopotential read in
  atomic valenz-charges read in
  non local Contribution for L=           0  read in
    real space projection operators read in
  non local Contribution for L=           0  read in
    real space projection operators read in
  non local Contribution for L=           1  read in
    real space projection operators read in
    PAW grid and wavefunctions read in
 
   number of l-projection  operators is LMAX  =           3
   number of lm-projection operators is LMMAX =           5
 
 Optimization of the real space projectors (new method)

 maximal supplied QI-value         = 25.13
 optimisation between [QCUT,QGAM] = [ 11.31, 22.87] = [ 35.82,146.48] Ry 
 Optimized for a Real-space Cutoff    1.03 Angstroem

   l    n(q)    QCUT    max X(q) W(low)/X(q) W(high)/X(q)  e(spline) 
   0      7    11.310   115.676    0.20E-03    0.90E-03    0.20E-06
   0      7    11.310    87.132    0.20E-03    0.89E-03    0.19E-06
   1      6    11.310     4.429    0.16E-03    0.28E-03    0.12E-06
   1      6    11.310     2.733    0.12E-03    0.21E-03    0.99E-07
 Optimization of the real space projectors (new method)

 maximal supplied QI-value         = 25.13
 optimisation between [QCUT,QGAM] = [ 11.31, 22.87] = [ 35.82,146.48] Ry 
 Optimized for a Real-space Cutoff    1.43 Angstroem

   l    n(q)    QCUT    max X(q) W(low)/X(q) W(high)/X(q)  e(spline) 
   0     10    11.310    79.467    0.42E-04    0.81E-04    0.60E-06
   0     10    11.310    66.151    0.40E-04    0.81E-04    0.60E-06
   1      9    11.310    17.416    0.14E-03    0.88E-04    0.14E-05
   1      9    11.310    12.382    0.15E-03    0.93E-04    0.14E-05
 Optimization of the real space projectors (new method)

 maximal supplied QI-value         = 34.20
 optimisation between [QCUT,QGAM] = [ 11.29, 22.57] = [ 35.68,142.71] Ry 
 Optimized for a Real-space Cutoff    1.20 Angstroem

   l    n(q)    QCUT    max X(q) W(low)/X(q) W(high)/X(q)  e(spline) 
   0      8    11.287    19.460    0.22E-03    0.50E-03    0.19E-06
   0      8    11.287    12.209    0.21E-03    0.48E-03    0.18E-06
   1      8    11.287     4.655    0.21E-03    0.11E-04    0.26E-06
  PAW_PBE C 08Apr2002                   :
 energy of atom  1       EATOM= -147.1560
 kinetic energy error for atom=    0.0076 (will be added to EATOM!!)
  PAW_PBE N 08Apr2002                   :
 energy of atom  2       EATOM= -264.5486
 kinetic energy error for atom=    0.0138 (will be added to EATOM!!)
  PAW_PBE H 15Jun2001                   :
 energy of atom  3       EATOM=  -12.4884
 kinetic energy error for atom=    0.0020 (will be added to EATOM!!)
 
 
 POSCAR: C N H
  positions in direct lattice
  velocities in cartesian coordinates

 METAGGA = R2SCAN                                      LMAXTAU =  6    LMIXTAU =  F

 exchange correlation table for  LEXCH =        8
   RHO(1)=    0.500       N(1)  =     2000
   RHO(2)=  100.500       N(2)  =     4000
 


--------------------------------------------------------------------------------------------------------


 ion  position               nearest neighbor table
   1  0.441  0.469  0.511-  24 1.09   2 1.39   6 1.42
   2  0.409  0.483  0.510-  23 1.09   1 1.39   3 1.40
   3  0.404  0.515  0.498-  22 1.09   4 1.40   2 1.40
   4  0.432  0.534  0.486-  21 1.09   5 1.39   3 1.40
   5  0.464  0.521  0.487-  20 1.09   4 1.39   6 1.42
   6  0.469  0.488  0.500-  13 1.38   5 1.42   1 1.42
   7  0.531  0.488  0.500-  13 1.38   8 1.42  12 1.42
   8  0.536  0.521  0.513-  18 1.09   9 1.39   7 1.42
   9  0.568  0.534  0.514-  17 1.09   8 1.39  10 1.40
  10  0.596  0.515  0.502-  16 1.09   9 1.40  11 1.40
  11  0.591  0.483  0.490-  15 1.09  12 1.39  10 1.40
  12  0.559  0.469  0.489-  14 1.09  11 1.39   7 1.42
  13  0.500  0.473  0.500-  19 1.02   7 1.38   6 1.38
  14  0.554  0.444  0.479-  12 1.09
  15  0.612  0.468  0.480-  11 1.09
  16  0.621  0.525  0.503-  10 1.09
  17  0.573  0.559  0.524-   9 1.09
  18  0.516  0.535  0.524-   8 1.09
  19  0.500  0.448  0.500-  13 1.02
  20  0.484  0.535  0.476-   5 1.09
  21  0.427  0.559  0.476-   4 1.09
  22  0.379  0.525  0.497-   3 1.09
  23  0.388  0.468  0.520-   2 1.09
  24  0.446  0.444  0.521-   1 1.09
 
  LATTYP: Found a simple cubic cell.
 ALAT       =    40.0000000000
  
  Lattice vectors:
  
 A1 = (  40.0000000000,   0.0000000000,   0.0000000000)
 A2 = (   0.0000000000,  40.0000000000,   0.0000000000)
 A3 = (   0.0000000000,   0.0000000000,  40.0000000000)


Analysis of symmetry for initial positions (statically):
=====================================================================
 Subroutine PRICEL returns:
 Original cell was already a primitive cell.
 

 Routine SETGRP: Setting up the symmetry group for a 
 simple cubic supercell.


 Subroutine GETGRP returns: Found  2 space group operations
 (whereof  2 operations were pure point group operations)
 out of a pool of 48 trial point group operations.


The static configuration has the point symmetry C_2 .


Analysis of symmetry for dynamics (positions and initial velocities):
=====================================================================
 Subroutine PRICEL returns:
 Original cell was already a primitive cell.
 

 Routine SETGRP: Setting up the symmetry group for a 
 simple cubic supercell.


 Subroutine GETGRP returns: Found  2 space group operations
 (whereof  2 operations were pure point group operations)
 out of a pool of 48 trial point group operations.


The dynamic configuration has the point symmetry C_2 .


Analysis of constrained symmetry for selective dynamics:
=====================================================================
 Subroutine PRICEL returns:
 Original cell was already a primitive cell.
 

 Routine SETGRP: Setting up the symmetry group for a 
 simple cubic supercell.


 Subroutine GETGRP returns: Found  2 space group operations
 (whereof  2 operations were pure point group operations)
 out of a pool of 48 trial point group operations.


The constrained configuration has the point symmetry C_2 .


Analysis of structural, dynamic, and magnetic symmetry:
=====================================================================
 Subroutine PRICEL returns:
 Original cell was already a primitive cell.
 

 Routine SETGRP: Setting up the symmetry group for a 
 simple cubic supercell.


 Subroutine GETGRP returns: Found  2 space group operations
 (whereof  2 operations were pure point group operations)
 out of a pool of 48 trial point group operations.


The overall configuration has the point symmetry C_2 .


 Subroutine INISYM returns: Found  2 space group operations
 (whereof  2 operations are pure point group operations),
 and found     1 'primitive' translations


----------------------------------------------------------------------------------------

                                     Primitive cell                                     

  volume of cell :   64000.0000

  direct lattice vectors                    reciprocal lattice vectors
    40.000000000  0.000000000  0.000000000     0.025000000  0.000000000  0.000000000
     0.000000000 40.000000000  0.000000000     0.000000000  0.025000000  0.000000000
     0.000000000  0.000000000 40.000000000     0.000000000  0.000000000  0.025000000

  length of vectors
    40.000000000 40.000000000 40.000000000     0.025000000  0.025000000  0.025000000

  position of ions in fractional coordinates (direct lattice)
     0.441327817  0.468866964  0.510937304
     0.409485009  0.482517090  0.510418230
     0.404411881  0.514998448  0.498068724
     0.431537498  0.533817461  0.486118893
     0.463658413  0.520764477  0.486738464
     0.468849182  0.488142510  0.499560226
     0.531150818  0.488142510  0.500438774
     0.536341587  0.520764477  0.513260536
     0.568462502  0.533817461  0.513881107
     0.595588119  0.514997448  0.501931276
     0.590514991  0.482516090  0.489582770
     0.558672183  0.468865964  0.489063696
     0.500000000  0.473316117  0.500000000
     0.554347215  0.443757679  0.479384193
     0.611616107  0.467891945  0.480457465
     0.620752764  0.525414119  0.502818479
     0.572632443  0.558598460  0.524428037
     0.515601743  0.534704990  0.524014641
     0.500000000  0.447736599  0.500000000
     0.484398257  0.534704990  0.475984359
     0.427367557  0.558598460  0.475571963
     0.379247236  0.525415119  0.497182521
     0.388383893  0.467892945  0.519543535
     0.445652785  0.443757679  0.520615807

  ion indices of the primitive-cell ions
   primitive index   ion index
                 1           1
                 2           2
                 3           3
                 4           4
                 5           5
                 6           6
                 7           7
                 8           8
                 9           9
                10          10
                11          11
                12          12
                13          13
                14          14
                15          15
                16          16
                17          17
                18          18
                19          19
                20          20
                21          21
                22          22
                23          23
                24          24

----------------------------------------------------------------------------------------

 
 
 KPOINTS: K-Point Grid                            

Automatic generation of k-mesh.
 Grid dimensions read from file:
 generate k-points for:    1    1    1

 Generating k-lattice:

  Cartesian coordinates                     Fractional coordinates (reciprocal lattice)
     0.025000000  0.000000000  0.000000000     1.000000000  0.000000000  0.000000000
     0.000000000  0.025000000  0.000000000     0.000000000  1.000000000  0.000000000
     0.000000000  0.000000000  0.025000000     0.000000000  0.000000000  1.000000000

  Length of vectors
     0.025000000  0.025000000  0.025000000

  Shift w.r.t. Gamma in fractional coordinates (k-lattice)
     0.000000000  0.000000000  0.000000000

 
 Subroutine IBZKPT returns following result:
 ===========================================
 
 Found      1 irreducible k-points:
 
 Following reciprocal coordinates:
            Coordinates               Weight
  0.000000  0.000000  0.000000      1.000000
 
 Following cartesian coordinates:
            Coordinates               Weight
  0.000000  0.000000  0.000000      1.000000
 


--------------------------------------------------------------------------------------------------------




 Dimension of arrays:
   k-points           NKPTS =      1   k-points in BZ     NKDIM =      1   number of bands    NBANDS=     60
   number of dos      NEDOS =    301   number of ions     NIONS =     24
   non local maximal  LDIM  =      4   non local SUM 2l+1 LMDIM =      8
   total plane-waves  NPLWV = ******
   max r-space proj   IRMAX =   4928   max aug-charges    IRDMAX=   5085
   dimension x,y,z NGX =   294 NGY =  294 NGZ =  294
   dimension x,y,z NGXF=   588 NGYF=  588 NGZF=  588
   support grid    NGXF=   588 NGYF=  588 NGZF=  588
   ions per type =              12   1  11
   NGX,Y,Z   is equivalent  to a cutoff of  12.22, 12.22, 12.22 a.u.
   NGXF,Y,Z  is equivalent  to a cutoff of  24.44, 24.44, 24.44 a.u.

 SYSTEM =  103_red                                 
 POSCAR =  C N H                                   

 Startparameter for this run:
   NWRITE =      2    write-flag & timer
   PREC   = accura    normal or accurate (medium, high low for compatibility)
   ISTART =      1    job   : 0-new  1-cont  2-samecut
   ICHARG =      2    charge: 1-file 2-atom 10-const
   ISPIN  =      2    spin polarized calculation?
   LNONCOLLINEAR =      F non collinear calculations
   LSORBIT =      F    spin-orbit coupling
   INIWAV =      1    electr: 0-lowe 1-rand  2-diag
   LASPH  =      T    aspherical Exc in radial PAW
 Electronic Relaxation 1
   ENCUT  =  500.0 eV  36.75 Ry    6.06 a.u.  72.93 72.93 72.93*2*pi/ulx,y,z
   ENINI  =  500.0     initial cutoff
   ENAUG  =  644.9 eV  augmentation charge cutoff
   NELM   =    100;   NELMIN=  2; NELMDL=  0     # of ELM steps 
   EDIFF  = 0.1E-04   stopping-criterion for ELM
   LREAL  =      T    real-space projection
   NLSPLINE    = F    spline interpolate recip. space projectors
   LCOMPAT=      F    compatible to vasp.4.4
   GGA_COMPAT  = T    GGA compatible to vasp.4.4-vasp.4.6
   LMAXPAW     = -100 max onsite density
   LMAXMIX     =    2 max onsite mixed and CHGCAR
   VOSKOWN=      0    Vosko Wilk Nusair interpolation
   ROPT   =   -0.00025  -0.00025  -0.00025
 Ionic relaxation
   EDIFFG = -.2E-01   stopping-criterion for IOM
   NSW    =    500    number of steps for IOM
   NBLOCK =      1;   KBLOCK =    500    inner block; outer block 
   IBRION =      2    ionic relax: 0-MD 1-quasi-New 2-CG
   NFREE  =      1    steps in history (QN), initial steepest desc. (CG)
   ISIF   =      2    stress and relaxation
   IWAVPR =     11    prediction:  0-non 1-charg 2-wave 3-comb
   ISYM   =      2    0-nonsym 1-usesym 2-fastsym
   LCORR  =      T    Harris-Foulkes like correction to forces

   POTIM  = 0.5000    time-step for ionic-motion
   TEIN   =    0.0    initial temperature
   TEBEG  =    0.0;   TEEND  =   0.0 temperature during run
   SMASS  =  -3.00    Nose mass-parameter (am)
   estimated Nose-frequenzy (Omega)   =  0.10E-29 period in steps = 0.13E+47 mass=  -0.366E-25a.u.
   SCALEE = 1.0000    scale energy and forces
   NPACO  =    256;   APACO  = 10.0  distance and # of slots for P.C.
   PSTRESS=    0.0 pullay stress

  Mass of Ions in am
   POMASS =  12.01 14.00  1.00
  Ionic Valenz
   ZVAL   =   4.00  5.00  1.00
  Atomic Wigner-Seitz radii
   RWIGS  =  -1.00 -1.00 -1.00
  virtual crystal weights 
   VCA    =   1.00  1.00  1.00
   NELECT =      63.0000    total number of electrons
   NUPDOWN=      -1.0000    fix difference up-down

 DOS related values:
   EMIN   =  10.00;   EMAX   =-10.00  energy-range for DOS
   EFERMI =   0.00;   METHOD = LEGACY      
   ISMEAR =     0;   SIGMA  =   0.05  broadening in eV -4-tet -1-fermi 0-gaus

 Electronic relaxation 2 (details)
   IALGO  =     68    algorithm
   LDIAG  =      T    sub-space diagonalisation (order eigenvalues)
   LSUBROT=      F    optimize rotation matrix (better conditioning)
   TURBO    =      0    0=normal 1=particle mesh
   IRESTART =      0    0=no restart 2=restart with 2 vectors
   NREBOOT  =      0    no. of reboots
   NMIN     =      0    reboot dimension
   EREF     =   0.00    reference energy to select bands
   IMIX   =      4    mixing-type and parameters
     AMIX     =   0.40;   BMIX     =  1.00
     AMIX_MAG =   1.60;   BMIX_MAG =  1.00
     AMIN     =   0.10
     WC   =   100.;   INIMIX=   1;  MIXPRE=   1;  MAXMIX= -45

 Intra band minimization:
   WEIMIN = 0.0010     energy-eigenvalue tresh-hold
   EBREAK =  0.42E-07  absolut break condition
   DEPER  =   0.30     relativ break condition  

   TIME   =   0.40     timestep for ELM

  volume/ion in A,a.u.               =    2666.67     17995.55
  Fermi-wavevector in a.u.,A,eV,Ry     =   0.162853  0.307747  0.360840  0.026521
  Thomas-Fermi vector in A             =   0.860501
 
 Write flags
   LWAVE        =      T    write WAVECAR
   LDOWNSAMPLE  =      F    k-point downsampling of WAVECAR
   LCHARG       =      F    write CHGCAR
   LVTOT        =      F    write LOCPOT, total local potential
   LVHAR        =      F    write LOCPOT, Hartree potential only
   LELF         =      F    write electronic localiz. function (ELF)
   LORBIT       =      0    0 simple, 1 ext, 2 COOP (PROOUT), +10 PAW based schemes


 Dipole corrections
   LMONO  =      F    monopole corrections only (constant potential shift)
   LDIPOL =      F    correct potential (dipole corrections)
   IDIPOL =      0    1-x, 2-y, 3-z, 4-all directions 
   EPSILON=  1.0000000 bulk dielectric constant

 Exchange correlation treatment:
   GGA     =    --    GGA type
   LEXCH   =     8    internal setting for exchange type
   LIBXC   =     F    Libxc                    
   VOSKOWN =     0    Vosko Wilk Nusair interpolation
   LHFCALC =     F    Hartree Fock is set to
   LHFONE  =     F    Hartree Fock one center treatment
   AEXX    =    0.0000 exact exchange contribution

 Linear response parameters
   LEPSILON=     F    determine dielectric tensor
   LRPA    =     F    only Hartree local field effects (RPA)
   LNABLA  =     F    use nabla operator in PAW spheres
   LVEL    =     F    velocity operator in full k-point grid
   CSHIFT  =0.1000    complex shift for real part using Kramers Kronig
   OMEGAMAX=  -1.0    maximum frequency
   DEG_THRESHOLD= 0.2000000E-02 threshold for treating states as degnerate
   RTIME   =   -0.100 relaxation time in fs
  (WPLASMAI=    0.000 imaginary part of plasma frequency in eV, 0.658/RTIME)
   DFIELD  = 0.0000000 0.0000000 0.0000000 field for delta impulse in time
 
  Optional k-point grid parameters
   LKPOINTS_OPT  =     F    use optional k-point grid
   KPOINTS_OPT_MODE=     1    mode for optional k-point grid
 
 Orbital magnetization related:
   ORBITALMAG=     F  switch on orbital magnetization
   LCHIMAG   =     F  perturbation theory with respect to B field
   DQ        =  0.001000  dq finite difference perturbation B field
   LLRAUG    =     F  two centre corrections for induced B field
   LBONE     =     F  B-component reconstruction in AE one-centre
   LVGVCALC  =     T  calculate vGv susceptibility
   LVGVAPPL  =     F  apply vGv susceptibility instead of pGv for G=0

 Random number generation:
   RANDOM_GENERATOR = DEFAULT
   PCG_SEED         = not used
 Solvation model:
   LSOL    =     T         switch on solvation model
   EB_K    = 35.688000     relative permittivity of the bulk solvent
   SIGMA_K =  0.600000     width of the dielectric cavity
   NC_K    =  0.002500     cutoff charge density
   TAU     =  0.000000     cavity surface tension
   LAMBDA_D_K    =  3.040000     Debye length in Angstroms
   LRHOB     =     F     write boundcharge  density
   LRHOION     =     F     write ioniccharge density



--------------------------------------------------------------------------------------------------------


 conjugate gradient relaxation of ions
   using selective dynamics as specified on POSCAR
 charge density and potential will be updated during run
 spin polarized calculation
 RMM-DIIS sequential band-by-band and
  variant of blocked Davidson during initial phase
 perform sub-space diagonalisation
    before iterative eigenvector-optimisation
 modified Broyden-mixing scheme, WC =      100.0
 initial mixing is a Kerker type mixing with AMIX =  0.4000 and BMIX =      1.0000
 Hartree-type preconditioning will be used
 using additional bands           28
 real space projection scheme for non local part
 use partial core corrections
 calculate Harris-corrections to forces 
   (improved forces if not selfconsistent)
 use gradient corrections 
 use of overlap-Matrix (Vanderbilt PP)
 Gauss-broadening in eV      SIGMA  =   0.05


--------------------------------------------------------------------------------------------------------


  energy-cutoff  :      500.00
  volume of cell :    64000.00
      direct lattice vectors                 reciprocal lattice vectors
    40.000000000  0.000000000  0.000000000     0.025000000  0.000000000  0.000000000
     0.000000000 40.000000000  0.000000000     0.000000000  0.025000000  0.000000000
     0.000000000  0.000000000 40.000000000     0.000000000  0.000000000  0.025000000

  length of vectors
    40.000000000 40.000000000 40.000000000     0.025000000  0.025000000  0.025000000


 
 old parameters found on file WAVECAR:
  energy-cutoff  :      500.00
  volume of cell :    64000.00
      direct lattice vectors                 reciprocal lattice vectors
    40.000000000  0.000000000  0.000000000     0.025000000  0.000000000  0.000000000
     0.000000000 40.000000000  0.000000000     0.000000000  0.025000000  0.000000000
     0.000000000  0.000000000 40.000000000     0.000000000  0.000000000  0.025000000

  length of vectors

 
 k-points in units of 2pi/SCALE and weight: K-Point Grid                            
   0.00000000  0.00000000  0.00000000       1.000
 
 k-points in reciprocal lattice and weights: K-Point Grid                            
   0.00000000  0.00000000  0.00000000       1.000
 
 position of ions in fractional coordinates (direct lattice) 
   0.44132782  0.46886696  0.51093730
   0.40948501  0.48251709  0.51041823
   0.40441188  0.51499845  0.49806872
   0.43153750  0.53381746  0.48611889
   0.46365841  0.52076448  0.48673846
   0.46884918  0.48814251  0.49956023
   0.53115082  0.48814251  0.50043877
   0.53634159  0.52076448  0.51326054
   0.56846250  0.53381746  0.51388111
   0.59558812  0.51499745  0.50193128
   0.59051499  0.48251609  0.48958277
   0.55867218  0.46886596  0.48906370
   0.50000000  0.47331612  0.50000000
   0.55434722  0.44375768  0.47938419
   0.61161611  0.46789195  0.48045746
   0.62075276  0.52541412  0.50281848
   0.57263244  0.55859846  0.52442804
   0.51560174  0.53470499  0.52401464
   0.50000000  0.44773660  0.50000000
   0.48439826  0.53470499  0.47598436
   0.42736756  0.55859846  0.47557196
   0.37924724  0.52541512  0.49718252
   0.38838389  0.46789295  0.51954354
   0.44565278  0.44375768  0.52061581
 
 position of ions in cartesian coordinates  (Angst):
  17.65311268 18.75467854 20.43749217
  16.37940037 19.30068359 20.41672918
  16.17647525 20.59993793 19.92274897
  17.26149993 21.35269843 19.44475573
  18.54633654 20.83057910 19.46953858
  18.75396728 19.52570038 19.98240903
  21.24603272 19.52570038 20.01755097
  21.45366346 20.83057910 20.53042142
  22.73850007 21.35269843 20.55524427
  23.82352475 20.59989793 20.07725103
  23.62059963 19.30064359 19.58331082
  22.34688732 18.75463854 19.56254783
  20.00000000 18.93264468 20.00000000
  22.17388862 17.75030716 19.17536770
  24.46464427 18.71567782 19.21829858
  24.83011054 21.01656476 20.11273917
  22.90529770 22.34393839 20.97712150
  20.62406971 21.38819960 20.96058563
  20.00000000 17.90946396 20.00000000
  19.37593029 21.38819960 19.03937437
  17.09470230 22.34393839 19.02287850
  15.16988946 21.01660476 19.88730083
  15.53535573 18.71571782 20.78174142
  17.82611138 17.75030716 20.82463230
 


--------------------------------------------------------------------------------------------------------


 k-point   1 :   0.0000 0.0000 0.0000  plane waves: 1624525

 maximum and minimum number of plane-waves per node :    162473   162437

 maximum number of plane-waves:   1624525
 maximum index in each direction: 
   IXMAX=   72   IYMAX=   72   IZMAX=   72
   IXMIN=  -72   IYMIN=  -72   IZMIN=  -72


 real space projection operators:
  total allocation   :       2830.91 KBytes
  max/ min on nodes  :        284.94        279.71


 parallel 3D FFT for wavefunctions:
    minimum data exchange during FFTs selected (reduces bandwidth)
 parallel 3D FFT for charge:
    minimum data exchange during FFTs selected (reduces bandwidth)


 total amount of memory used by VASP MPI-rank0  1010962. kBytes
=======================================================================

   base      :      30000. kBytes
   nonlr-proj:       2356. kBytes
   fftplans  :     192295. kBytes
   grid      :     734294. kBytes
   one-center:         18. kBytes
   wavefun   :      51999. kBytes
 
     INWAV:  cpu time      6.8654: real time      8.2337
 Broyden mixing: mesh for mixing (old mesh)
   NGX =145   NGY =145   NGZ =145
  (NGX  =588   NGY  =588   NGZ  =588)
  gives a total of ****** points

 initial charge density was supplied:
 charge density of overlapping atoms calculated
 number of electron      64.0000000 magnetization      24.0000000
 keeping initial charge density in first step


--------------------------------------------------------------------------------------------------------


 Maximum index for non-local projection operator          495
 Maximum index for augmentation-charges          330 (set IRDMAX)


--------------------------------------------------------------------------------------------------------


 First call to EWALD:  gamma=   0.044
 Maximum number of real-space cells 3x 3x 3
 Maximum number of reciprocal cells 3x 3x 3

    FEWALD:  cpu time      0.0008: real time      0.0008


--------------------------------------- Ionic step        1  -------------------------------------------




--------------------------------------- Iteration      1(   1)  ---------------------------------------


    POTLOK:  cpu time    139.4002: real time    140.1467
    SETDIJ:  cpu time      0.3031: real time      0.3041
     EDDAV:  cpu time     80.7601: real time     81.1182
       DOS:  cpu time      0.0003: real time      0.0003
    CHARGE:  cpu time     29.4391: real time     29.5645
    MIXING:  cpu time      0.1005: real time      0.1010
    --------------------------------------------
      LOOP:  cpu time    250.0034: real time    251.2349

 eigenvalue-minimisations  :   276
 total energy-change (2. order) :-0.1567006E+03  (-0.7808966E+01)
 number of electron      63.0000000 magnetization      23.1138610
 augmentation part        1.6390089 magnetization      22.2263658

 Broyden mixing:
  rms(total) = 0.29867E+01    rms(broyden)= 0.29864E+01
  rms(prec ) = 0.30129E+01
  weight for this iteration     100.00

 Free energy of the ion-electron system (eV)
  ---------------------------------------------------
  alpha Z        PSCENC =         0.29478719
  Ewald energy   TEWEN  =      7412.87646001
  -Hartree energ DENC   =     -8828.24714160
  -exchange      EXHF   =         0.00000000
  -V(xc)+E(xc)   XCENC  =       245.36625026
  PAW double counting   =      1488.16022049    -1515.80545188
  entropy T*S    EENTRO =        -0.00000000
  eigenvalues    EBANDS =     -1116.50131286
  atomic energy  EATOM  =      2167.66663818
  Solvation  Ediel_sol  =       -10.51107347
  ---------------------------------------------------
  free energy    TOTEN  =      -156.70062368 eV

  energy without entropy =     -156.70062368  energy(sigma->0) =     -156.70062368


--------------------------------------------------------------------------------------------------------




--------------------------------------- Iteration      1(   2)  ---------------------------------------


    POTLOK:  cpu time    132.4492: real time    133.0692
    SETDIJ:  cpu time      0.3019: real time      0.3029
    EDDIAG:  cpu time     17.9233: real time     18.0009
  RMM-DIIS:  cpu time    101.3176: real time    101.7315
    ORTHCH:  cpu time      0.1409: real time      0.1418
       DOS:  cpu time      0.0004: real time      0.0004
    CHARGE:  cpu time     29.8214: real time     29.9499
    MIXING:  cpu time      0.1484: real time      0.1489
    --------------------------------------------
      LOOP:  cpu time    282.1030: real time    283.3455

 eigenvalue-minimisations  :   243
 total energy-change (2. order) : 0.1641128E+02  (-0.8648413E+01)
 number of electron      62.9999999 magnetization      22.1643766
 augmentation part        1.6449401 magnetization      21.1970721

 Broyden mixing:
  rms(total) = 0.14975E+01    rms(broyden)= 0.14974E+01
  rms(prec ) = 0.15168E+01
  weight for this iteration     100.00

 eigenvalues of (default mixing * dielectric matrix)
  average eigenvalue GAMMA=   0.9377
  0.9377

 Free energy of the ion-electron system (eV)
  ---------------------------------------------------
  alpha Z        PSCENC =         0.29478719
  Ewald energy   TEWEN  =      7412.87646001
  -Hartree energ DENC   =     -8914.75635837
  -exchange      EXHF   =         0.00000000
  -V(xc)+E(xc)   XCENC  =       263.62654617
  PAW double counting   =      2718.88733334    -2747.83121753
  entropy T*S    EENTRO =        -0.00000000
  eigenvalues    EBANDS =     -1005.01173851
  atomic energy  EATOM  =      2167.66663818
  Solvation  Ediel_sol  =       -36.04179731
  ---------------------------------------------------
  free energy    TOTEN  =      -140.28934683 eV

  energy without entropy =     -140.28934683  energy(sigma->0) =     -140.28934683


--------------------------------------------------------------------------------------------------------




--------------------------------------- Iteration      1(   3)  ---------------------------------------


    POTLOK:  cpu time    129.6379: real time    130.2386
    SETDIJ:  cpu time      0.3399: real time      0.3410
    EDDIAG:  cpu time     17.8918: real time     17.9702
  RMM-DIIS:  cpu time    110.1669: real time    110.6256
    ORTHCH:  cpu time      0.1484: real time      0.1493
       DOS:  cpu time      0.0003: real time      0.0003
    CHARGE:  cpu time     29.7061: real time     29.8398
    MIXING:  cpu time      0.1483: real time      0.1491
    --------------------------------------------
      LOOP:  cpu time    288.0397: real time    289.3140

 eigenvalue-minimisations  :   273
 total energy-change (2. order) :-0.2150141E+02  (-0.3028770E+01)
 number of electron      62.9999999 magnetization      20.8788276
 augmentation part        1.6172494 magnetization      19.8922966

 Broyden mixing:
  rms(total) = 0.92697E+00    rms(broyden)= 0.92694E+00
  rms(prec ) = 0.93496E+00
  weight for this iteration     100.00

 eigenvalues of (default mixing * dielectric matrix)
  average eigenvalue GAMMA=   1.1558
  0.7806  1.5309

 Free energy of the ion-electron system (eV)
  ---------------------------------------------------
  alpha Z        PSCENC =         0.29478719
  Ewald energy   TEWEN  =      7412.87646001
  -Hartree energ DENC   =     -8975.46016324
  -exchange      EXHF   =         0.00000000
  -V(xc)+E(xc)   XCENC  =       250.65893200
  PAW double counting   =      3841.99942341    -3871.72465617
  entropy T*S    EENTRO =        -0.00000000
  eigenvalues    EBANDS =      -927.47857288
  atomic energy  EATOM  =      2167.66663818
  Solvation  Ediel_sol  =       -60.62360224
  ---------------------------------------------------
  free energy    TOTEN  =      -161.79075374 eV

  energy without entropy =     -161.79075374  energy(sigma->0) =     -161.79075374


--------------------------------------------------------------------------------------------------------




--------------------------------------- Iteration      1(   4)  ---------------------------------------


    POTLOK:  cpu time    133.2306: real time    133.8523
    SETDIJ:  cpu time      0.3043: real time      0.3052
    EDDIAG:  cpu time     18.0829: real time     18.1580
  RMM-DIIS:  cpu time    127.0014: real time    127.5194
    ORTHCH:  cpu time      0.1437: real time      0.1445
       DOS:  cpu time      0.0003: real time      0.0003
    CHARGE:  cpu time     29.6786: real time     29.8108
    MIXING:  cpu time      0.1566: real time      0.1574
    --------------------------------------------
      LOOP:  cpu time    308.5984: real time    309.9479

 eigenvalue-minimisations  :   325
 total energy-change (2. order) :-0.7659208E+01  (-0.1536060E+01)
 number of electron      62.9999999 magnetization      19.7529506
 augmentation part        1.5822773 magnetization      18.7738075

 Broyden mixing:
  rms(total) = 0.56496E+00    rms(broyden)= 0.56491E+00
  rms(prec ) = 0.56884E+00
  weight for this iteration     100.00

 eigenvalues of (default mixing * dielectric matrix)
  average eigenvalue GAMMA=   1.2658
  2.0359  1.0614  0.7001

 Free energy of the ion-electron system (eV)
  ---------------------------------------------------
  alpha Z        PSCENC =         0.29478719
  Ewald energy   TEWEN  =      7412.87646001
  -Hartree energ DENC   =     -9015.38841024
  -exchange      EXHF   =         0.00000000
  -V(xc)+E(xc)   XCENC  =       248.36888687
  PAW double counting   =      5040.69361071    -5070.61219421
  entropy T*S    EENTRO =        -0.00000000
  eigenvalues    EBANDS =      -863.62393549
  atomic energy  EATOM  =      2167.66663818
  Solvation  Ediel_sol  =       -89.72580491
  ---------------------------------------------------
  free energy    TOTEN  =      -169.44996189 eV

  energy without entropy =     -169.44996189  energy(sigma->0) =     -169.44996189


--------------------------------------------------------------------------------------------------------




--------------------------------------- Iteration      1(   5)  ---------------------------------------


    POTLOK:  cpu time    134.7856: real time    135.4032
    SETDIJ:  cpu time      0.3010: real time      0.3020
    EDDIAG:  cpu time     17.8179: real time     17.8935
  RMM-DIIS:  cpu time    137.8451: real time    138.4063
    ORTHCH:  cpu time      0.1483: real time      0.1491
       DOS:  cpu time      0.0003: real time      0.0003
    CHARGE:  cpu time     29.8522: real time     29.9856
    MIXING:  cpu time      0.1583: real time      0.1592
    --------------------------------------------
      LOOP:  cpu time    320.9089: real time    322.2991

 eigenvalue-minimisations  :   365
 total energy-change (2. order) :-0.2425423E+01  (-0.3596487E+00)
 number of electron      62.9999999 magnetization      18.1241354
 augmentation part        1.5718461 magnetization      17.1550706

 Broyden mixing:
  rms(total) = 0.38253E+00    rms(broyden)= 0.38251E+00
  rms(prec ) = 0.38567E+00
  weight for this iteration     100.00

 eigenvalues of (default mixing * dielectric matrix)
  average eigenvalue GAMMA=   1.4059
  2.5032  1.5991  0.8559  0.6651

 Free energy of the ion-electron system (eV)
  ---------------------------------------------------
  alpha Z        PSCENC =         0.29478719
  Ewald energy   TEWEN  =      7412.87646001
  -Hartree energ DENC   =     -9010.06662669
  -exchange      EXHF   =         0.00000000
  -V(xc)+E(xc)   XCENC  =       247.27153825
  PAW double counting   =      5551.15847542    -5580.96013026
  entropy T*S    EENTRO =        -0.00000000
  eigenvalues    EBANDS =      -852.81383172
  atomic energy  EATOM  =      2167.66663818
  Solvation  Ediel_sol  =      -107.30269551
  ---------------------------------------------------
  free energy    TOTEN  =      -171.87538514 eV

  energy without entropy =     -171.87538514  energy(sigma->0) =     -171.87538514


--------------------------------------------------------------------------------------------------------




--------------------------------------- Iteration      1(   6)  ---------------------------------------


    POTLOK:  cpu time    134.3038: real time    134.9233
    SETDIJ:  cpu time      0.3010: real time      0.3020
    EDDIAG:  cpu time     17.7602: real time     17.8376
  RMM-DIIS:  cpu time    135.8236: real time    136.3795
    ORTHCH:  cpu time      0.1451: real time      0.1460
       DOS:  cpu time      0.0003: real time      0.0003
    CHARGE:  cpu time     29.6302: real time     29.7616
    MIXING:  cpu time      0.1220: real time      0.1225
    --------------------------------------------
      LOOP:  cpu time    318.0862: real time    319.4728

 eigenvalue-minimisations  :   356
 total energy-change (2. order) :-0.1948745E+01  (-0.1527477E+00)
 number of electron      62.9999999 magnetization      17.1715098
 augmentation part        1.5695240 magnetization      16.2122354

 Broyden mixing:
  rms(total) = 0.22944E+00    rms(broyden)= 0.22944E+00
  rms(prec ) = 0.23146E+00
  weight for this iteration     100.00

 eigenvalues of (default mixing * dielectric matrix)
  average eigenvalue GAMMA=   1.4364
  2.9405  1.7692  1.0715  0.7621  0.6390

 Free energy of the ion-electron system (eV)
  ---------------------------------------------------
  alpha Z        PSCENC =         0.29478719
  Ewald energy   TEWEN  =      7412.87646001
  -Hartree energ DENC   =     -8990.31544980
  -exchange      EXHF   =         0.00000000
  -V(xc)+E(xc)   XCENC  =       245.85534516
  PAW double counting   =      5944.46409327    -5973.95194477
  entropy T*S    EENTRO =        -0.00000000
  eigenvalues    EBANDS =      -855.92636886
  atomic energy  EATOM  =      2167.66663818
  Solvation  Ediel_sol  =      -124.78769069
  ---------------------------------------------------
  free energy    TOTEN  =      -173.82413032 eV

  energy without entropy =     -173.82413032  energy(sigma->0) =     -173.82413032


--------------------------------------------------------------------------------------------------------




--------------------------------------- Iteration      1(   7)  ---------------------------------------


    POTLOK:  cpu time    126.6913: real time    127.2698
    SETDIJ:  cpu time      0.3034: real time      0.3044
    EDDIAG:  cpu time     17.8455: real time     17.9225
  RMM-DIIS:  cpu time    138.6311: real time    139.2046
    ORTHCH:  cpu time      0.1455: real time      0.1463
       DOS:  cpu time      0.0003: real time      0.0003
    CHARGE:  cpu time     29.8169: real time     29.9480
    MIXING:  cpu time      0.1656: real time      0.1664
    --------------------------------------------
      LOOP:  cpu time    313.5994: real time    314.9624

 eigenvalue-minimisations  :   366
 total energy-change (2. order) : 0.2421502E+00  (-0.4329575E-01)
 number of electron      62.9999999 magnetization      15.8268132
 augmentation part        1.5657792 magnetization      14.8722123

 Broyden mixing:
  rms(total) = 0.18775E+00    rms(broyden)= 0.18775E+00
  rms(prec ) = 0.18952E+00
  weight for this iteration     100.00

 eigenvalues of (default mixing * dielectric matrix)
  average eigenvalue GAMMA=   1.3940
  3.0599  1.9185  1.0952  0.9363  0.7190  0.6352

 Free energy of the ion-electron system (eV)
  ---------------------------------------------------
  alpha Z        PSCENC =         0.29478719
  Ewald energy   TEWEN  =      7412.87646001
  -Hartree energ DENC   =     -8981.83633059
  -exchange      EXHF   =         0.00000000
  -V(xc)+E(xc)   XCENC  =       246.24971743
  PAW double counting   =      5998.59753217    -6028.04635798
  entropy T*S    EENTRO =        -0.00000000
  eigenvalues    EBANDS =      -857.69471158
  atomic energy  EATOM  =      2167.66663818
  Solvation  Ediel_sol  =      -131.68971497
  ---------------------------------------------------
  free energy    TOTEN  =      -173.58198014 eV

  energy without entropy =     -173.58198014  energy(sigma->0) =     -173.58198014


--------------------------------------------------------------------------------------------------------




--------------------------------------- Iteration      1(   8)  ---------------------------------------


    POTLOK:  cpu time    124.2184: real time    124.7922
    SETDIJ:  cpu time      0.3022: real time      0.3031
    EDDIAG:  cpu time     17.7340: real time     17.8070
  RMM-DIIS:  cpu time    138.0015: real time    138.5667
    ORTHCH:  cpu time      0.1465: real time      0.1473
       DOS:  cpu time      0.0003: real time      0.0003
    CHARGE:  cpu time     29.7259: real time     29.8516
    MIXING:  cpu time      0.1724: real time      0.1732
    --------------------------------------------
      LOOP:  cpu time    310.3012: real time    311.6414

 eigenvalue-minimisations  :   365
 total energy-change (2. order) : 0.1526664E+01  (-0.7026218E-01)
 number of electron      62.9999999 magnetization      12.7822218
 augmentation part        1.5599119 magnetization      11.8353652

 Broyden mixing:
  rms(total) = 0.14081E+00    rms(broyden)= 0.14080E+00
  rms(prec ) = 0.14215E+00
  weight for this iteration     100.00

 eigenvalues of (default mixing * dielectric matrix)
  average eigenvalue GAMMA=   1.7947
  4.8963  2.6768  1.6218  1.2015  0.8137  0.7276  0.6251

 Free energy of the ion-electron system (eV)
  ---------------------------------------------------
  alpha Z        PSCENC =         0.29478719
  Ewald energy   TEWEN  =      7412.87646001
  -Hartree energ DENC   =     -8969.77034091
  -exchange      EXHF   =         0.00000000
  -V(xc)+E(xc)   XCENC  =       247.60746833
  PAW double counting   =      5940.26458727    -5969.69151129
  entropy T*S    EENTRO =        -0.00000000
  eigenvalues    EBANDS =      -862.23530561
  atomic energy  EATOM  =      2167.66663818
  Solvation  Ediel_sol  =      -139.06809903
  ---------------------------------------------------
  free energy    TOTEN  =      -172.05531585 eV

  energy without entropy =     -172.05531585  energy(sigma->0) =     -172.05531585


--------------------------------------------------------------------------------------------------------




--------------------------------------- Iteration      1(   9)  ---------------------------------------


    POTLOK:  cpu time    126.6600: real time    127.2415
    SETDIJ:  cpu time      0.3025: real time      0.3036
    EDDIAG:  cpu time     17.8334: real time     17.9090
  RMM-DIIS:  cpu time    138.4939: real time    139.0568
    ORTHCH:  cpu time      0.1461: real time      0.1470
       DOS:  cpu time      0.0004: real time      0.0004
    CHARGE:  cpu time     29.7579: real time     29.8829
    MIXING:  cpu time      0.1782: real time      0.1792
    --------------------------------------------
      LOOP:  cpu time    313.3725: real time    314.7203

 eigenvalue-minimisations  :   365
 total energy-change (2. order) : 0.2182507E+01  (-0.7535955E-01)
 number of electron      62.9999999 magnetization      12.0650201
 augmentation part        1.5592387 magnetization      11.1261716

 Broyden mixing:
  rms(total) = 0.79735E-01    rms(broyden)= 0.79725E-01
  rms(prec ) = 0.80393E-01
  weight for this iteration     100.00

 eigenvalues of (default mixing * dielectric matrix)
  average eigenvalue GAMMA=   1.7983
  5.8810  2.6691  1.8135  1.0598  0.8707  0.7347  0.7347  0.6230

 Free energy of the ion-electron system (eV)
  ---------------------------------------------------
  alpha Z        PSCENC =         0.29478719
  Ewald energy   TEWEN  =      7412.87646001
  -Hartree energ DENC   =     -8943.51293349
  -exchange      EXHF   =         0.00000000
  -V(xc)+E(xc)   XCENC  =       249.40339055
  PAW double counting   =      5870.69351873    -5900.05911508
  entropy T*S    EENTRO =        -0.00000000
  eigenvalues    EBANDS =      -871.60771380
  atomic energy  EATOM  =      2167.66663818
  Solvation  Ediel_sol  =      -155.62784138
  ---------------------------------------------------
  free energy    TOTEN  =      -169.87280909 eV

  energy without entropy =     -169.87280909  energy(sigma->0) =     -169.87280909


--------------------------------------------------------------------------------------------------------




--------------------------------------- Iteration      1(  10)  ---------------------------------------


    POTLOK:  cpu time    117.4374: real time    117.9691
    SETDIJ:  cpu time      0.3010: real time      0.3020
    EDDIAG:  cpu time     17.6917: real time     17.7659
  RMM-DIIS:  cpu time    138.6906: real time    139.2575
    ORTHCH:  cpu time      0.1457: real time      0.1465
       DOS:  cpu time      0.0003: real time      0.0003
    CHARGE:  cpu time     29.8321: real time     29.9592
    MIXING:  cpu time      0.1892: real time      0.1901
    --------------------------------------------
      LOOP:  cpu time    304.2880: real time    305.5906

 eigenvalue-minimisations  :   366
 total energy-change (2. order) : 0.6817729E+00  (-0.2471311E-01)
 number of electron      62.9999999 magnetization      10.8599883
 augmentation part        1.5576732 magnetization       9.9244925

 Broyden mixing:
  rms(total) = 0.63152E-01    rms(broyden)= 0.63149E-01
  rms(prec ) = 0.63541E-01
  weight for this iteration     100.00

 eigenvalues of (default mixing * dielectric matrix)
  average eigenvalue GAMMA=   1.8656
  6.9974  2.5571  2.0657  1.3389  0.9746  0.6232  0.7787  0.7274  0.7274

 Free energy of the ion-electron system (eV)
  ---------------------------------------------------
  alpha Z        PSCENC =         0.29478719
  Ewald energy   TEWEN  =      7412.87646001
  -Hartree energ DENC   =     -8941.73104049
  -exchange      EXHF   =         0.00000000
  -V(xc)+E(xc)   XCENC  =       250.21779315
  PAW double counting   =      5886.88175724    -5916.27955945
  entropy T*S    EENTRO =        -0.00000000
  eigenvalues    EBANDS =      -869.96750141
  atomic energy  EATOM  =      2167.66663818
  Solvation  Ediel_sol  =      -159.15037061
  ---------------------------------------------------
  free energy    TOTEN  =      -169.19103619 eV

  energy without entropy =     -169.19103619  energy(sigma->0) =     -169.19103619


--------------------------------------------------------------------------------------------------------




--------------------------------------- Iteration      1(  11)  ---------------------------------------


    POTLOK:  cpu time    119.8693: real time    120.4142
    SETDIJ:  cpu time      0.3033: real time      0.3042
    EDDIAG:  cpu time     17.7285: real time     17.8016
  RMM-DIIS:  cpu time    139.1089: real time    139.6751
    ORTHCH:  cpu time      0.1468: real time      0.1477
       DOS:  cpu time      0.0006: real time      0.0006
    CHARGE:  cpu time     29.6695: real time     29.8001
    MIXING:  cpu time      0.1973: real time      0.1985
    --------------------------------------------
      LOOP:  cpu time    307.0242: real time    308.3419

 eigenvalue-minimisations  :   366
 total energy-change (2. order) : 0.1277019E+01  (-0.1723644E-01)
 number of electron      62.9999999 magnetization       9.6239367
 augmentation part        1.5568601 magnetization       8.6911363

 Broyden mixing:
  rms(total) = 0.48380E-01    rms(broyden)= 0.48378E-01
  rms(prec ) = 0.48545E-01
  weight for this iteration     100.00

 eigenvalues of (default mixing * dielectric matrix)
  average eigenvalue GAMMA=   1.9589
  7.9217  2.6707  2.4694  1.6707  1.0130  1.0130  0.7410  0.7410  0.6260  0.7224

 Free energy of the ion-electron system (eV)
  ---------------------------------------------------
  alpha Z        PSCENC =         0.29478719
  Ewald energy   TEWEN  =      7412.87646001
  -Hartree energ DENC   =     -8937.37439617
  -exchange      EXHF   =         0.00000000
  -V(xc)+E(xc)   XCENC  =       251.50845802
  PAW double counting   =      5887.79022224    -5917.20728153
  entropy T*S    EENTRO =        -0.00000000
  eigenvalues    EBANDS =      -869.49027987
  atomic energy  EATOM  =      2167.66663818
  Solvation  Ediel_sol  =      -163.97862505
  ---------------------------------------------------
  free energy    TOTEN  =      -167.91401697 eV

  energy without entropy =     -167.91401697  energy(sigma->0) =     -167.91401697


--------------------------------------------------------------------------------------------------------




--------------------------------------- Iteration      1(  12)  ---------------------------------------


    POTLOK:  cpu time    118.1060: real time    118.6359
    SETDIJ:  cpu time      0.3029: real time      0.3040
    EDDIAG:  cpu time     17.7736: real time     17.8489
  RMM-DIIS:  cpu time    138.6767: real time    139.2449
    ORTHCH:  cpu time      0.1449: real time      0.1457
       DOS:  cpu time      0.0005: real time      0.0005
    CHARGE:  cpu time     29.8586: real time     29.9876
    MIXING:  cpu time      0.2025: real time      0.2035
    --------------------------------------------
      LOOP:  cpu time    305.0655: real time    306.3711

 eigenvalue-minimisations  :   366
 total energy-change (2. order) : 0.1205698E+01  (-0.3259932E-02)
 number of electron      62.9999999 magnetization       8.3322182
 augmentation part        1.5560610 magnetization       7.4014965

 Broyden mixing:
  rms(total) = 0.39099E-01    rms(broyden)= 0.39098E-01
  rms(prec ) = 0.39182E-01
  weight for this iteration     100.00

 eigenvalues of (default mixing * dielectric matrix)
  average eigenvalue GAMMA=   2.0145
  8.5415  3.2918  2.4099  2.0055  1.2303  0.9449  0.9449  0.7423  0.7423  0.6255
  0.6804

 Free energy of the ion-electron system (eV)
  ---------------------------------------------------
  alpha Z        PSCENC =         0.29478719
  Ewald energy   TEWEN  =      7412.87646001
  -Hartree energ DENC   =     -8933.30605550
  -exchange      EXHF   =         0.00000000
  -V(xc)+E(xc)   XCENC  =       252.68855091
  PAW double counting   =      5874.71190182    -5904.13970500
  entropy T*S    EENTRO =        -0.00000000
  eigenvalues    EBANDS =      -869.81663770
  atomic energy  EATOM  =      2167.66663818
  Solvation  Ediel_sol  =      -167.68425901
  ---------------------------------------------------
  free energy    TOTEN  =      -166.70831910 eV

  energy without entropy =     -166.70831910  energy(sigma->0) =     -166.70831910


--------------------------------------------------------------------------------------------------------




--------------------------------------- Iteration      1(  13)  ---------------------------------------


    POTLOK:  cpu time    118.2403: real time    118.8157
    SETDIJ:  cpu time      0.3017: real time      0.3027
    EDDIAG:  cpu time     17.6519: real time     17.7274
  RMM-DIIS:  cpu time    138.5758: real time    139.1311
    ORTHCH:  cpu time      0.1467: real time      0.1477
       DOS:  cpu time      0.0003: real time      0.0003
    CHARGE:  cpu time     29.6872: real time     29.8154
    MIXING:  cpu time      0.2154: real time      0.2164
    --------------------------------------------
      LOOP:  cpu time    304.8192: real time    306.1566

 eigenvalue-minimisations  :   366
 total energy-change (2. order) : 0.1055810E+01  ( 0.2215867E-02)
 number of electron      62.9999999 magnetization       7.2978861
 augmentation part        1.5570277 magnetization       6.3686070

 Broyden mixing:
  rms(total) = 0.31464E-01    rms(broyden)= 0.31462E-01
  rms(prec ) = 0.31488E-01
  weight for this iteration     100.00

 eigenvalues of (default mixing * dielectric matrix)
  average eigenvalue GAMMA=   2.0851
  9.1643  4.0695  2.6797  2.1019  1.4308  1.0482  1.0482  0.7154  0.7154  0.7511
  0.6191  0.6777

 Free energy of the ion-electron system (eV)
  ---------------------------------------------------
  alpha Z        PSCENC =         0.29478719
  Ewald energy   TEWEN  =      7412.87646001
  -Hartree energ DENC   =     -8929.97900659
  -exchange      EXHF   =         0.00000000
  -V(xc)+E(xc)   XCENC  =       253.70011328
  PAW double counting   =      5880.87315345    -5910.28715349
  entropy T*S    EENTRO =        -0.00000000
  eigenvalues    EBANDS =      -870.40923986
  atomic energy  EATOM  =      2167.66663818
  Solvation  Ediel_sol  =      -170.38826141
  ---------------------------------------------------
  free energy    TOTEN  =      -165.65250924 eV

  energy without entropy =     -165.65250924  energy(sigma->0) =     -165.65250924


--------------------------------------------------------------------------------------------------------




--------------------------------------- Iteration      1(  14)  ---------------------------------------


    POTLOK:  cpu time    115.1325: real time    115.7245
    SETDIJ:  cpu time      0.3372: real time      0.3384
    EDDIAG:  cpu time     17.8228: real time     17.8991
  RMM-DIIS:  cpu time    138.9519: real time    139.5130
    ORTHCH:  cpu time      0.1467: real time      0.1476
       DOS:  cpu time      0.0004: real time      0.0004
    CHARGE:  cpu time     29.9899: real time     30.1192
    MIXING:  cpu time      0.2266: real time      0.2277
    --------------------------------------------
      LOOP:  cpu time    302.6078: real time    303.9699

 eigenvalue-minimisations  :   366
 total energy-change (2. order) : 0.7161968E+00  ( 0.4165708E-02)
 number of electron      62.9999999 magnetization       6.4226585
 augmentation part        1.5559563 magnetization       5.4944088

 Broyden mixing:
  rms(total) = 0.26586E-01    rms(broyden)= 0.26584E-01
  rms(prec ) = 0.26617E-01
  weight for this iteration     100.00

 eigenvalues of (default mixing * dielectric matrix)
  average eigenvalue GAMMA=   2.1166
  9.7766  4.8685  2.6690  2.1904  1.5642  1.0561  1.0561  0.9515  0.7256  0.7256
  0.7080  0.6284  0.5961

 Free energy of the ion-electron system (eV)
  ---------------------------------------------------
  alpha Z        PSCENC =         0.29478719
  Ewald energy   TEWEN  =      7412.87646001
  -Hartree energ DENC   =     -8928.65706980
  -exchange      EXHF   =         0.00000000
  -V(xc)+E(xc)   XCENC  =       254.41511771
  PAW double counting   =      5897.58226148    -5926.99304735
  entropy T*S    EENTRO =        -0.00000000
  eigenvalues    EBANDS =      -870.15882320
  atomic energy  EATOM  =      2167.66663818
  Solvation  Ediel_sol  =      -171.96263665
  ---------------------------------------------------
  free energy    TOTEN  =      -164.93631242 eV

  energy without entropy =     -164.93631242  energy(sigma->0) =     -164.93631242


--------------------------------------------------------------------------------------------------------




--------------------------------------- Iteration      1(  15)  ---------------------------------------


    POTLOK:  cpu time    112.6241: real time    113.1259
    SETDIJ:  cpu time      0.3020: real time      0.3029
    EDDIAG:  cpu time     17.8011: real time     17.8770
  RMM-DIIS:  cpu time    138.7817: real time    139.3399
    ORTHCH:  cpu time      0.1469: real time      0.1477
       DOS:  cpu time      0.0004: real time      0.0004
    CHARGE:  cpu time     29.7964: real time     29.9274
    MIXING:  cpu time      0.2400: real time      0.2411
    --------------------------------------------
      LOOP:  cpu time    299.6924: real time    300.9623

 eigenvalue-minimisations  :   366
 total energy-change (2. order) : 0.5258141E+00  (-0.8154936E-03)
 number of electron      62.9999999 magnetization       5.3275523
 augmentation part        1.5554217 magnetization       4.4000478

 Broyden mixing:
  rms(total) = 0.23389E-01    rms(broyden)= 0.23388E-01
  rms(prec ) = 0.23421E-01
  weight for this iteration     100.00

 eigenvalues of (default mixing * dielectric matrix)
  average eigenvalue GAMMA=   2.1413
 10.2651  5.3962  2.7055  2.4150  1.6301  1.3735  1.0403  0.9044  0.9044  0.7244
  0.7244  0.6904  0.6241  0.5801

 Free energy of the ion-electron system (eV)
  ---------------------------------------------------
  alpha Z        PSCENC =         0.29478719
  Ewald energy   TEWEN  =      7412.87646001
  -Hartree energ DENC   =     -8927.79298177
  -exchange      EXHF   =         0.00000000
  -V(xc)+E(xc)   XCENC  =       254.92272504
  PAW double counting   =      5898.49499464    -5927.90414118
  entropy T*S    EENTRO =        -0.00000000
  eigenvalues    EBANDS =      -870.44460639
  atomic energy  EATOM  =      2167.66663818
  Solvation  Ediel_sol  =      -172.52437407
  ---------------------------------------------------
  free energy    TOTEN  =      -164.41049835 eV

  energy without entropy =     -164.41049835  energy(sigma->0) =     -164.41049835


--------------------------------------------------------------------------------------------------------




--------------------------------------- Iteration      1(  16)  ---------------------------------------


    POTLOK:  cpu time    114.9663: real time    115.4809
    SETDIJ:  cpu time      0.3009: real time      0.3019
    EDDIAG:  cpu time     17.7355: real time     17.8100
  RMM-DIIS:  cpu time    138.7875: real time    139.3693
    ORTHCH:  cpu time      0.1452: real time      0.1460
       DOS:  cpu time      0.0003: real time      0.0003
    CHARGE:  cpu time     29.8929: real time     30.0198
    MIXING:  cpu time      0.2480: real time      0.2491
    --------------------------------------------
      LOOP:  cpu time    302.0765: real time    303.3774

 eigenvalue-minimisations  :   366
 total energy-change (2. order) : 0.6623946E+00  (-0.5017047E-03)
 number of electron      62.9999999 magnetization       3.9214312
 augmentation part        1.5554090 magnetization       2.9950512

 Broyden mixing:
  rms(total) = 0.19373E-01    rms(broyden)= 0.19372E-01
  rms(prec ) = 0.19409E-01
  weight for this iteration     100.00

 eigenvalues of (default mixing * dielectric matrix)
  average eigenvalue GAMMA=   2.2258
 10.9320  6.1510  3.1316  2.5849  1.8589  1.5301  1.0875  1.0875  0.9567  0.7381
  0.7381  0.7000  0.7000  0.6273  0.5635

 Free energy of the ion-electron system (eV)
  ---------------------------------------------------
  alpha Z        PSCENC =         0.29478719
  Ewald energy   TEWEN  =      7412.87646001
  -Hartree energ DENC   =     -8926.92363134
  -exchange      EXHF   =         0.00000000
  -V(xc)+E(xc)   XCENC  =       255.55252864
  PAW double counting   =      5902.28498625    -5931.68451002
  entropy T*S    EENTRO =        -0.00000000
  eigenvalues    EBANDS =      -871.21367342
  atomic energy  EATOM  =      2167.66663818
  Solvation  Ediel_sol  =      -172.60168919
  ---------------------------------------------------
  free energy    TOTEN  =      -163.74810371 eV

  energy without entropy =     -163.74810371  energy(sigma->0) =     -163.74810371


--------------------------------------------------------------------------------------------------------




--------------------------------------- Iteration      1(  17)  ---------------------------------------


    POTLOK:  cpu time    113.8555: real time    114.3969
    SETDIJ:  cpu time      0.3032: real time      0.3042
    EDDIAG:  cpu time     17.9834: real time     18.0602
  RMM-DIIS:  cpu time    139.1715: real time    139.7387
    ORTHCH:  cpu time      0.1457: real time      0.1465
       DOS:  cpu time      0.0003: real time      0.0003
    CHARGE:  cpu time     29.8999: real time     30.0271
    MIXING:  cpu time      0.2651: real time      0.2663
    --------------------------------------------
      LOOP:  cpu time    301.6245: real time    302.9403

 eigenvalue-minimisations  :   366
 total energy-change (2. order) : 0.8059895E+00  (-0.3616612E-03)
 number of electron      62.9999999 magnetization       2.7456452
 augmentation part        1.5548935 magnetization       1.8201627

 Broyden mixing:
  rms(total) = 0.15152E-01    rms(broyden)= 0.15151E-01
  rms(prec ) = 0.15201E-01
  weight for this iteration     100.00

 eigenvalues of (default mixing * dielectric matrix)
  average eigenvalue GAMMA=   2.2972
 11.6709  6.9261  3.5131  2.6744  2.1984  1.4886  1.2103  1.0283  1.0283  1.0009
  0.7198  0.7198  0.6898  0.6898  0.6282  0.5683

 Free energy of the ion-electron system (eV)
  ---------------------------------------------------
  alpha Z        PSCENC =         0.29478719
  Ewald energy   TEWEN  =      7412.87646001
  -Hartree energ DENC   =     -8926.61709936
  -exchange      EXHF   =         0.00000000
  -V(xc)+E(xc)   XCENC  =       256.33931815
  PAW double counting   =      5903.74950660    -5933.14383408
  entropy T*S    EENTRO =        -0.00000000
  eigenvalues    EBANDS =      -871.81355597
  atomic energy  EATOM  =      2167.66663818
  Solvation  Ediel_sol  =      -172.29433493
  ---------------------------------------------------
  free energy    TOTEN  =      -162.94211422 eV

  energy without entropy =     -162.94211422  energy(sigma->0) =     -162.94211422


--------------------------------------------------------------------------------------------------------




--------------------------------------- Iteration      1(  18)  ---------------------------------------


    POTLOK:  cpu time    117.5196: real time    118.0527
    SETDIJ:  cpu time      0.3394: real time      0.3403
    EDDIAG:  cpu time     17.7465: real time     17.8192
  RMM-DIIS:  cpu time    138.7614: real time    139.3236
    ORTHCH:  cpu time      0.1438: real time      0.1447
       DOS:  cpu time      0.0005: real time      0.0005
    CHARGE:  cpu time     29.9237: real time     30.0566
    MIXING:  cpu time      0.2818: real time      0.2832
    --------------------------------------------
      LOOP:  cpu time    304.7167: real time    306.0208

 eigenvalue-minimisations  :   366
 total energy-change (2. order) : 0.5955481E+00  ( 0.3700661E-02)
 number of electron      62.9999999 magnetization       1.6842134
 augmentation part        1.5543854 magnetization       0.7588483

 Broyden mixing:
  rms(total) = 0.99573E-02    rms(broyden)= 0.99568E-02
  rms(prec ) = 0.10001E-01
  weight for this iteration     100.00

 eigenvalues of (default mixing * dielectric matrix)
  average eigenvalue GAMMA=   2.6092
 14.9393  8.4996  4.6399  2.7361  2.4157  1.6916  1.4986  1.0706  1.0706  0.9765
  0.8001  0.7219  0.7219  0.7197  0.6589  0.6254  0.5695

 Free energy of the ion-electron system (eV)
  ---------------------------------------------------
  alpha Z        PSCENC =         0.29478719
  Ewald energy   TEWEN  =      7412.87646001
  -Hartree energ DENC   =     -8927.03102450
  -exchange      EXHF   =         0.00000000
  -V(xc)+E(xc)   XCENC  =       256.94015875
  PAW double counting   =      5896.90348440    -5926.30399288
  entropy T*S    EENTRO =        -0.00000000
  eigenvalues    EBANDS =      -871.91513209
  atomic energy  EATOM  =      2167.66663818
  Solvation  Ediel_sol  =      -171.77794518
  ---------------------------------------------------
  free energy    TOTEN  =      -162.34656612 eV

  energy without entropy =     -162.34656612  energy(sigma->0) =     -162.34656612


--------------------------------------------------------------------------------------------------------




--------------------------------------- Iteration      1(  19)  ---------------------------------------


    POTLOK:  cpu time    108.9941: real time    109.4937
    SETDIJ:  cpu time      0.3329: real time      0.3339
    EDDIAG:  cpu time     17.7722: real time     17.8471
  RMM-DIIS:  cpu time    139.0614: real time    139.6308
    ORTHCH:  cpu time      0.1442: real time      0.1450
       DOS:  cpu time      0.0003: real time      0.0003
    CHARGE:  cpu time     29.9400: real time     30.0684
    MIXING:  cpu time      0.2952: real time      0.2965
    --------------------------------------------
      LOOP:  cpu time    296.5401: real time    297.8158

 eigenvalue-minimisations  :   366
 total energy-change (2. order) : 0.4114447E+00  ( 0.3450955E-02)
 number of electron      62.9999999 magnetization       1.3268381
 augmentation part        1.5546572 magnetization       0.4013334

 Broyden mixing:
  rms(total) = 0.61060E-02    rms(broyden)= 0.61057E-02
  rms(prec ) = 0.61593E-02
  weight for this iteration     100.00

 eigenvalues of (default mixing * dielectric matrix)
  average eigenvalue GAMMA=   2.7930
 18.6089  9.0779  5.0018  2.5839  2.5839  1.8844  1.4471  1.1691  1.1385  1.1385
  0.8981  0.7477  0.7477  0.6997  0.6997  0.6588  0.6243  0.5636

 Free energy of the ion-electron system (eV)
  ---------------------------------------------------
  alpha Z        PSCENC =         0.29478719
  Ewald energy   TEWEN  =      7412.87646001
  -Hartree energ DENC   =     -8927.24294042
  -exchange      EXHF   =         0.00000000
  -V(xc)+E(xc)   XCENC  =       257.34499185
  PAW double counting   =      5894.07558435    -5923.47447073
  entropy T*S    EENTRO =        -0.00000000
  eigenvalues    EBANDS =      -872.18821539
  atomic energy  EATOM  =      2167.66663818
  Solvation  Ediel_sol  =      -171.28795645
  ---------------------------------------------------
  free energy    TOTEN  =      -161.93512141 eV

  energy without entropy =     -161.93512141  energy(sigma->0) =     -161.93512141


--------------------------------------------------------------------------------------------------------




--------------------------------------- Iteration      1(  20)  ---------------------------------------


    POTLOK:  cpu time    112.6045: real time    113.1166
    SETDIJ:  cpu time      0.3022: real time      0.3032
    EDDIAG:  cpu time     17.8031: real time     17.8761
  RMM-DIIS:  cpu time    138.9530: real time    139.5239
    ORTHCH:  cpu time      0.1450: real time      0.1459
       DOS:  cpu time      0.0003: real time      0.0003
    CHARGE:  cpu time     29.7224: real time     29.8496
    MIXING:  cpu time      0.3148: real time      0.3166
    --------------------------------------------
      LOOP:  cpu time    299.8454: real time    301.1320

 eigenvalue-minimisations  :   366
 total energy-change (2. order) : 0.1489950E+00  (-0.1480437E-02)
 number of electron      62.9999999 magnetization       1.1603641
 augmentation part        1.5544652 magnetization       0.2353625

 Broyden mixing:
  rms(total) = 0.44294E-02    rms(broyden)= 0.44286E-02
  rms(prec ) = 0.44556E-02
  weight for this iteration     100.00

 eigenvalues of (default mixing * dielectric matrix)
  average eigenvalue GAMMA=   2.8919
 21.3513  9.2997  5.1636  2.6876  2.6876  2.0580  1.4970  1.4970  1.1182  1.1182
  0.9652  0.7683  0.7683  0.7322  0.7322  0.6654  0.6342  0.6342  0.5687

 Free energy of the ion-electron system (eV)
  ---------------------------------------------------
  alpha Z        PSCENC =         0.29478719
  Ewald energy   TEWEN  =      7412.87646001
  -Hartree energ DENC   =     -8927.53394684
  -exchange      EXHF   =         0.00000000
  -V(xc)+E(xc)   XCENC  =       257.50326012
  PAW double counting   =      5897.81784809    -5927.21584389
  entropy T*S    EENTRO =        -0.00000000
  eigenvalues    EBANDS =      -871.99893003
  atomic energy  EATOM  =      2167.66663818
  Solvation  Ediel_sol  =      -171.19639925
[...]

 Free energy of the ion-electron system (eV)
  ---------------------------------------------------
  alpha Z        PSCENC =         0.29478719
  Ewald energy   TEWEN  =      7458.78294691
  -Hartree energ DENC   =     -8971.07910461
  -exchange      EXHF   =         0.00000000
  -V(xc)+E(xc)   XCENC  =       258.45161241
  PAW double counting   =      6018.60184844    -6048.05163628
  entropy T*S    EENTRO =        -0.00000000
  eigenvalues    EBANDS =      -874.44413288
  atomic energy  EATOM  =      2167.66663818
  Solvation  Ediel_sol  =      -171.83250100
  ---------------------------------------------------
  free energy    TOTEN  =      -161.60954164 eV

  energy without entropy =     -161.60954164  energy(sigma->0) =     -161.60954164


--------------------------------------------------------------------------------------------------------




 average (electrostatic) potential at core
  the test charge radii are     0.6991  0.7089  0.5201
  (the norm of the test charge is              1.0000)
       1 -61.7235       2 -61.5071       3 -61.6022       4 -61.5171       5 -61.7505
       6 -63.0369       7 -63.0371       8 -61.7502       9 -61.5163      10 -61.6017
      11 -61.5076      12 -61.7244      13 -79.1972      14 -44.9802      15 -44.6988
      16 -44.7172      17 -44.7041      18 -45.0402      19 -47.4926      20 -45.0409
      21 -44.7044      22 -44.7178      23 -44.6983      24 -44.9789
 
 
 
 E-fermi :  -5.9199     XC(G=0):  -0.0402     alpha+bet : -0.0248

 Fermi energy:        -5.9198520746

 spin component 1

 k-point     1 :       0.0000    0.0000    0.0000
  band No.  band energies     occupation 
      1     -26.8583      1.00000
      2     -23.3724      1.00000
      3     -22.8212      1.00000
      4     -20.7390      1.00000
      5     -20.4296      1.00000
      6     -20.2288      1.00000
      7     -19.4854      1.00000
      8     -17.1959      1.00000
      9     -17.0354      1.00000
     10     -16.2274      1.00000
     11     -15.7627      1.00000
     12     -14.5380      1.00000
     13     -14.4316      1.00000
     14     -13.4563      1.00000
     15     -12.9300      1.00000
     16     -12.4581      1.00000
     17     -11.9826      1.00000
     18     -11.7026      1.00000
     19     -11.5669      1.00000
     20     -11.3649      1.00000
     21     -11.3223      1.00000
     22     -11.0401      1.00000
     23     -10.3034      1.00000
     24      -9.7634      1.00000
     25      -9.4778      1.00000
     26      -9.4583      1.00000
     27      -9.1336      1.00000
     28      -8.9889      1.00000
     29      -7.4435      1.00000
     30      -7.3588      1.00000
     31      -7.2851      1.00000
     32      -6.1884      1.00000
     33      -2.0561      0.00000
     34      -1.6976      0.00000
     35      -1.6168      0.00000
     36      -1.0787      0.00000
     37      -0.0579      0.00000
     38       0.0169      0.00000
     39       0.0768      0.00000
     40       0.0816      0.00000
     41       0.0819      0.00000
     42       0.0868      0.00000
     43       0.0869      0.00000
     44       0.1312      0.00000
     45       0.1555      0.00000
     46       0.1678      0.00000
     47       0.1685      0.00000
     48       0.1770      0.00000
     49       0.1772      0.00000
     50       0.1780      0.00000
     51       0.1803      0.00000
     52       0.1806      0.00000
     53       0.1810      0.00000
     54       0.1810      0.00000
     55       0.1813      0.00000
     56       0.2518      0.00000
     57       0.2570      0.00000
     58       0.2653      0.00000
     59       0.2656      0.00000
     60       0.2714      0.00000
 Fermi energy:        -5.9198520746

 spin component 2

 k-point     1 :       0.0000    0.0000    0.0000
  band No.  band energies     occupation 
      1     -26.4974      1.00000
      2     -23.2733      1.00000
      3     -22.6787      1.00000
      4     -20.6465      1.00000
      5     -20.3451      1.00000
      6     -20.1626      1.00000
      7     -19.2153      1.00000
      8     -17.0482      1.00000
      9     -16.9884      1.00000
     10     -16.1579      1.00000
     11     -15.6831      1.00000
     12     -14.5098      1.00000
     13     -14.3502      1.00000
     14     -13.3738      1.00000
     15     -12.8425      1.00000
     16     -12.2441      1.00000
     17     -11.9562      1.00000
     18     -11.5557      1.00000
     19     -11.5126      1.00000
     20     -11.3073      1.00000
     21     -11.3049      1.00000
     22     -10.8020      1.00000
     23     -10.0446      1.00000
     24      -9.7310      1.00000
     25      -9.4482      1.00000
     26      -9.1727      1.00000
     27      -9.1120      1.00000
     28      -8.7319      1.00000
     29      -7.1933      1.00000
     30      -7.1264      1.00000
     31      -7.0775      1.00000
     32      -5.1318      0.00000
     33      -1.7273      0.00000
     34      -1.5263      0.00000
     35      -1.4287      0.00000
     36      -0.6625      0.00000
     37      -0.0525      0.00000
     38       0.0188      0.00000
     39       0.0779      0.00000
     40       0.0815      0.00000
     41       0.0825      0.00000
     42       0.0869      0.00000
     43       0.0870      0.00000
     44       0.1327      0.00000
     45       0.1576      0.00000
     46       0.1671      0.00000
     47       0.1691      0.00000
     48       0.1767      0.00000
     49       0.1779      0.00000
     50       0.1788      0.00000
     51       0.1806      0.00000
     52       0.1806      0.00000
     53       0.1810      0.00000
     54       0.1813      0.00000
     55       0.1814      0.00000
     56       0.2529      0.00000
     57       0.2583      0.00000
     58       0.2648      0.00000
     59       0.2663      0.00000
     60       0.2712      0.00000


--------------------------------------------------------------------------------------------------------


 soft charge-density along one line, spin component           1
         0         1         2         3         4         5         6         7         8         9
 total charge-density along one line
 
 soft charge-density along one line, spin component           2
         0         1         2         3         4         5         6         7         8         9
 total charge-density along one line
 
 pseudopotential strength for first ion, spin component:           1
 10.525  13.997   0.002  -0.001   0.004  -0.008   0.002  -0.008
 13.997  18.614   0.003  -0.001   0.005  -0.011   0.002  -0.011
  0.002   0.003  -4.409   0.016   0.007   8.553  -0.028  -0.012
 -0.001  -0.001   0.016  -4.372   0.004  -0.028   8.487  -0.009
  0.004   0.005   0.007   0.004  -4.421  -0.012  -0.009   8.572
 -0.008  -0.011   8.553  -0.028  -0.012 -18.863   0.047   0.020
  0.002   0.002  -0.028   8.487  -0.009   0.047 -18.759   0.017
 -0.008  -0.011  -0.012  -0.009   8.572   0.020   0.017 -18.893
 pseudopotential strength for first ion, spin component:           2
 10.472  13.925   0.001  -0.002   0.003  -0.006   0.006  -0.006
 13.925  18.516   0.002  -0.003   0.004  -0.008   0.008  -0.008
  0.001   0.002  -4.397   0.022   0.008   8.536  -0.027  -0.012
 -0.002  -0.003   0.022  -4.349   0.009  -0.027   8.474  -0.010
  0.003   0.004   0.008   0.009  -4.410  -0.012  -0.010   8.554
 -0.006  -0.008   8.536  -0.027  -0.012 -18.835   0.026   0.014
  0.006   0.008  -0.027   8.474  -0.010   0.026 -18.770   0.007
 -0.006  -0.008  -0.012  -0.010   8.554   0.014   0.007 -18.859
 total augmentation occupancy for first ion, spin component:           1
  8.798  -3.963   0.261  -0.076  -0.060   0.054  -0.017  -0.008
 -3.963   1.827  -0.187   0.057   0.019  -0.034   0.011   0.004
  0.261  -0.187   1.721  -0.213  -0.071   0.155  -0.030  -0.005
 -0.076   0.057  -0.213   1.245  -0.085  -0.030   0.089  -0.014
 -0.060   0.019  -0.071  -0.085   1.877  -0.005  -0.014   0.184
  0.054  -0.034   0.155  -0.030  -0.005   0.015  -0.004  -0.000
 -0.017   0.011  -0.030   0.089  -0.014  -0.004   0.007  -0.002
 -0.008   0.004  -0.005  -0.014   0.184  -0.000  -0.002   0.019
 total augmentation occupancy for first ion, spin component:           2
  0.109  -0.054   0.004   0.004   0.009   0.000  -0.000   0.001
 -0.054   0.027   0.000   0.003  -0.005  -0.000   0.000  -0.001
  0.004   0.000   0.032   0.060   0.016   0.001   0.001   0.000
  0.004   0.003   0.060   0.143   0.037   0.001   0.004   0.001
  0.009  -0.005   0.016   0.037   0.018   0.000   0.001   0.001
  0.000  -0.000   0.001   0.001   0.000   0.000  -0.000   0.000
 -0.000   0.000   0.001   0.004   0.001  -0.000  -0.000  -0.000
  0.001  -0.001   0.000   0.001   0.001   0.000  -0.000   0.000


------------------------ aborting loop because EDIFF is reached ----------------------------------------


    CHARGE:  cpu time      4.0814: real time      4.1188
    FORLOC:  cpu time      0.2481: real time      0.2503
    FORNL :  cpu time      6.3521: real time      6.4060
    STRESS:  cpu time    184.8056: real time    186.3499
    FORCOR:  cpu time      8.3467: real time      8.4141
    FORHAR:  cpu time      0.8416: real time      0.8492
    MIXING:  cpu time      0.1071: real time      0.1081
    OFIELD:  cpu time      0.0000: real time      0.0000

 ---------------------------------------------------------------------------------------------

         DFTD3 V3.0 Rev 1        
 Edisp (eV)   -0.24005

 E6    (eV) :    -0.1880
 E8    (eV) :    -0.0521
 % E8        : 21.70
    FORVDW:  cpu time      0.0048: real time      0.0048

  FORCE on cell =-STRESS in cart. coord.  units (eV):
  Direction    XX          YY          ZZ          XY          YZ          ZX
  --------------------------------------------------------------------------------------
  Alpha Z     0.29479     0.29479     0.29479
  Ewald    5189.53731  2415.87583  -146.63152    -0.01942    -0.01219  -256.39972
  Hartree  5061.42393  2722.57165  1187.08105    -0.00039    -0.00023  -118.08712
  E(xc)    -233.72208  -234.28576  -236.62751     0.00000     0.00000    -0.40925
  Local  -10840.63616 -5743.70428 -1746.12524     0.01773     0.01034   360.50474
  n-local   -79.86883   -81.23796   -74.10289    -0.00005    -0.00006     1.47034
  augment    -3.40056    -3.24005    -2.38034    -0.00000     0.00000     0.08497
  Kinetic   907.22257   925.78693  1015.58396     0.00032     0.00029    12.21462
  Fock        0.00000     0.00000     0.00000     0.00000     0.00000     0.00000
  vdW        -0.14219    -0.03745    -0.00726     0.00000    -0.00000    -0.00438
  -------------------------------------------------------------------------------------
  Total       0.70877     2.02370    -2.91496     0.00000     0.00000    -0.62580
  in kB       0.01774     0.05066    -0.07297     0.00000     0.00000    -0.01567
  external pressure =       -0.00 kB  Pullay stress =        0.00 kB


 VOLUME and BASIS-vectors are now :
 -----------------------------------------------------------------------------
  energy-cutoff  :      500.00
  volume of cell :    64000.00
      direct lattice vectors                 reciprocal lattice vectors
    40.000000000  0.000000000  0.000000000     0.025000000  0.000000000  0.000000000
     0.000000000 40.000000000  0.000000000     0.000000000  0.025000000  0.000000000
     0.000000000  0.000000000 40.000000000     0.000000000  0.000000000  0.025000000

  length of vectors
    40.000000000 40.000000000 40.000000000     0.025000000  0.025000000  0.025000000


 FORCES acting on ions
    electron-ion (+dipol)            ewald-force                    non-local-force                 convergence-correction
 -----------------------------------------------------------------------------------------------
   0.762E+02 0.183E+03 -.712E+02   -.789E+02 -.185E+03 0.720E+02   0.112E+01 0.229E+01 -.805E+00   0.390E-03 -.423E-03 0.660E-04
   0.202E+03 0.970E+02 -.639E+02   -.205E+03 -.973E+02 0.643E+02   0.184E+01 0.837E+00 -.532E+00   0.177E-03 -.292E-03 -.151E-03
   0.218E+03 -.790E+02 0.288E+01   -.220E+03 0.798E+02 -.283E+01   0.164E+01 -.706E+00 -.745E-01   0.575E-03 0.178E-02 -.868E-03
   0.968E+02 -.190E+03 0.731E+02   -.983E+02 0.192E+03 -.738E+02   0.742E+00 -.181E+01 0.708E+00   -.112E-02 0.144E-02 -.815E-04
   -.222E+02 -.143E+03 0.858E+02   0.219E+02 0.145E+03 -.872E+02   -.772E+00 -.246E+01 0.125E+01   -.196E-02 0.995E-03 0.193E-03
   0.472E+02 0.309E+02 -.521E+00   -.543E+02 -.270E+02 0.152E+00   0.586E+01 -.264E+01 0.262E+00   -.464E-03 -.111E-02 0.449E-03
   -.472E+02 0.309E+02 0.548E+00   0.543E+02 -.270E+02 -.167E+00   -.586E+01 -.264E+01 -.262E+00   0.463E-03 -.111E-02 -.449E-03
   0.222E+02 -.143E+03 -.858E+02   -.219E+02 0.145E+03 0.872E+02   0.772E+00 -.246E+01 -.125E+01   0.196E-02 0.995E-03 -.194E-03
   -.968E+02 -.190E+03 -.731E+02   0.983E+02 0.192E+03 0.738E+02   -.742E+00 -.181E+01 -.708E+00   0.112E-02 0.144E-02 0.816E-04
   -.218E+03 -.789E+02 -.288E+01   0.220E+03 0.798E+02 0.283E+01   -.164E+01 -.706E+00 0.745E-01   -.574E-03 0.178E-02 0.868E-03
   -.202E+03 0.970E+02 0.639E+02   0.205E+03 -.973E+02 -.643E+02   -.184E+01 0.837E+00 0.532E+00   -.177E-03 -.292E-03 0.150E-03
   -.762E+02 0.183E+03 0.711E+02   0.789E+02 -.185E+03 -.720E+02   -.112E+01 0.229E+01 0.805E+00   -.390E-03 -.423E-03 -.658E-04
   0.251E-04 0.191E+03 -.947E-04   -.111E-02 -.189E+03 0.413E-02   0.000E+00 0.194E+01 0.000E+00   -.118E-07 -.194E-02 0.134E-06
   -.949E+01 0.855E+02 0.338E+02   0.917E+01 -.909E+02 -.360E+02   0.905E+00 0.574E+01 0.219E+01   -.292E-04 0.466E-04 -.135E-05
   -.739E+02 0.452E+02 0.284E+02   0.787E+02 -.484E+02 -.305E+02   -.479E+01 0.333E+01 0.206E+01   0.141E-03 -.130E-03 -.389E-04
   -.843E+02 -.331E+02 -.219E+01   0.899E+02 0.354E+02 0.235E+01   -.573E+01 -.238E+01 -.169E+00   -.287E-04 0.164E-03 0.100E-03
   -.250E+02 -.807E+02 -.339E+02   0.261E+02 0.863E+02 0.362E+02   -.962E+00 -.563E+01 -.239E+01   0.138E-03 -.280E-03 -.169E-03
   0.336E+02 -.611E+02 -.468E+02   -.380E+02 0.643E+02 0.492E+02   0.468E+01 -.326E+01 -.250E+01   0.702E-04 0.339E-03 0.121E-03
   0.721E-05 0.114E+03 -.439E-05   -.315E-03 -.121E+03 0.194E-03   -.678E-20 0.803E+01 -.212E-21   -.867E-08 -.488E-04 0.253E-07
   -.336E+02 -.611E+02 0.468E+02   0.380E+02 0.643E+02 -.492E+02   -.468E+01 -.326E+01 0.250E+01   -.702E-04 0.339E-03 -.121E-03
   0.250E+02 -.807E+02 0.339E+02   -.261E+02 0.863E+02 -.362E+02   0.962E+00 -.563E+01 0.239E+01   -.138E-03 -.280E-03 0.169E-03
   0.843E+02 -.331E+02 0.219E+01   -.899E+02 0.354E+02 -.235E+01   0.573E+01 -.238E+01 0.169E+00   0.286E-04 0.164E-03 -.100E-03
   0.739E+02 0.452E+02 -.285E+02   -.787E+02 -.484E+02 0.305E+02   0.479E+01 0.333E+01 -.206E+01   -.141E-03 -.130E-03 0.388E-04
   0.949E+01 0.855E+02 -.338E+02   -.917E+01 -.909E+02 0.360E+02   -.905E+00 0.574E+01 -.219E+01   0.291E-04 0.467E-04 0.138E-05
 -----------------------------------------------------------------------------------------------
   -.294E-02 0.341E+01 -.148E-01   -.135E-12 -.568E-13 -.711E-14   0.133E-14 -.342E+01 -.888E-15   0.204E-06 0.307E-02 0.367E-06
 
 
 POSITION                                       TOTAL-FORCE (eV/Angst)
 -----------------------------------------------------------------------------------
     17.66569     18.75720     20.42886        -0.008138      0.004376     -0.002232
     16.39782     19.30038     20.41202        -0.010815     -0.005204     -0.003264
     16.19430     20.59637     19.92597         0.002721      0.010681     -0.003066
     17.27377     21.34800     19.45012         0.009956     -0.004210      0.005232
     18.55450     20.83125     19.47540         0.009833     -0.006146      0.005398
     18.75999     19.53037     19.98229        -0.005655     -0.002289     -0.004918
     21.24001     19.53037     20.01767         0.005655     -0.002289      0.004918
     21.44550     20.83125     20.52456        -0.009833     -0.006146     -0.005398
     22.72623     21.34800     20.54988        -0.009956     -0.004210     -0.005232
     23.80570     20.59633     20.07403        -0.002721      0.010681      0.003066
     23.60218     19.30034     19.58802         0.010815     -0.005204      0.003264
     22.33431     18.75716     19.57118         0.008138      0.004376      0.002232
     20.00000     18.93865     20.00000         0.000000     -0.000982     -0.000000
     22.15969     17.75738     19.19380         0.002963     -0.007905      0.007249
     24.44034     18.71757     19.22673        -0.000712      0.002332      0.001781
     24.80542     21.01167     20.10348        -0.001743      0.000163     -0.007365
     22.89411     22.33268     20.96754         0.002522      0.010692     -0.008806
     20.62055     21.38704     20.94926         0.006952     -0.002400     -0.001679
     20.00000     17.92157     20.00000         0.000000      0.000802     -0.000000
     19.37945     21.38704     19.05070        -0.006952     -0.002400      0.001679
     17.10589     22.33268     19.03246        -0.002522      0.010692      0.008806
     15.19458     21.01171     19.89656         0.001743      0.000163      0.007365
     15.55966     18.71761     20.77331         0.000712      0.002332     -0.001781
     17.84031     17.75738     20.80620        -0.002963     -0.007905     -0.007249
 -----------------------------------------------------------------------------------
    total drift:                               -0.002936     -0.013362     -0.014846


--------------------------------------------------------------------------------------------------------



  FREE ENERGIE OF THE ION-ELECTRON SYSTEM (eV)
  ---------------------------------------------------
  free  energy   TOTEN  =      -161.84959006 eV

  energy  without entropy=     -161.84959006  energy(sigma->0) =     -161.84959006
 
 d Force = 0.5649435E-04[ 0.334E-04, 0.796E-04]  d Energy = 0.5217720E-04 0.432E-05
 d Force =-0.2750629E+00[-0.275E+00,-0.275E+00]  d Ewald  =-0.2750629E+00 0.590E-08


--------------------------------------------------------------------------------------------------------


    POTLOK:  cpu time     94.2689: real time     95.0547


--------------------------------------------------------------------------------------------------------


 Conjugate gradient step on ions:
 trial-energy change:   -0.000052  1 .order   -0.000056   -0.000080   -0.000033
  (g-gl).g = 0.274E-03      g.g   = 0.250E-03  gl.gl    = 0.248E-03
 g(Force)  = 0.250E-03   g(Stress)= 0.000E+00 ortho     = 0.184E-05
 gamma     =   1.10585
 trial     =   0.31592
 opt step  =   0.54383  (harmonic =   0.54383) maximal distance =0.00140279
 next E    =  -161.849606   (d E  =  -0.00007)


--------------------------------------------------------------------------------------------------------


  
 reached required accuracy - stopping structural energy minimisation
 writing wavefunctions
     LOOP+:  cpu time    984.1287: real time    993.7367
    4ORBIT:  cpu time      0.0000: real time      0.0000

 total amount of memory used by VASP MPI-rank0  1010962. kBytes
=======================================================================

   base      :      30000. kBytes
   nonlr-proj:       2356. kBytes
   fftplans  :     192295. kBytes
   grid      :     734294. kBytes
   one-center:         18. kBytes
   wavefun   :      51999. kBytes
 
  
  
 General timing and accounting informations for this job:
 ========================================================
  
                  Total CPU time used (sec):    47246.965
                            User time (sec):    44020.894
                          System time (sec):     3226.073
                         Elapsed time (sec):    47479.870
  
                   Maximum memory used (kb):     6885064.
                   Average memory used (kb):          N/A
  
                          Minor page faults:    126725429
                          Major page faults:          150
                 Voluntary context switches:        13652
