
                                 *****************
                                 * O   R   C   A *
                                 *****************

                                            #,                                       
                                            ###                                      
                                            ####                                     
                                            #####                                    
                                            ######                                   
                                           ########,                                 
                                     ,,################,,,,,                         
                               ,,#################################,,                 
                          ,,##########################################,,             
                       ,#########################################, ''#####,          
                    ,#############################################,,   '####,        
                  ,##################################################,,,,####,       
                ,###########''''           ''''###############################       
              ,#####''   ,,,,##########,,,,          '''####'''          '####       
            ,##' ,,,,###########################,,,                        '##       
           ' ,,###''''                  '''############,,,                           
         ,,##''                                '''############,,,,        ,,,,,,###''
      ,#''                                            '''#######################'''  
     '                                                          ''''####''''         
             ,#######,   #######,   ,#######,      ##                                
            ,#'     '#,  ##    ##  ,#'     '#,    #''#        ,####,   ,####,        
            ##       ##  ##   ,#'  ##            #'  '#       #'       #'  '#        
            ##       ##  #######   ##           ,######,      #####,   #    #        
            '#,     ,#'  ##    ##  '#,     ,#' ,#      #,     #,   #   #,  ,#        
             '#######'   ##     ##  '#######'  #'      '#     '####' # '####'        



                #########################################################
                #                        -***-                          #
                #          Department of theory and spectroscopy        #
                #                                                       #
                #                      Frank Neese                      #
                #                                                       #
                #     Directorship, Architecture, Infrastructure        #
                #                    SHARK, DRIVERS                     #
                #        Core code/Algorithms in most modules           #
                #                                                       #
                #        Max Planck Institute fuer Kohlenforschung      #
                #                Kaiser Wilhelm Platz 1                 #
                #                 D-45470 Muelheim/Ruhr                 #
                #                      Germany                          #
                #                                                       #
                #                  All rights reserved                  #
                #                        -***-                          #
                #########################################################


                         Program Version 6.0.0  -   RELEASE  -


 With contributions from (in alphabetic order):
   Daniel Aravena         : Magnetic Suceptibility
   Michael Atanasov       : Ab Initio Ligand Field Theory (pilot matlab implementation)
   Alexander A. Auer      : GIAO ZORA, VPT2 properties, NMR spectrum
   Ute Becker             : All parallelization in ORCA, NUMFREQ, NUMCALC
   Giovanni Bistoni       : ED, misc. LED, open-shell LED, HFLD
   Martin Brehm           : Molecular dynamics
   Dmytro Bykov           : pre 5.0 version of the SCF Hessian
   Marcos Casanova-Páez   : Triplet and SCS-CIS(D). UHF-(DLPNO)-IP/EA/STEOM-CCSD. UHF-CVS-IP/STEOM-CCSD
   Vijay G. Chilkuri      : MRCI spin determinant printing, contributions to CSF-ICE
   Pauline Colinet        : FMM embedding
   Dipayan Datta          : RHF DLPNO-CCSD density
   Achintya Kumar Dutta   : EOM-CC, STEOM-CC
   Nicolas Foglia         : Exact transition moments, OPA infrastructure, MCD improvements
   Dmitry Ganyushin       : Spin-Orbit,Spin-Spin,Magnetic field MRCI
   Miquel Garcia          : C-PCM and meta-GGA Hessian, CCSD/C-PCM, Gaussian charge scheme
   Tiago L. C. Gouveia    : GS-ROHF, GS-ROCIS
   Yang Guo               : DLPNO-NEVPT2, F12-NEVPT2, CIM, IAO-localization
   Andreas Hansen         : Spin unrestricted coupled pair/coupled cluster methods
   Ingolf Harden          : AUTO-CI MPn and infrastructure 
   Benjamin Helmich-Paris : MC-RPA, TRAH-(SCF,CASSCF), AVAS, COSX integrals, SCF dyn. polar.
   Lee Huntington         : MR-EOM, pCC
   Robert Izsak           : Overlap fitted RIJCOSX, COSX-SCS-MP3, EOM
   Riya Kayal             : Wick's Theorem for AUTO-CI, AUTO-CI UHF-CCSDT
   Emily Kempfer          : AUTO-CI, RHF CISDT and CCSDT
   Christian Kollmar      : KDIIS, OOCD, Brueckner-CCSD(T), CCSD density, CASPT2, CASPT2-K, improved NEVPT2
   Axel Koslowski         : Symmetry handling
   Simone Kossmann        : Meta GGA functionals, TD-DFT gradient, OOMP2, (MP2 Hessian; deprecated post 5.0)
   Lucas Lang             : DCDCAS
   Marvin Lechner         : AUTO-CI (C++ implementation), FIC-MRCC
   Spencer Leger          : CASSCF response
   Dagmar Lenk            : GEPOL surface, SMD, ORCA-2-JSON
   Dimitrios Liakos       : Extrapolation schemes; Compound Job, initial MDCI parallelization
   Dimitrios Manganas     : Further ROCIS development; embedding schemes. LFT, Crystal Embedding
   Dimitrios Pantazis     : SARC Basis sets
   Anastasios Papadopoulos: AUTO-CI, single reference methods and gradients
   Taras Petrenko         : pre 6.0 DFT Hessian and TD-DFT gradient, (ASA, deprecated), ECA, 1-Electron XAS/XES, NRVS
   Peter Pinski           : DLPNO-MP2, DLPNO-MP2 Gradient
   Christoph Reimann      : Effective Core Potentials
   Marius Retegan         : Local ZFS, SOC
   Christoph Riplinger    : Optimizer, TS searches, QM/MM, DLPNO-CCSD(T), (RO)-DLPNO pert. Triples
   Michael Roemelt        : Original ROCIS implementation
   Masaaki Saitow         : Open-shell DLPNO-CCSD energy and density
   Barbara Sandhoefer     : DKH picture change effects
   Kantharuban Sivalingam : CASSCF convergence/infrastructure, NEVPT2 and variants, FIC-MRCI
   Bernardo de Souza      : ESD, SOC TD-DFT
   Georgi Stoychev        : AutoAux, RI-MP2 NMR, DLPNO-MP2 response, X2C
   Van Anh Tran           : RI-MP2 g-tensors
   Willem Van den Heuvel  : Paramagnetic NMR
   Zikuan Wang            : NOTCH, Electric field optimization 
   Frank Wennmohs         : Technical directorship and infrastructure
   Hang Xu                : AUTO-CI-Response properties 


 We gratefully acknowledge several colleagues who have allowed us to
 interface, adapt or use parts of their codes:
   Stefan Grimme, W. Hujo, H. Kruse, P. Pracht,  : VdW corrections, initial TS optimization,
                  C. Bannwarth, S. Ehlert,         DFT functionals, gCP, sTDA/sTD-DF
                  L. Wittmann, M. Mueller
   Ed Valeev, F. Pavosevic, A. Kumar             : LibInt (2-el integral package), F12 methods
   Garnet Chan, S. Sharma, J. Yang, R. Olivares  : DMRG
   Ulf Ekstrom                                   : XCFun DFT Library
   Mihaly Kallay                                 : mrcc  (arbitrary order and MRCC methods)
   Frank Weinhold                                : gennbo (NPA and NBO analysis)
   Simon Mueller                                 : openCOSMO-RS
   Christopher J. Cramer and Donald G. Truhlar   : smd solvation model
   Lars Goerigk                                  : TD-DFT with DH, B97 family of functionals
   V. Asgeirsson, H. Jonsson                     : NEB implementation
   FAccTs GmbH                                   : IRC, NEB, NEB-TS, DLPNO-Multilevel, CI-OPT
                                                   MM, QMMM, 2- and 3-layer-ONIOM, Crystal-QMMM,
                                                   LR-CPCM, SF, NACMEs, symmetry and pop. for TD-DFT,
                                                   nearIR, NL-DFT gradient (VV10), updates on ESD,
                                                   ML-optimized integration grids, MBIS, APM,
                                                   GOAT, DOCKER, SOLVATOR, interface openCOSMO-RS
   S Lehtola, MJT Oliveira, MAL Marques          : LibXC Library
   Liviu Ungur et al                             : ANISO software


 Your calculation uses the libint2 library for the computation of 2-el integrals
 For citations please refer to: http://libint.valeyev.net

 Your ORCA version has been built with support for libXC version: 6.2.2
 For citations please refer to: https://libxc.gitlab.io

 This ORCA versions uses:
   CBLAS   interface :  Fast vector & matrix operations
   LAPACKE interface :  Fast linear algebra routines
   SCALAPACK package :  Parallel linear algebra routines
   Shared memory     :  Shared parallel matrices
   BLAS/LAPACK       :  OpenBLAS 0.3.27  USE64BITINT DYNAMIC_ARCH NO_AFFINITY Sandybridge SINGLE_THREADED
        Core in use  :  Sandybridge
   Copyright (c) 2011-2014, The OpenBLAS Project


NOTE: MaxCore=3500 MB was set to SCF,MP2,MDCI,CIPSI,MRCI and CIS
      => If you want to overwrite this, your respective input block should be placed after the MaxCore statement
Your calculation utilizes the atom-pairwise dispersion correction
with the Becke-Johnson damping scheme (D3BJ)


Your calculation utilizes the SMD solvation module
Please cite in your paper:
A.V. Marenich, C.J. Cramer, D.G. Truhlar J. Phys. Chem. B, 113, (2009), 6378 

Warning: RI is on but no J-basis has been assigned. Assigning Def2/J (nothing to worry about!)
================================================================================

----- Orbital basis set information -----
Your calculation utilizes the basis: def2-SV(P)
   F. Weigend and R. Ahlrichs, Phys. Chem. Chem. Phys. 7, 3297 (2005).

----- AuxJ basis set information -----
Your calculation utilizes the auxiliary basis: def2/J
   F. Weigend, Phys. Chem. Chem. Phys. 8, 1057 (2006).

================================================================================
                                        WARNINGS
                       Please study these warnings very carefully!
================================================================================


WARNING: Geometry Optimization
  ===> : Switching off AutoStart
         For restart on a previous wavefunction, please use MOREAD

================================================================================
                                       INPUT FILE
================================================================================
NAME = cs_rporg_015_red_opt_03.inp
|  1> !PBE0 opt def2-SV(p) d3 TightSCF SlowConv RIJCOSX defgrid2
|  2> 
|  3> %pal
|  4> nprocs 8
|  5> end
|  6> 
|  7> %scf
|  8> MaxIter 1500
|  9> end
| 10> 
| 11> %maxcore 3500
| 12> 
| 13> !CPCM
| 14> %cpcm smd true
| 15> SMDsolvent "MeCN"
| 16> surfacetype gepol_ses
| 17> rsolv 2.19
| 18> end 
| 19> 
| 20> * xyz 0 1
| 21> C           2.39749463161436     -0.83149819893554      0.67669387485363
| 22> C           1.27172397639116     -0.40047992295486     -0.03969915484816
| 23> C           1.38259238776027      0.76303550152059     -0.81642324820039
| 24> C           2.58576374302039      1.45963699946448     -0.89073073539891
| 25> C           3.70030483512470      1.01412413753758     -0.17987702815859
| 26> C           3.60056124987950     -0.13306932613824      0.60654243714533
| 27> H           4.46466138277505     -0.48209902986176      1.17996120108222
| 28> H           4.64383968195764      1.56540648474814     -0.23276704782048
| 29> H           2.65415437190379      2.35888092106518     -1.51038356423303
| 30> H           0.51264382726920      1.11680700092055     -1.37721808377949
| 31> C          -0.00001123541006     -1.16417502511622     -0.00002273576044
| 32> C          -0.00001884782649     -2.50996676952303     -0.00003277235160
| 33> H          -0.93225135885572     -3.07886784376654      0.08064455143521
| 34> H           0.93220419630722     -3.07888213761201     -0.08071574786352
| 35> C          -1.27174210287451     -0.40047320911747      0.03966757754902
| 36> C          -2.39750985071673     -0.83146289450512     -0.67674719863415
| 37> C          -3.60057439169967     -0.13303092760862     -0.60657919634084
| 38> C          -3.70031659242385      1.01413981080717      0.17987332068473
| 39> C          -2.58577653905984      1.45962201354211      0.89074922577948
| 40> C          -1.38260956202413      0.76301589591316      0.81642903255360
| 41> H          -0.51266418903044      1.11676009652396      1.37724534040847
| 42> H          -2.65416367308445      2.35884547498639      1.51043035509866
| 43> H          -4.64384894904450      1.56542539828851      0.23277593005599
| 44> H          -4.46467229568686     -0.48204204645132     -1.18001194866167
| 45> H          -2.31694066862491     -1.71619568559047     -1.31480317865473
| 46> H           2.31692587235889     -1.71625071813661      1.31472229405965
| 47> *
| 48> 
| 49>                          ****END OF INPUT****
================================================================================

                       *****************************
                       * Geometry Optimization Run *
                       *****************************

Geometry optimization settings:
Update method            Update   .... BFGS
Choice of coordinates    CoordSys .... (2022) Redundant Internals
Initial Hessian          InHess   .... Almloef's Model
Max. no of cycles        MaxIter  .... 78

Convergence Tolerances:
Energy Change            TolE     ....  5.0000e-06 Eh
Max. Gradient            TolMAXG  ....  3.0000e-04 Eh/bohr
RMS Gradient             TolRMSG  ....  1.0000e-04 Eh/bohr
Max. Displacement        TolMAXD  ....  4.0000e-03 bohr
RMS Displacement         TolRMSD  ....  2.0000e-03 bohr
Strict Convergence                .... False

------------------------------------------------------------------------------
                        ORCA OPTIMIZATION COORDINATE SETUP
------------------------------------------------------------------------------

The optimization will be done in redundant internal coordinates (2022)
Making redundant internal coordinates   ...  (2022 redundants) done
Evaluating the initial hessian          ...  (Almloef) done
Evaluating the coordinates              ...  done
Calculating the B-matrix                .... done
Calculating the G-matrix                .... done
Diagonalizing the G-matrix              .... done
Small eigenvalue found = 6.499e-03
Small eigenvalue found = 2.178e-02
The first mode is                       ....   57
The number of degrees of freedom        ....   72

    -----------------------------------------------------------------
                    Redundant Internal Coordinates


    -----------------------------------------------------------------
         Definition                    Initial Value    Approx d2E/dq
    -----------------------------------------------------------------
      1. B(C   1,C   0)                  1.4023         0.597263   
      2. B(C   2,C   1)                  1.4033         0.594918   
      3. B(C   3,C   2)                  1.3923         0.619624   
      4. B(C   4,C   3)                  1.3950         0.613448   
      5. B(C   5,C   4)                  1.3944         0.614693   
      6. B(C   5,C   0)                  1.3929         0.618238   
      7. B(H   6,C   5)                  1.0942         0.354571   
      8. B(H   7,C   4)                  1.0941         0.354769   
      9. B(H   8,C   3)                  1.0942         0.354579   
     10. B(H   9,C   2)                  1.0938         0.355074   
     11. B(C  10,C   1)                  1.4840         0.442429   
     12. B(C  11,C  10)                  1.3458         0.734971   
     13. B(H  12,C  11)                  1.0951         0.353434   
     14. B(H  13,C  11)                  1.0951         0.353434   
     15. B(C  14,C  10)                  1.4840         0.442429   
     16. B(C  15,C  14)                  1.4023         0.597263   
     17. B(C  16,C  15)                  1.3929         0.618237   
     18. B(C  17,C  16)                  1.3944         0.614693   
     19. B(C  18,C  17)                  1.3950         0.613446   
     20. B(C  19,C  18)                  1.3923         0.619625   
     21. B(C  19,C  14)                  1.4033         0.594921   
     22. B(H  20,C  19)                  1.0938         0.355074   
     23. B(H  21,C  18)                  1.0942         0.354580   
     24. B(H  22,C  17)                  1.0941         0.354769   
     25. B(H  23,C  16)                  1.0942         0.354571   
     26. B(H  24,C  15)                  1.0938         0.355132   
     27. B(H  25,C   0)                  1.0938         0.355132   
     28. A(C   1,C   0,H  25)          119.1767         0.349865   
     29. A(C   5,C   0,H  25)          119.9078         0.351911   
     30. A(C   1,C   0,C   5)          120.9016         0.430940   
     31. A(C   2,C   1,C  10)          120.6099         0.405719   
     32. A(C   0,C   1,C  10)          121.0755         0.406001   
     33. A(C   0,C   1,C   2)          118.3061         0.427977   
     34. A(C   3,C   2,H   9)          119.8759         0.352035   
     35. A(C   1,C   2,C   3)          120.8402         0.430809   
     36. A(C   1,C   2,H   9)          119.2805         0.349623   
     37. A(C   4,C   3,H   8)          120.0728         0.351356   
     38. A(C   2,C   3,H   8)          119.6979         0.351951   
     39. A(C   2,C   3,C   4)          120.2292         0.433190   
     40. A(C   3,C   4,C   5)          119.5364         0.432568   
     41. A(C   3,C   4,H   7)          120.2303         0.351388   
     42. A(C   5,C   4,H   7)          120.2316         0.351508   
     43. A(C   0,C   5,H   6)          119.7192         0.351817   
     44. A(C   0,C   5,C   4)          120.1794         0.433173   
     45. A(C   4,C   5,H   6)          120.0980         0.351475   
     46. A(C  11,C  10,C  14)          120.9731         0.421242   
     47. A(C   1,C  10,C  14)          118.0535         0.385185   
     48. A(C   1,C  10,C  11)          120.9734         0.421242   
     49. A(C  10,C  11,H  13)          121.2995         0.362111   
     50. A(H  12,C  11,H  13)          117.4012         0.289139   
     51. A(C  10,C  11,H  12)          121.2992         0.362111   
     52. A(C  15,C  14,C  19)          118.3062         0.427977   
     53. A(C  10,C  14,C  19)          120.6099         0.405719   
     54. A(C  10,C  14,C  15)          121.0755         0.406001   
     55. A(C  14,C  15,C  16)          120.9016         0.430940   
     56. A(C  16,C  15,H  24)          119.9079         0.351911   
     57. A(C  14,C  15,H  24)          119.1766         0.349865   
     58. A(C  15,C  16,C  17)          120.1795         0.433173   
     59. A(C  17,C  16,H  23)          120.0981         0.351475   
     60. A(C  15,C  16,H  23)          119.7191         0.351817   
     61. A(C  16,C  17,C  18)          119.5363         0.432568   
     62. A(C  18,C  17,H  22)          120.2304         0.351388   
     63. A(C  16,C  17,H  22)          120.2316         0.351508   
     64. A(C  17,C  18,C  19)          120.2293         0.433190   
     65. A(C  19,C  18,H  21)          119.6978         0.351952   
     66. A(C  17,C  18,H  21)          120.0729         0.351356   
     67. A(C  14,C  19,H  20)          119.2805         0.349624   
     68. A(C  14,C  19,C  18)          120.8402         0.430809   
     69. A(C  18,C  19,H  20)          119.8760         0.352035   
     70. D(C   2,C   1,C   0,C   5)     -0.8048         0.024580   
     71. D(C  10,C   1,C   0,C   5)    178.1467         0.024580   
     72. D(C  10,C   1,C   0,H  25)     -3.2127         0.024580   
     73. D(C   2,C   1,C   0,H  25)    177.8358         0.024580   
     74. D(H   9,C   2,C   1,C   0)   -179.6543         0.024377   
     75. D(H   9,C   2,C   1,C  10)      1.3891         0.024377   
     76. D(C   3,C   2,C   1,C   0)      1.0104         0.024377   
     77. D(C   3,C   2,C   1,C  10)   -177.9462         0.024377   
     78. D(H   8,C   3,C   2,H   9)      0.0316         0.026565   
     79. D(H   8,C   3,C   2,C   1)    179.3630         0.026565   
     80. D(C   4,C   3,C   2,H   9)   -179.9229         0.026565   
     81. D(C   4,C   3,C   2,C   1)     -0.5915         0.026565   
     82. D(C   5,C   4,C   3,H   8)    179.9888         0.026007   
     83. D(C   5,C   4,C   3,C   2)     -0.0569         0.026007   
     84. D(H   7,C   4,C   3,C   2)   -179.5753         0.026007   
     85. D(H   7,C   4,C   3,H   8)      0.4704         0.026007   
     86. D(H   6,C   5,C   4,H   7)      0.4505         0.026119   
     87. D(C   0,C   5,C   4,H   7)    179.7799         0.026119   
     88. D(C   0,C   5,C   4,C   3)      0.2615         0.026119   
     89. D(H   6,C   5,C   0,H  25)      0.8801         0.026439   
     90. D(H   6,C   5,C   0,C   1)    179.5108         0.026439   
     91. D(H   6,C   5,C   4,C   3)   -179.0679         0.026119   
     92. D(C   4,C   5,C   0,H  25)   -178.4518         0.026439   
     93. D(C   4,C   5,C   0,C   1)      0.1789         0.026439   
     94. D(C  14,C  10,C   1,C   2)    -39.7865         0.013353   
     95. D(C  14,C  10,C   1,C   0)    141.2861         0.013353   
     96. D(C  11,C  10,C   1,C   2)    140.2136         0.013353   
     97. D(C  11,C  10,C   1,C   0)    -38.7138         0.013353   
     98. D(H  13,C  11,C  10,C   1)     -3.1591         0.038376   
     99. D(H  12,C  11,C  10,C  14)     -3.1591         0.038376   
    100. D(H  12,C  11,C  10,C   1)    176.8408         0.038376   
    101. D(H  13,C  11,C  10,C  14)    176.8411         0.038376   
    102. D(C  19,C  14,C  10,C  11)    140.2124         0.013353   
    103. D(C  19,C  14,C  10,C   1)    -39.7875         0.013353   
    104. D(C  15,C  14,C  10,C  11)    -38.7149         0.013353   
    105. D(C  15,C  14,C  10,C   1)    141.2852         0.013353   
    106. D(H  24,C  15,C  14,C  19)    177.8359         0.024580   
    107. D(H  24,C  15,C  14,C  10)     -3.2128         0.024580   
    108. D(C  16,C  15,C  14,C  19)     -0.8048         0.024580   
    109. D(C  16,C  15,C  14,C  10)    178.1465         0.024580   
    110. D(H  23,C  16,C  15,H  24)      0.8803         0.026439   
    111. D(H  23,C  16,C  15,C  14)    179.5111         0.026439   
    112. D(C  17,C  16,C  15,H  24)   -178.4516         0.026439   
    113. D(C  17,C  16,C  15,C  14)      0.1792         0.026439   
    114. D(H  22,C  17,C  16,H  23)      0.4505         0.026119   
    115. D(H  22,C  17,C  16,C  15)    179.7799         0.026119   
    116. D(C  18,C  17,C  16,H  23)   -179.0682         0.026119   
    117. D(C  18,C  17,C  16,C  15)      0.2611         0.026119   
    118. D(H  21,C  18,C  17,H  22)      0.4702         0.026007   
    119. D(H  21,C  18,C  17,C  16)    179.9890         0.026007   
    120. D(C  19,C  18,C  17,H  22)   -179.5755         0.026007   
    121. D(C  19,C  18,C  17,C  16)     -0.0568         0.026007   
    122. D(H  20,C  19,C  18,H  21)      0.0319         0.026565   
    123. D(C  14,C  19,C  18,H  21)    179.3631         0.026565   
    124. D(C  14,C  19,C  18,C  17)     -0.5914         0.026565   
    125. D(H  20,C  19,C  14,C  15)   -179.6547         0.024377   
    126. D(H  20,C  19,C  14,C  10)      1.3889         0.024377   
    127. D(H  20,C  19,C  18,C  17)   -179.9225         0.026565   
    128. D(C  18,C  19,C  14,C  15)      1.0102         0.024377   
    129. D(C  18,C  19,C  14,C  10)   -177.9461         0.024377   
    -----------------------------------------------------------------

Number of atoms                         .... 26
Number of degrees of freedom            .... 129


         *************************************************************
         *                GEOMETRY OPTIMIZATION CYCLE   1            *
         *************************************************************
---------------------------------
CARTESIAN COORDINATES (ANGSTROEM)
---------------------------------
  C      2.397495   -0.831498    0.676694
  C      1.271724   -0.400480   -0.039699
  C      1.382592    0.763036   -0.816423
  C      2.585764    1.459637   -0.890731
  C      3.700305    1.014124   -0.179877
  C      3.600561   -0.133069    0.606542
  H      4.464661   -0.482099    1.179961
  H      4.643840    1.565406   -0.232767
  H      2.654154    2.358881   -1.510384
  H      0.512644    1.116807   -1.377218
  C     -0.000011   -1.164175   -0.000023
  C     -0.000019   -2.509967   -0.000033
  H     -0.932251   -3.078868    0.080645
  H      0.932204   -3.078882   -0.080716
  C     -1.271742   -0.400473    0.039668
  C     -2.397510   -0.831463   -0.676747
  C     -3.600574   -0.133031   -0.606579
  C     -3.700317    1.014140    0.179873
  C     -2.585777    1.459622    0.890749
  C     -1.382610    0.763016    0.816429
  H     -0.512664    1.116760    1.377245
  H     -2.654164    2.358845    1.510430
  H     -4.643849    1.565425    0.232776
  H     -4.464672   -0.482042   -1.180012
  H     -2.316941   -1.716196   -1.314803
  H      2.316926   -1.716251    1.314722

----------------------------
CARTESIAN COORDINATES (A.U.)
----------------------------
  NO LB      ZA    FRAG     MASS         X           Y           Z
   0 C     6.0000    0    12.011    4.530608   -1.571304    1.278766
   1 C     6.0000    0    12.011    2.403210   -0.756797   -0.075021
   2 C     6.0000    0    12.011    2.612721    1.441928   -1.542816
   3 C     6.0000    0    12.011    4.886385    2.758314   -1.683237
   4 C     6.0000    0    12.011    6.992563    1.916417   -0.339918
   5 C     6.0000    0    12.011    6.804075   -0.251465    1.146199
   6 H     1.0000    0     1.008    8.436987   -0.911035    2.229804
   7 H     1.0000    0     1.008    8.775585    2.958190   -0.439866
   8 H     1.0000    0     1.008    5.015625    4.457639   -2.854211
   9 H     1.0000    0     1.008    0.968756    2.110459   -2.602565
  10 C     6.0000    0    12.011   -0.000021   -2.199972   -0.000043
  11 C     6.0000    0    12.011   -0.000036   -4.743150   -0.000062
  12 H     1.0000    0     1.008   -1.761700   -5.818217    0.152396
  13 H     1.0000    0     1.008    1.761611   -5.818244   -0.152531
  14 C     6.0000    0    12.011   -2.403244   -0.756785    0.074961
  15 C     6.0000    0    12.011   -4.530637   -1.571237   -1.278867
  16 C     6.0000    0    12.011   -6.804100   -0.251392   -1.146269
  17 C     6.0000    0    12.011   -6.992585    1.916447    0.339911
  18 C     6.0000    0    12.011   -4.886410    2.758286    1.683272
  19 C     6.0000    0    12.011   -2.612753    1.441891    1.542827
  20 H     1.0000    0     1.008   -0.968795    2.110371    2.602617
  21 H     1.0000    0     1.008   -5.015642    4.457572    2.854300
  22 H     1.0000    0     1.008   -8.775603    2.958225    0.439883
  23 H     1.0000    0     1.008   -8.437008   -0.910927   -2.229899
  24 H     1.0000    0     1.008   -4.378383   -3.243140   -2.484618
  25 H     1.0000    0     1.008    4.378355   -3.243244    2.484465

--------------------------------
INTERNAL COORDINATES (ANGSTROEM)
--------------------------------
 C      0   0   0     0.000000000000     0.00000000     0.00000000
 C      1   0   0     1.402267911419     0.00000000     0.00000000
 C      2   1   0     1.403338970037   118.30614544     0.00000000
 C      3   2   1     1.392263107214   120.84024630     1.01040317
 C      4   3   2     1.394989802554   120.22920536   359.40849518
 C      1   2   3     1.392872356877   120.90160251   359.19521947
 H      6   1   2     1.094211977903   119.71922087   179.51078420
 H      5   4   3     1.094060138984   120.23030173   180.42467309
 H      4   3   2     1.094205893302   119.69793347   179.36296274
 H      3   2   1     1.093826137602   119.28053777   180.34569495
 C      2   1   3     1.483952450799   121.07550311   178.95149421
 C     11   2   1     1.345791744466   120.97342712   321.28617880
 H     12  11   2     1.095086625555   121.29922324   176.84078651
 H     12  11   2     1.095086408736   121.29953330   356.84094339
 C     11   2   1     1.483952554495   118.05346705   141.28607519
 C     15  11   2     1.402267899699   121.07548607   141.28524352
 C     16  15  11     1.392872948513   120.90156792   178.14647618
 C     17  16  15     1.394437797544   120.17945179     0.17917756
 C     18  17  16     1.394990493140   119.53627757     0.26114649
 C     19  18  17     1.392262313240   120.22929282   359.94323053
 H     20  19  18     1.093825782570   119.87595935   180.07746912
 H     19  18  17     1.094204887462   120.07290963   179.98895496
 H     18  17  16     1.094060232818   120.23161271   179.77985021
 H     17  16  15     1.094211620385   119.71908537   179.51108267
 H     16  15  11     1.093781942786   119.17664359   356.78716390
 H      1   2   3     1.093781792185   119.17666570   177.83576139

---------------------------
INTERNAL COORDINATES (A.U.)
---------------------------
 C      0   0   0     0.000000000000     0.00000000     0.00000000
 C      1   0   0     2.649902318968     0.00000000     0.00000000
 C      2   1   0     2.651926326430   118.30614544     0.00000000
 C      3   2   1     2.630995978997   120.84024630     1.01040317
 C      4   3   2     2.636148686439   120.22920536   359.40849518
 C      1   2   3     2.632147294008   120.90160251   359.19521947
 H      6   1   2     2.067760970693   119.71922087   179.51078420
 H      5   4   3     2.067474036720   120.23030173   180.42467309
 H      4   3   2     2.067749472464   119.69793347   179.36296274
 H      3   2   1     2.067031838192   119.28053777   180.34569495
 C      2   1   3     2.804263727771   121.07550311   178.95149421
 C     11   2   1     2.543177830332   120.97342712   321.28617880
 H     12  11   2     2.069413815218   121.29922324   176.84078651
 H     12  11   2     2.069413405491   121.29953330   356.84094339
 C     11   2   1     2.804263923728   118.05346705   141.28607519
 C     15  11   2     2.649902296820   121.07548607   141.28524352
 C     16  15  11     2.632148412037   120.90156792   178.14647618
 C     17  16  15     2.635105548146   120.17945179     0.17917756
 C     18  17  16     2.636149991458   119.53627757     0.26114649
 C     19  18  17     2.630994478603   120.22929282   359.94323053
 H     20  19  18     2.067031167279   119.87595935   180.07746912
 H     19  18  17     2.067747571702   120.07290963   179.98895496
 H     18  17  16     2.067474214040   120.23161271   179.77985021
 H     17  16  15     2.067760295081   119.71908537   179.51108267
 H     16  15  11     2.066948322094   119.17664359   356.78716390
 H      1   2   3     2.066948037499   119.17666570   177.83576139

---------------------
BASIS SET INFORMATION
---------------------
There are 2 groups of distinct atoms

 Group   1 Type C   : 7s4p1d contracted to 3s2p1d pattern {511/31/1}
 Group   2 Type H   : 4s contracted to 2s pattern {31}

Atom   0C    basis set group =>   1
Atom   1C    basis set group =>   1
Atom   2C    basis set group =>   1
Atom   3C    basis set group =>   1
Atom   4C    basis set group =>   1
Atom   5C    basis set group =>   1
Atom   6H    basis set group =>   2
Atom   7H    basis set group =>   2
Atom   8H    basis set group =>   2
Atom   9H    basis set group =>   2
Atom  10C    basis set group =>   1
Atom  11C    basis set group =>   1
Atom  12H    basis set group =>   2
Atom  13H    basis set group =>   2
Atom  14C    basis set group =>   1
Atom  15C    basis set group =>   1
Atom  16C    basis set group =>   1
Atom  17C    basis set group =>   1
Atom  18C    basis set group =>   1
Atom  19C    basis set group =>   1
Atom  20H    basis set group =>   2
Atom  21H    basis set group =>   2
Atom  22H    basis set group =>   2
Atom  23H    basis set group =>   2
Atom  24H    basis set group =>   2
Atom  25H    basis set group =>   2
---------------------------------
AUXILIARY/J BASIS SET INFORMATION
---------------------------------
There are 2 groups of distinct atoms

 Group   1 Type C   : 12s5p4d2f1g contracted to 6s4p3d1f1g pattern {711111/2111/211/2/1}
 Group   2 Type H   : 5s2p1d contracted to 3s1p1d pattern {311/2/1}

Atom   0C    basis set group =>   1
Atom   1C    basis set group =>   1
Atom   2C    basis set group =>   1
Atom   3C    basis set group =>   1
Atom   4C    basis set group =>   1
Atom   5C    basis set group =>   1
Atom   6H    basis set group =>   2
Atom   7H    basis set group =>   2
Atom   8H    basis set group =>   2
Atom   9H    basis set group =>   2
Atom  10C    basis set group =>   1
Atom  11C    basis set group =>   1
Atom  12H    basis set group =>   2
Atom  13H    basis set group =>   2
Atom  14C    basis set group =>   1
Atom  15C    basis set group =>   1
Atom  16C    basis set group =>   1
Atom  17C    basis set group =>   1
Atom  18C    basis set group =>   1
Atom  19C    basis set group =>   1
Atom  20H    basis set group =>   2
Atom  21H    basis set group =>   2
Atom  22H    basis set group =>   2
Atom  23H    basis set group =>   2
Atom  24H    basis set group =>   2
Atom  25H    basis set group =>   2


           ************************************************************
           *        Program running with 8 parallel MPI-processes     *
           *              working on a common directory               *
           ************************************************************
------------------------------------------------------------------------------
                             ORCA STARTUP CALCULATIONS
                           -- RI-GTO INTEGRALS CHOSEN --
------------------------------------------------------------------------------
------------------------------------------------------------------------------
                   ___                                                        
                  /   \      - P O W E R E D   B Y -                         
                 /     \                                                     
                 |  |  |   _    _      __       _____    __    __             
                 |  |  |  | |  | |    /  \     |  _  \  |  |  /  |          
                  \  \/   | |  | |   /    \    | | | |  |  | /  /          
                 / \  \   | |__| |  /  /\  \   | |_| |  |  |/  /          
                |  |  |   |  __  | /  /__\  \  |    /   |      \           
                |  |  |   | |  | | |   __   |  |    \   |  |\   \          
                \     /   | |  | | |  |  |  |  | |\  \  |  | \   \       
                 \___/    |_|  |_| |__|  |__|  |_| \__\ |__|  \__/        
                                                                              
                      - O R C A' S   B I G   F R I E N D -                    
                                      &                                       
                       - I N T E G R A L  F E E D E R -                       
                                                                              
 v1 FN, 2020, v2 2021, v3 2022-2024                                           
------------------------------------------------------------------------------


----------------------
SHARK INTEGRAL PACKAGE
----------------------

Number of atoms                             ...     26
Number of basis functions                   ...    220
Number of shells                            ...    108
Maximum angular momentum                    ...      2
Integral batch strategy                     ... SHARK/LIBINT Hybrid
RI-J (if used) integral strategy            ... SPLIT-RIJ (Revised 2003 algorithm where possible)
Printlevel                                  ...      1
Contraction scheme used                     ... SEGMENTED contraction
Prescreening option                         ... SCHWARTZ
   Thresh                                   ... 2.500e-11
   Tcut                                     ... 2.500e-12
   Tpresel                                  ... 2.500e-12 
Coulomb Range Separation                    ... NOT USED
Exchange Range Separation                   ... NOT USED
Multipole approximations                    ... NOT USED
Finite Nucleus Model                        ... NOT USED
CABS basis                                  ... NOT available
Auxiliary Coulomb fitting basis             ... AVAILABLE
   # of basis functions in Aux-J            ...    818
   # of shells in Aux-J                     ...    270
   Maximum angular momentum in Aux-J        ...      4
Auxiliary J/K fitting basis                 ... NOT available
Auxiliary Correlation fitting basis         ... NOT available
Auxiliary 'external' fitting basis          ... NOT available

Checking pre-screening integrals            ... done (  0.1 sec) Dimension = 108
Check shell pair data                       ... done (  0.1 sec)
Shell pair information
Shell pair cut-off parameter TPreSel        ...   2.5e-12
Total number of shell pairs                 ...      5886
Shell pairs after pre-screening             ...      5197
Total number of primitive shell pairs       ...     23654
Primitive shell pairs kept                  ...     13993
          la=0 lb=0:   1916 shell pairs
          la=1 lb=0:   1688 shell pairs
          la=1 lb=1:    394 shell pairs
          la=2 lb=0:    758 shell pairs
          la=2 lb=1:    362 shell pairs
          la=2 lb=2:     79 shell pairs

Calculating one electron integrals          ... done (  0.0 sec)
Calculating RI/J V-Matrix + Cholesky decomp.... done (  0.1 sec)
Calculating Nuclear repulsion               ... done (  0.0 sec) ENN=    773.960574969796 Eh

Diagonalization of the overlap matrix:
Smallest eigenvalue                        ... 2.775e-04
Time for diagonalization                   ...    0.009 sec
Threshold for overlap eigenvalues          ... 1.000e-07
Number of eigenvalues below threshold      ... 0
Time for construction of square roots      ...    0.030 sec
Total time needed                          ...    0.101 sec

-------------------
DFT GRID GENERATION
-------------------

General Integration Accuracy     IntAcc      ... 4.388
Radial Grid Type                 RadialGrid  ... OptM3 with GC (2021)
Angular Grid (max. ang.)         AngularGrid ... 4 (Lebedev-302)
Angular grid pruning method      GridPruning ... 4 (adaptive)
Weight generation scheme         WeightScheme... mBecke (2022)
Basis function cutoff            BFCut       ... 1.0000e-11
Integration weight cutoff        WCut        ... 1.0000e-14
Partially contracted basis set               ... off
Rotationally invariant grid construction     ... off
Angular grids for H and He will be reduced by one unit

Total number of grid points                  ...   122325
Total number of batches                      ...     1929
Average number of points per batch           ...       63
Average number of grid points per atom       ...     4705

--------------------
COSX GRID GENERATION
--------------------

GRIDX 1
-------
General Integration Accuracy     IntAcc      ... 3.816
Radial Grid Type                 RadialGrid  ... OptM3 with GC (2021)
Angular Grid (max. ang.)         AngularGrid ... 1 (Lebedev-50)
Angular grid pruning method      GridPruning ... 4 (adaptive)
Weight generation scheme         WeightScheme... mBecke (2022)
Basis function cutoff            BFCut       ... 1.0000e-11
Integration weight cutoff        WCut        ... 1.0000e-14
Partially contracted basis set               ... on
Rotationally invariant grid construction     ... off
Angular grids for H and He will be reduced by one unit

Total number of grid points                  ...    15607
Total number of batches                      ...      133
Average number of points per batch           ...      117
Average number of grid points per atom       ...      600
UseSFitting                                  ... on

GRIDX 2
-------
General Integration Accuracy     IntAcc      ... 4.020
Radial Grid Type                 RadialGrid  ... OptM3 with GC (2021)
Angular Grid (max. ang.)         AngularGrid ... 2 (Lebedev-110)
Angular grid pruning method      GridPruning ... 4 (adaptive)
Weight generation scheme         WeightScheme... mBecke (2022)
Basis function cutoff            BFCut       ... 1.0000e-11
Integration weight cutoff        WCut        ... 1.0000e-14
Partially contracted basis set               ... on
Rotationally invariant grid construction     ... off
Angular grids for H and He will be reduced by one unit

Total number of grid points                  ...    33803
Total number of batches                      ...      279
Average number of points per batch           ...      121
Average number of grid points per atom       ...     1300
UseSFitting                                  ... on

GRIDX 3
-------
General Integration Accuracy     IntAcc      ... 4.338
Radial Grid Type                 RadialGrid  ... OptM3 with GC (2021)
Angular Grid (max. ang.)         AngularGrid ... 3 (Lebedev-194)
Angular grid pruning method      GridPruning ... 4 (adaptive)
Weight generation scheme         WeightScheme... mBecke (2022)
Basis function cutoff            BFCut       ... 1.0000e-11
Integration weight cutoff        WCut        ... 1.0000e-14
Partially contracted basis set               ... on
Rotationally invariant grid construction     ... off
Angular grids for H and He will be reduced by one unit

Total number of grid points                  ...    74089
Total number of batches                      ...      591
Average number of points per batch           ...      125
Average number of grid points per atom       ...     2850
UseSFitting                                  ... on
Initializing property integral containers    ... done (  0.2 sec)

SHARK setup successfully completed in   3.6 seconds

Maximum memory used throughout the entire STARTUP-calculation: 30.2 MB


           ************************************************************
           *        Program running with 8 parallel MPI-processes     *
           *              working on a common directory               *
           ************************************************************
-------------------------------------------------------------------------------
                                 ORCA GUESS
                   Start orbitals & Density for SCF / CASSCF
-------------------------------------------------------------------------------

------------
SCF SETTINGS
------------
Hamiltonian:
 Density Functional     Method          .... DFT(GTOs)
 Exchange Functional    Exchange        .... PBE
   PBE kappa parameter   XKappa         ....  0.804000
   PBE mue parameter    XMuePBE         ....  0.219520
 Correlation Functional Correlation     .... PBE
   PBE beta parameter  CBetaPBE         ....  0.066725
 LDA part of GGA corr.  LDAOpt          .... PW91-LDA
 Gradients option       PostSCFGGA      .... off
 Hybrid DFT is turned on
   Fraction HF Exchange ScalHFX         ....  0.250000
   Scaling of DF-GGA-X  ScalDFX         ....  0.750000
   Scaling of DF-GGA-C  ScalDFC         ....  1.000000
   Scaling of DF-LDA-C  ScalLDAC        ....  1.000000
   Perturbative correction              ....  0.000000
   NL short-range parameter             ....  6.900000
 RI-approximation to the Coulomb term is turned on
   Number of AuxJ basis functions       .... 818
   RIJ-COSX (HFX calculated with COS-X)).... on


General Settings:
 Integral files         IntName         .... cs_rporg_015_red_opt_03
 Hartree-Fock type      HFTyp           .... RHF
 Total Charge           Charge          ....    0
 Multiplicity           Mult            ....    1
 Number of Electrons    NEL             ....   96
 Basis Dimension        Dim             ....  220
 Nuclear Repulsion      ENuc            ....    773.9605749698 Eh

Convergence Acceleration:
 AO-DIIS                CNVDIIS         .... on
   Start iteration      DIISMaxIt       ....     0
   Startup error        DIISStart       ....  0.200000
   # of expansion vecs  DIISMaxEq       ....     5
   Bias factor          DIISBfac        ....   1.050
   Max. coefficient     DIISMaxC        ....  10.000
 MO-DIIS                CNVKDIIS        .... off
 Trust-Rad. Augm. Hess. CNVTRAH         .... auto
   Auto Start mean grad. ratio tolernc. ....  1.125000
   Auto Start start iteration           ....    50
   Auto Start num. interpolation iter.  ....    10
   Max. Number of Micro iterations      ....    24
   Max. Number of Macro iterations      .... Maxiter - #DIIS iter
   Number of Davidson start vectors     ....     2
   Converg. threshold    (grad. norm)   ....   1.000e-05
   Grad. Scal. Fac. for Micro threshold ....   0.100
   Minimum threshold for Micro iter.    ....   1.000e-02
   NR start threshold (gradient norm)   ....   1.000e-04
   Initial trust radius                 ....   0.400
   Minimum AH scaling param. (alpha)    ....   1.000
   Maximum AH scaling param. (alpha)    .... 1000.000
   Quad. conv. algorithm                .... NR
   White noise on init. David. guess    .... on
   Maximum white noise                  ....   0.010
   Pseudo random numbers                .... off
   Inactive MOs                         .... canonical
   Orbital update algorithm             .... Taylor
   Preconditioner                       .... Diag
   Full preconditioner red. dimension   ....   250
 SOSCF                  CNVSOSCF        .... on
   Start iteration      SOSCFMaxIt      ....   150
   Startup grad/error   SOSCFStart      ....  0.001000
   Hessian update       SOSCFHessUp     .... L-BFGS
 Level Shifting         CNVShift        .... on
   Level shift para.    LevelShift      ....    0.2500
   Turn off err/grad.   ShiftErr        ....    0.0000
 Zerner damping         CNVZerner       .... off
 Static damping         CNVDamp         .... on
   Fraction old density DampFac         ....    0.8500
   Max. Damping (<1)    DampMax         ....    0.9800
   Min. Damping (>=0)   DampMin         ....    0.0000
   Turn off err/grad.   DampErr         ....    0.0300

SCF Procedure:
 Maximum # iterations   MaxIter         ....  1500
 SCF integral mode      SCFMode         .... Direct
   Integral package                     .... SHARK and LIBINT hybrid scheme
 Reset frequency        DirectResetFreq ....    20
 Integral Threshold     Thresh          ....  2.500e-11 Eh
 Primitive CutOff       TCut            ....  2.500e-12 Eh

Convergence Tolerance:
 Convergence Check Mode ConvCheckMode   .... Total+1el-Energy
 Convergence forced     ConvForced      .... 0
 Energy Change          TolE            ....  1.000e-08 Eh
 1-El. energy change                    ....  1.000e-05 Eh
 Orbital Gradient       TolG            ....  1.000e-05
 Orbital Rotation angle TolX            ....  1.000e-05
 DIIS Error             TolErr          ....  5.000e-07

------------------------------
INITIAL GUESS: MODEL POTENTIAL
------------------------------
Loading Hartree-Fock densities                     ... done
Calculating cut-offs                               ... done
Initializing the effective Hamiltonian             ... done
Setting up the integral package (SHARK)            ... done
Starting the Coulomb interaction                   ... done (   0.3 sec)
Making the grid                                    ... done (   0.4 sec)
Mapping shells                                     ... done
Starting the XC term evaluation                    ... done (   0.1 sec)
  promolecular density results
     # of electrons  =     95.998393841
     EX              =    -75.086758875
     EC              =     -3.168122912
     EX+EC           =    -78.254881787
Transforming the Hamiltonian                       ... done (   0.1 sec)
Diagonalizing the Hamiltonian                      ... done (   0.0 sec)
Back transforming the eigenvectors                 ... done (   0.1 sec)
Now organizing SCF variables                       ... done
                      ------------------
                      INITIAL GUESS DONE (   1.3 sec)
                      ------------------
             **** ENERGY FILE WAS UPDATED (cs_rporg_015_red_opt_03.en.tmp) ****
Finished Guess after   2.4 sec
Maximum memory used throughout the entire GUESS-calculation: 16.8 MB


           ************************************************************
           *        Program running with 8 parallel MPI-processes     *
           *              working on a common directory               *
           ************************************************************

-------------------------------------------------------------------------------------------
                                      ORCA LEAN-SCF
                              memory conserving SCF solver
-------------------------------------------------------------------------------------------

--------------------
CPCM SOLVATION MODEL
--------------------
CPCM parameters:
  Epsilon                                         ...      35.6880
  Refrac                                          ...       1.3442
  Rsolv                                           ...       2.1900
  Surface type                                    ...    GEPOL SES
  Discretization scheme                           ... Constant num. charges
  Epsilon function type                           ...         CPCM
Solvent:                                          ... ACETONITRILE
SMD-CDS solvent descriptors:
  Soln                                            ...       1.3442
  Soln25                                          ...       1.3416
  Sola                                            ...       0.0700
  Solb                                            ...       0.3200
  Solg                                            ...      41.2500
  Solc                                            ...       0.0000
  Solh                                            ...       0.0000
Radii:
  Scheme                                          ... Element-dependent radii
  Radius for C  used is    3.4960 Bohr (=   1.8500 Ang.)
  Radius for H  used is    2.2677 Bohr (=   1.2000 Ang.)
Calculating surface                               ...        done! (  0.1s)
Cavity surface points                             ...          945
Cavity Volume                                     ...    1422.2660
Cavity Surface-area                               ...     775.7721
Calculating surface distance matrix               ...        done! (  0.0s)
Performing Cholesky decomposition & store         ...        done! (  0.1s)
Overall time for CPCM initialization              ...                 0.2s

----------------------------------------D-I-I-S--------------------------------------------
Iteration    Energy (Eh)           Delta-E    RMSDP     MaxDP     DIISErr   Damp  Time(sec)
-------------------------------------------------------------------------------------------
               ***  Starting incremental Fock matrix formation  ***
    1    -539.4223363708994157     0.00e+00  1.36e-03  2.96e-02  1.29e-01  0.850   4.4
    2    -539.4751699696106471    -5.28e-02  1.30e-03  2.69e-02  1.02e-01  0.850   4.8
                               ***Turning on AO-DIIS***
    3    -539.5136399122164903    -3.85e-02  8.62e-04  1.46e-02  7.53e-02  0.850   3.9
    4    -539.5404653756460220    -2.68e-02  6.47e-04  1.03e-02  6.04e-02  0.850   4.0
    5    -539.5605094220019282    -2.00e-02  5.23e-04  8.18e-03  5.01e-02  0.850   6.2
    6    -539.5763125464787890    -1.58e-02  4.38e-04  6.87e-03  4.21e-02  0.850   4.3
    7    -539.5891435830411638    -1.28e-02  3.73e-04  5.83e-03  3.54e-02  0.850   5.6
    8    -539.5996810589041388    -1.05e-02  3.17e-04  4.91e-03  2.98e-02  0.850   5.9
    9    -539.6083665228355812    -8.69e-03  1.79e-03  2.76e-02  2.51e-02  0.000   4.6
   10    -539.6529513513934262    -4.46e-02  6.18e-05  1.39e-03  1.42e-03  0.000   4.5
                              *** Initializing SOSCF ***
---------------------------------------S-O-S-C-F--------------------------------------
Iteration    Energy (Eh)           Delta-E    RMSDP     MaxDP     MaxGrad    Time(sec)
--------------------------------------------------------------------------------------
   11    -539.6529838895593230    -3.25e-05  1.98e-05  4.79e-04  5.43e-04     6.8
               *** Restarting incremental Fock matrix formation ***
   12    -539.6529188290304546     6.51e-05  3.72e-05  6.43e-04  7.80e-05     5.4
   13    -539.6529188060382012     2.30e-08  1.06e-05  2.42e-04  1.28e-04     4.4
   14    -539.6529191000280434    -2.94e-07  6.28e-06  1.12e-04  1.10e-05     4.5
   15    -539.6529191096250315    -9.60e-09  6.36e-07  1.89e-05  4.35e-06     3.9
                 **** Energy Check signals convergence ****

               *****************************************************
               *                     SUCCESS                       *
               *           SCF CONVERGED AFTER  15 CYCLES          *
               *****************************************************

Recomputing exchange energy using gridx3       ... done (    3.022 sec)
Old exchange energy                            :    -19.161989605 Eh
New exchange energy                            :    -19.161921303 Eh
Exchange energy change after final integration :      0.000068302 Eh
Total energy after final integration           :   -539.652850807 Eh

SMD CDS free energy correction energy :                -3.06003     Kcal/mol
Total Energy after SMD CDS correction =              -539.657727276 Eh
             **** ENERGY FILE WAS UPDATED (cs_rporg_015_red_opt_03.en.tmp) ****

----------------
TOTAL SCF ENERGY
----------------

Total Energy       :       -539.65772727581361 Eh          -14684.83332 eV

Components:
Nuclear Repulsion  :        773.96057496979586 Eh           21060.53794 eV
Electronic Energy  :      -1313.60228669458638 Eh          -35744.93546 eV
One Electron Energy:      -2263.19394699033819 Eh          -61584.63820 eV
Two Electron Energy:        949.59166029575169 Eh           25839.70274 eV
CPCM Dielectric    :         -0.01120738483453 Eh              -0.30497 eV
SMD CDS (Gcds)     :         -0.00487646865814 Eh              -0.13270 eV

Virial components:
Potential Energy   :      -1073.88468153178155 Eh          -29221.88780 eV
Kinetic Energy     :        534.22695425596794 Eh           14537.05447 eV
Virial Ratio       :          2.01016566643929

DFT components:
N(Alpha)           :       47.999955495034 electrons
N(Beta)            :       47.999955495034 electrons
N(Total)           :       95.999910990068 electrons
E(X)               :      -57.282253607111 Eh       
E(C)               :       -3.191360517661 Eh       
E(XC)              :      -60.473614124772 Eh       

CPCM Solvation Model Properties:
Surface-charge          :         -0.04340458829028
Corrected charge        :         -0.00000000000000
Outlying charge corr.   :          0.00011944187712 Eh               0.00325 eV
Free-energy (cav+disp)  :         -0.00487646865814 Eh              -0.13270 eV

---------------
SCF CONVERGENCE
---------------

  Last Energy change         ...    9.5970e-09  Tolerance :   1.0000e-08
  Last MAX-Density change    ...    1.8861e-05  Tolerance :   1.0000e-07
  Last RMS-Density change    ...    6.3567e-07  Tolerance :   5.0000e-09
  Last DIIS Error            ...    5.4348e-04  Tolerance :   5.0000e-07
  Last Orbital Gradient      ...    4.3525e-06  Tolerance :   1.0000e-05
  Last Orbital Rotation      ...    9.4681e-06  Tolerance :   1.0000e-05


----------------
ORBITAL ENERGIES
----------------

  NO   OCC          E(Eh)            E(eV) 
   0   2.0000     -10.253558      -279.0135 
   1   2.0000     -10.250364      -278.9266 
   2   2.0000     -10.250336      -278.9258 
   3   2.0000     -10.237674      -278.5813 
   4   2.0000     -10.237651      -278.5806 
   5   2.0000     -10.237368      -278.5729 
   6   2.0000     -10.237358      -278.5727 
   7   2.0000     -10.236995      -278.5628 
   8   2.0000     -10.236987      -278.5626 
   9   2.0000     -10.236714      -278.5552 
  10   2.0000     -10.236702      -278.5548 
  11   2.0000     -10.236398      -278.5466 
  12   2.0000     -10.236388      -278.5463 
  13   2.0000     -10.227954      -278.3168 
  14   2.0000      -0.892485       -24.2858 
  15   2.0000      -0.875852       -23.8331 
  16   2.0000      -0.824578       -22.4379 
  17   2.0000      -0.765652       -20.8345 
  18   2.0000      -0.765588       -20.8327 
  19   2.0000      -0.759908       -20.6782 
  20   2.0000      -0.733809       -19.9680 
  21   2.0000      -0.647436       -17.6176 
  22   2.0000      -0.624347       -16.9893 
  23   2.0000      -0.614851       -16.7309 
  24   2.0000      -0.612259       -16.6604 
  25   2.0000      -0.566188       -15.4067 
  26   2.0000      -0.540655       -14.7120 
  27   2.0000      -0.514005       -13.9868 
  28   2.0000      -0.481601       -13.1050 
  29   2.0000      -0.478281       -13.0147 
  30   2.0000      -0.465834       -12.6760 
  31   2.0000      -0.454024       -12.3546 
  32   2.0000      -0.452818       -12.3218 
  33   2.0000      -0.433953       -11.8085 
  34   2.0000      -0.433441       -11.7945 
  35   2.0000      -0.431318       -11.7368 
  36   2.0000      -0.397330       -10.8119 
  37   2.0000      -0.389031       -10.5861 
  38   2.0000      -0.388969       -10.5844 
  39   2.0000      -0.369628       -10.0581 
  40   2.0000      -0.358369        -9.7517 
  41   2.0000      -0.350803        -9.5458 
  42   2.0000      -0.345730        -9.4078 
  43   2.0000      -0.316165        -8.6033 
  44   2.0000      -0.275657        -7.5010 
  45   2.0000      -0.271606        -7.3908 
  46   2.0000      -0.268802        -7.3145 
  47   2.0000      -0.238356        -6.4860 
  48   0.0000      -0.039560        -1.0765 
  49   0.0000      -0.014982        -0.4077 
  50   0.0000      -0.011346        -0.3087 
  51   0.0000       0.001364         0.0371 
  52   0.0000       0.057534         1.5656 
  53   0.0000       0.082809         2.2534 
  54   0.0000       0.087600         2.3837 
  55   0.0000       0.115899         3.1538 
  56   0.0000       0.119256         3.2451 
  57   0.0000       0.125779         3.4226 
  58   0.0000       0.141031         3.8377 
*Only the first 10 virtual orbitals were printed.

                    ********************************
                    * MULLIKEN POPULATION ANALYSIS *
                    ********************************

-----------------------
MULLIKEN ATOMIC CHARGES
-----------------------
   0 C :   -0.158031
   1 C :    0.025808
   2 C :   -0.141493
   3 C :   -0.122067
   4 C :   -0.113833
   5 C :   -0.119731
   6 H :    0.125387
   7 H :    0.126730
   8 H :    0.125430
   9 H :    0.122920
  10 C :    0.015391
  11 C :   -0.298306
  12 H :    0.153746
  13 H :    0.153765
  14 C :    0.025994
  15 C :   -0.158067
  16 C :   -0.119731
  17 C :   -0.113835
  18 C :   -0.121827
  19 C :   -0.141332
  20 H :    0.122426
  21 H :    0.125421
  22 H :    0.126715
  23 H :    0.125375
  24 H :    0.116568
  25 H :    0.116576
Sum of atomic charges:   -0.0000000

--------------------------------
MULLIKEN REDUCED ORBITAL CHARGES
--------------------------------
  0 C s       :     3.268948  s :     3.268948
      pz      :     0.965478  p :     2.852578
      px      :     0.970927
      py      :     0.916173
      dz2     :     0.003926  d :     0.036504
      dxz     :     0.007598
      dyz     :     0.006655
      dx2y2   :     0.010065
      dxy     :     0.008260

  1 C s       :     3.013032  s :     3.013032
      pz      :     0.970188  p :     2.918318
      px      :     0.980171
      py      :     0.967959
      dz2     :     0.006826  d :     0.042842
      dxz     :     0.008088
      dyz     :     0.006637
      dx2y2   :     0.010418
      dxy     :     0.010873

  2 C s       :     3.259756  s :     3.259756
      pz      :     0.965909  p :     2.845204
      px      :     0.895096
      py      :     0.984200
      dz2     :     0.004228  d :     0.036533
      dxz     :     0.008135
      dyz     :     0.005653
      dx2y2   :     0.009671
      dxy     :     0.008846

  3 C s       :     3.214556  s :     3.214556
      pz      :     0.963109  p :     2.870334
      px      :     0.970300
      py      :     0.936924
      dz2     :     0.004011  d :     0.037177
      dxz     :     0.007507
      dyz     :     0.006737
      dx2y2   :     0.010417
      dxy     :     0.008504

  4 C s       :     3.210434  s :     3.210434
      pz      :     0.979716  p :     2.866281
      px      :     0.926453
      py      :     0.960112
      dz2     :     0.007033  d :     0.037118
      dxz     :     0.005672
      dyz     :     0.005425
      dx2y2   :     0.008268
      dxy     :     0.010721

  5 C s       :     3.214496  s :     3.214496
      pz      :     0.965929  p :     2.868071
      px      :     0.935228
      py      :     0.966914
      dz2     :     0.004371  d :     0.037164
      dxz     :     0.008498
      dyz     :     0.005660
      dx2y2   :     0.009458
      dxy     :     0.009176

  6 H s       :     0.874613  s :     0.874613

  7 H s       :     0.873270  s :     0.873270

  8 H s       :     0.874570  s :     0.874570

  9 H s       :     0.877080  s :     0.877080

 10 C s       :     3.048201  s :     3.048201
      pz      :     0.986148  p :     2.893184
      px      :     0.971650
      py      :     0.935386
      dz2     :     0.002961  d :     0.043224
      dxz     :     0.004627
      dyz     :     0.008216
      dx2y2   :     0.012257
      dxy     :     0.015163

 11 C s       :     3.243302  s :     3.243302
      pz      :     1.007993  p :     3.025970
      px      :     0.982412
      py      :     1.035564
      dz2     :     0.003465  d :     0.029034
      dxz     :     0.000206
      dyz     :     0.005180
      dx2y2   :     0.007321
      dxy     :     0.012862

 12 H s       :     0.846254  s :     0.846254

 13 H s       :     0.846235  s :     0.846235

 14 C s       :     3.013003  s :     3.013003
      pz      :     0.970139  p :     2.918161
      px      :     0.980108
      py      :     0.967915
      dz2     :     0.006827  d :     0.042841
      dxz     :     0.008087
      dyz     :     0.006637
      dx2y2   :     0.010418
      dxy     :     0.010872

 15 C s       :     3.268956  s :     3.268956
      pz      :     0.965492  p :     2.852607
      px      :     0.970935
      py      :     0.916180
      dz2     :     0.003926  d :     0.036504
      dxz     :     0.007598
      dyz     :     0.006655
      dx2y2   :     0.010065
      dxy     :     0.008260

 16 C s       :     3.214501  s :     3.214501
      pz      :     0.965916  p :     2.868067
      px      :     0.935224
      py      :     0.966927
      dz2     :     0.004371  d :     0.037164
      dxz     :     0.008498
      dyz     :     0.005660
      dx2y2   :     0.009458
      dxy     :     0.009176

 17 C s       :     3.210435  s :     3.210435
      pz      :     0.979693  p :     2.866284
      px      :     0.926464
      py      :     0.960127
      dz2     :     0.007033  d :     0.037116
      dxz     :     0.005672
      dyz     :     0.005424
      dx2y2   :     0.008267
      dxy     :     0.010720

 18 C s       :     3.214480  s :     3.214480
      pz      :     0.962966  p :     2.870172
      px      :     0.970272
      py      :     0.936934
      dz2     :     0.004011  d :     0.037175
      dxz     :     0.007507
      dyz     :     0.006737
      dx2y2   :     0.010416
      dxy     :     0.008504

 19 C s       :     3.259568  s :     3.259568
      pz      :     0.965868  p :     2.845232
      px      :     0.895056
      py      :     0.984308
      dz2     :     0.004227  d :     0.036532
      dxz     :     0.008136
      dyz     :     0.005653
      dx2y2   :     0.009671
      dxy     :     0.008845

 20 H s       :     0.877574  s :     0.877574

 21 H s       :     0.874579  s :     0.874579

 22 H s       :     0.873285  s :     0.873285

 23 H s       :     0.874625  s :     0.874625

 24 H s       :     0.883432  s :     0.883432

 25 H s       :     0.883424  s :     0.883424



                     *******************************
                     * LOEWDIN POPULATION ANALYSIS *
                     *******************************

----------------------
LOEWDIN ATOMIC CHARGES
----------------------
   0 C :   -0.125408
   1 C :   -0.045215
   2 C :   -0.123995
   3 C :   -0.136828
   4 C :   -0.137564
   5 C :   -0.136636
   6 H :    0.142812
   7 H :    0.142362
   8 H :    0.142731
   9 H :    0.141178
  10 C :   -0.040273
  11 C :   -0.245942
  12 H :    0.138283
  13 H :    0.138294
  14 C :   -0.045156
  15 C :   -0.125413
  16 C :   -0.136617
  17 C :   -0.137539
  18 C :   -0.136719
  19 C :   -0.123951
  20 H :    0.140950
  21 H :    0.142726
  22 H :    0.142354
  23 H :    0.142805
  24 H :    0.141378
  25 H :    0.141383

-------------------------------
LOEWDIN REDUCED ORBITAL CHARGES
-------------------------------
  0 C s       :     2.900691  s :     2.900691
      pz      :     1.024582  p :     3.134101
      px      :     1.065055
      py      :     1.044464
      dz2     :     0.009049  d :     0.090616
      dxz     :     0.019247
      dyz     :     0.013581
      dx2y2   :     0.026493
      dxy     :     0.022245

  1 C s       :     2.849931  s :     2.849931
      pz      :     1.016245  p :     3.085529
      px      :     1.035572
      py      :     1.033713
      dz2     :     0.015041  d :     0.109754
      dxz     :     0.020181
      dyz     :     0.017641
      dx2y2   :     0.027889
      dxy     :     0.029003

  2 C s       :     2.900308  s :     2.900308
      pz      :     1.016374  p :     3.133180
      px      :     1.074341
      py      :     1.042466
      dz2     :     0.009455  d :     0.090506
      dxz     :     0.018070
      dyz     :     0.014224
      dx2y2   :     0.024583
      dxy     :     0.024174

  3 C s       :     2.900242  s :     2.900242
      pz      :     1.018860  p :     3.144601
      px      :     1.079047
      py      :     1.046695
      dz2     :     0.009069  d :     0.091985
      dxz     :     0.019183
      dyz     :     0.013582
      dx2y2   :     0.027158
      dxy     :     0.022993

  4 C s       :     2.902105  s :     2.902105
      pz      :     1.020790  p :     3.143970
      px      :     1.071189
      py      :     1.051991
      dz2     :     0.014708  d :     0.091489
      dxz     :     0.014665
      dyz     :     0.015051
      dx2y2   :     0.021297
      dxy     :     0.025769

  5 C s       :     2.900585  s :     2.900585
      pz      :     1.019454  p :     3.144181
      px      :     1.071740
      py      :     1.052987
      dz2     :     0.009764  d :     0.091870
      dxz     :     0.018755
      dyz     :     0.014532
      dx2y2   :     0.024169
      dxy     :     0.024651

  6 H s       :     0.857188  s :     0.857188

  7 H s       :     0.857638  s :     0.857638

  8 H s       :     0.857269  s :     0.857269

  9 H s       :     0.858822  s :     0.858822

 10 C s       :     2.857544  s :     2.857544
      pz      :     0.950224  p :     3.073106
      px      :     1.024492
      py      :     1.098390
      dz2     :     0.007227  d :     0.109623
      dxz     :     0.009086
      dyz     :     0.016585
      dx2y2   :     0.034733
      dxy     :     0.041992

 11 C s       :     2.968943  s :     2.968943
      pz      :     1.018547  p :     3.208820
      px      :     1.094193
      py      :     1.096081
      dz2     :     0.006457  d :     0.068179
      dxz     :     0.000311
      dyz     :     0.009275
      dx2y2   :     0.020227
      dxy     :     0.031909

 12 H s       :     0.861717  s :     0.861717

 13 H s       :     0.861706  s :     0.861706

 14 C s       :     2.849926  s :     2.849926
      pz      :     1.016223  p :     3.085478
      px      :     1.035566
      py      :     1.033689
      dz2     :     0.015043  d :     0.109752
      dxz     :     0.020180
      dyz     :     0.017642
      dx2y2   :     0.027888
      dxy     :     0.029000

 15 C s       :     2.900688  s :     2.900688
      pz      :     1.024597  p :     3.134112
      px      :     1.065054
      py      :     1.044462
      dz2     :     0.009049  d :     0.090614
      dxz     :     0.019248
      dyz     :     0.013581
      dx2y2   :     0.026492
      dxy     :     0.022243

 16 C s       :     2.900585  s :     2.900585
      pz      :     1.019448  p :     3.144162
      px      :     1.071732
      py      :     1.052982
      dz2     :     0.009764  d :     0.091870
      dxz     :     0.018756
      dyz     :     0.014532
      dx2y2   :     0.024168
      dxy     :     0.024650

 17 C s       :     2.902100  s :     2.902100
      pz      :     1.020787  p :     3.143953
      px      :     1.071175
      py      :     1.051991
      dz2     :     0.014708  d :     0.091486
      dxz     :     0.014665
      dyz     :     0.015051
      dx2y2   :     0.021295
      dxy     :     0.025767

 18 C s       :     2.900235  s :     2.900235
      pz      :     1.018798  p :     3.144503
      px      :     1.079033
      py      :     1.046672
      dz2     :     0.009069  d :     0.091981
      dxz     :     0.019181
      dyz     :     0.013583
      dx2y2   :     0.027156
      dxy     :     0.022992

 19 C s       :     2.900278  s :     2.900278
      pz      :     1.016373  p :     3.133163
      px      :     1.074278
      py      :     1.042512
      dz2     :     0.009454  d :     0.090509
      dxz     :     0.018074
      dyz     :     0.014223
      dx2y2   :     0.024584
      dxy     :     0.024175

 20 H s       :     0.859050  s :     0.859050

 21 H s       :     0.857274  s :     0.857274

 22 H s       :     0.857646  s :     0.857646

 23 H s       :     0.857195  s :     0.857195

 24 H s       :     0.858622  s :     0.858622

 25 H s       :     0.858617  s :     0.858617



                      *****************************
                      * MAYER POPULATION ANALYSIS *
                      *****************************

  NA   - Mulliken gross atomic population
  ZA   - Total nuclear charge
  QA   - Mulliken gross atomic charge
  VA   - Mayer's total valence
  BVA  - Mayer's bonded valence
  FA   - Mayer's free valence

  ATOM       NA         ZA         QA         VA         BVA        FA
  0 C      6.1580     6.0000    -0.1580     3.8319     3.8319     0.0000
  1 C      5.9742     6.0000     0.0258     3.8531     3.8531    -0.0000
  2 C      6.1415     6.0000    -0.1415     3.8172     3.8172    -0.0000
  3 C      6.1221     6.0000    -0.1221     3.8206     3.8206     0.0000
  4 C      6.1138     6.0000    -0.1138     3.7919     3.7919     0.0000
  5 C      6.1197     6.0000    -0.1197     3.8120     3.8120     0.0000
  6 H      0.8746     1.0000     0.1254     0.9468     0.9468     0.0000
  7 H      0.8733     1.0000     0.1267     0.9465     0.9465     0.0000
  8 H      0.8746     1.0000     0.1254     0.9469     0.9469     0.0000
  9 H      0.8771     1.0000     0.1229     0.9547     0.9547    -0.0000
 10 C      5.9846     6.0000     0.0154     3.9634     3.9634     0.0000
 11 C      6.2983     6.0000    -0.2983     3.9176     3.9176    -0.0000
 12 H      0.8463     1.0000     0.1537     0.9408     0.9408    -0.0000
 13 H      0.8462     1.0000     0.1538     0.9408     0.9408    -0.0000
 14 C      5.9740     6.0000     0.0260     3.8531     3.8531    -0.0000
 15 C      6.1581     6.0000    -0.1581     3.8319     3.8319    -0.0000
 16 C      6.1197     6.0000    -0.1197     3.8121     3.8121    -0.0000
 17 C      6.1138     6.0000    -0.1138     3.7920     3.7920    -0.0000
 18 C      6.1218     6.0000    -0.1218     3.8207     3.8207     0.0000
 19 C      6.1413     6.0000    -0.1413     3.8173     3.8173     0.0000
 20 H      0.8776     1.0000     0.1224     0.9548     0.9548     0.0000
 21 H      0.8746     1.0000     0.1254     0.9469     0.9469     0.0000
 22 H      0.8733     1.0000     0.1267     0.9465     0.9465     0.0000
 23 H      0.8746     1.0000     0.1254     0.9468     0.9468    -0.0000
 24 H      0.8834     1.0000     0.1166     0.9597     0.9597    -0.0000
 25 H      0.8834     1.0000     0.1166     0.9597     0.9597     0.0000

  Mayer bond orders larger than 0.100000
B(  0-C ,  1-C ) :   1.3750 B(  0-C ,  5-C ) :   1.3822 B(  0-C , 25-H ) :   0.9593 
B(  1-C ,  2-C ) :   1.3717 B(  1-C , 10-C ) :   1.0002 B(  2-C ,  3-C ) :   1.3907 
B(  2-C ,  9-H ) :   0.9543 B(  3-C ,  4-C ) :   1.3742 B(  3-C ,  8-H ) :   0.9633 
B(  4-C ,  5-C ) :   1.3763 B(  4-C ,  7-H ) :   0.9646 B(  5-C ,  6-H ) :   0.9630 
B( 10-C , 11-C ) :   1.9609 B( 10-C , 14-C ) :   1.0002 B( 11-C , 12-H ) :   0.9075 
B( 11-C , 13-H ) :   0.9075 B( 14-C , 15-C ) :   1.3751 B( 14-C , 19-C ) :   1.3717 
B( 15-C , 16-C ) :   1.3822 B( 15-C , 24-H ) :   0.9593 B( 16-C , 17-C ) :   1.3763 
B( 16-C , 23-H ) :   0.9630 B( 17-C , 18-C ) :   1.3742 B( 17-C , 22-H ) :   0.9646 
B( 18-C , 19-C ) :   1.3907 B( 18-C , 21-H ) :   0.9633 B( 19-C , 20-H ) :   0.9544 


-------
TIMINGS
-------

Total SCF time: 0 days 0 hours 1 min 21 sec 

Total time                  ....      81.595 sec
Sum of individual times     ....      78.101 sec  ( 95.7%)

SCF preparation             ....       2.190 sec  (  2.7%)
Fock matrix formation       ....      50.868 sec  ( 62.3%)
  Startup                   ....       4.568 sec  (  9.0% of F)
  Split-RI-J                ....       8.671 sec  ( 17.0% of F)
  Chain of spheres X        ....      21.273 sec  ( 41.8% of F)
  XC integration            ....       8.836 sec  ( 17.4% of F)
    XC Preparation          ....       0.000 sec  (  0.0% of XC)
    Basis function eval.    ....       1.364 sec  ( 15.4% of XC)
    Density eval.           ....       0.709 sec  (  8.0% of XC)
    XC-Functional eval.     ....       0.239 sec  (  2.7% of XC)
    XC-Potential eval.      ....       0.674 sec  (  7.6% of XC)
  CPCM terms                ....       2.879 sec  (  5.7% of F)
Diagonalization             ....       0.000 sec  (  0.0%)
Density matrix formation    ....       9.578 sec  ( 11.7%)
Total Energy calculation    ....       3.095 sec  (  3.8%)
Population analysis         ....       0.646 sec  (  0.8%)
Orbital Transformation      ....       0.516 sec  (  0.6%)
Orbital Orthonormalization  ....       0.000 sec  (  0.0%)
DIIS solution               ....       9.893 sec  ( 12.1%)
SOSCF solution              ....       1.316 sec  (  1.6%)
Finished LeanSCF after  82.1 sec

Maximum memory used throughout the entire LEANSCF-calculation: 26.7 MB


-------------------------------------------------------------------------------
                          DFT DISPERSION CORRECTION                            
                                                                               
                              DFTD3 V3.1  Rev 1                                
                          USING Becke-Johnson damping                          
-------------------------------------------------------------------------------
The PBE0 functional is recognized
Active option DFTDOPT                   ...         4   

molecular C6(AA) [au] = 8356.426425 


            DFT-D V3
 parameters
 s6 scaling factor         :     1.0000 
 a1 scaling factor         :     0.4145 
 s8 scaling factor         :     1.2177 
 a2 scaling factor         :     4.8593 
 ad hoc parameters k1-k3   :    16.0000     1.3333    -4.0000 

 Edisp/kcal,au: -18.160114943397  -0.028939982194 
 E6   /kcal   : -11.301871956 
 E8   /kcal   :  -6.858242987 
 % E8         :  37.765416180 

-------------------------   ----------------
Dispersion correction           -0.028939982
-------------------------   ----------------


-------------------------   --------------------
FINAL SINGLE POINT ENERGY      -539.686667258008
-------------------------   --------------------



           ************************************************************
           *        Program running with 8 parallel MPI-processes     *
           *              working on a common directory               *
           ************************************************************
------------------------------------------------------------------------------
                         ORCA SCF GRADIENT CALCULATION
------------------------------------------------------------------------------

Nuc. rep. gradient        (SHARK) ... done (  0.0 sec)
HCore & Overlap gradient  (SHARK) ... done (  0.2 sec)
Split-RIJ-J gradient      (SHARK) ... done (  0.8 sec)
COSX-gradient                     ... done (  8.9 sec)
XC gradient                       ... done (  2.5 sec)
CPCM gradient                     ... done (  0.2 sec)
SMD gradient                      ... done (  0.1 sec)
Dispersion correction             ... done (  0.1 sec)

-------------------
DISPERSION GRADIENT
-------------------

   1   C   :    0.000320263   -0.000138966    0.000144956
   2   C   :    0.000191591   -0.000074127   -0.000012034
   3   C   :    0.000226037    0.000234167   -0.000232193
   4   C   :    0.000227873    0.000255247   -0.000175103
   5   C   :    0.000273282    0.000136407   -0.000022520
   6   C   :    0.000335595   -0.000000636    0.000110480
   7   H   :    0.000142989   -0.000040550    0.000081258
   8   H   :    0.000137351    0.000077694   -0.000008637
   9   H   :    0.000041645    0.000140698   -0.000098668
  10   H   :    0.000041072    0.000146299   -0.000188673
  11   C   :   -0.000000001   -0.000310435   -0.000000003
  12   C   :   -0.000000001   -0.000483931   -0.000000004
  13   H   :   -0.000020889   -0.000206534    0.000007146
  14   H   :    0.000020887   -0.000206533   -0.000007149
  15   C   :   -0.000191590   -0.000074126    0.000012032
  16   C   :   -0.000320263   -0.000138960   -0.000144963
  17   C   :   -0.000335595   -0.000000630   -0.000110483
  18   C   :   -0.000273282    0.000136409    0.000022522
  19   C   :   -0.000227872    0.000255243    0.000175111
  20   C   :   -0.000226036    0.000234161    0.000232200
  21   H   :   -0.000041071    0.000146293    0.000188679
  22   H   :   -0.000041645    0.000140696    0.000098673
  23   H   :   -0.000137351    0.000077695    0.000008639
  24   H   :   -0.000142989   -0.000040547   -0.000081260
  25   H   :   -0.000101986   -0.000132515   -0.000127506
  26   H   :    0.000101985   -0.000132520    0.000127501

Difference to translation invariance:
           :   -0.0000000000   -0.0000000000   -0.0000000000

Difference to rotation invariance:
           :    0.0000000000   -0.0000000000   -0.0000000000

Norm of the Dispersion gradient    ...    0.0014884296
RMS gradient                       ...    0.0001685315
MAX gradient                       ...    0.0004839311

------------------
CARTESIAN GRADIENT
------------------

   1   C   :    0.000505682    0.001127359   -0.000586181
   2   C   :   -0.000113910   -0.000278678    0.000153894
   3   C   :    0.001004312    0.000138528    0.000174148
[...]
      dyz     :     0.013248
      dx2y2   :     0.026844
      dxy     :     0.022418

  1 C s       :     2.850794  s :     2.850794
      pz      :     1.014411  p :     3.085005
      px      :     1.035643
      py      :     1.034952
      dz2     :     0.014639  d :     0.109195
      dxz     :     0.019778
      dyz     :     0.017432
      dx2y2   :     0.028087
      dxy     :     0.029260

  2 C s       :     2.900983  s :     2.900983
      pz      :     1.015318  p :     3.133278
      px      :     1.074900
      py      :     1.043060
      dz2     :     0.009247  d :     0.090170
      dxz     :     0.017704
      dyz     :     0.014105
      dx2y2   :     0.024593
      dxy     :     0.024522

  3 C s       :     2.900927  s :     2.900927
      pz      :     1.017477  p :     3.144299
      px      :     1.079123
      py      :     1.047699
      dz2     :     0.008849  d :     0.091707
      dxz     :     0.018973
      dyz     :     0.013281
      dx2y2   :     0.027453
      dxy     :     0.023150

  4 C s       :     2.902808  s :     2.902808
      pz      :     1.019092  p :     3.143719
      px      :     1.071627
      py      :     1.053000
      dz2     :     0.014314  d :     0.091187
      dxz     :     0.014288
      dyz     :     0.014915
      dx2y2   :     0.021668
      dxy     :     0.026002

  5 C s       :     2.901244  s :     2.901244
      pz      :     1.017808  p :     3.143870
      px      :     1.072197
      py      :     1.053865
      dz2     :     0.009517  d :     0.091592
      dxz     :     0.018290
      dyz     :     0.014423
      dx2y2   :     0.024331
      dxy     :     0.025031

  6 H s       :     0.857161  s :     0.857161

  7 H s       :     0.857614  s :     0.857614

  8 H s       :     0.857175  s :     0.857175

  9 H s       :     0.858676  s :     0.858676

 10 C s       :     2.858480  s :     2.858480
      pz      :     0.950922  p :     3.072725
      px      :     1.023958
      py      :     1.097844
      dz2     :     0.007199  d :     0.109101
      dxz     :     0.009060
      dyz     :     0.016490
      dx2y2   :     0.034645
      dxy     :     0.041706

 11 C s       :     2.969482  s :     2.969482
      pz      :     1.017856  p :     3.208408
      px      :     1.094586
      py      :     1.095966
      dz2     :     0.006464  d :     0.067965
      dxz     :     0.000263
      dyz     :     0.009198
      dx2y2   :     0.020157
      dxy     :     0.031884

 12 H s       :     0.861633  s :     0.861633

 13 H s       :     0.861628  s :     0.861628

 14 C s       :     2.850783  s :     2.850783
      pz      :     1.014396  p :     3.084958
      px      :     1.035638
      py      :     1.034924
      dz2     :     0.014642  d :     0.109196
      dxz     :     0.019779
      dyz     :     0.017434
      dx2y2   :     0.028087
      dxy     :     0.029255

 15 C s       :     2.901350  s :     2.901350
      pz      :     1.023050  p :     3.133938
      px      :     1.065221
      py      :     1.045667
      dz2     :     0.008780  d :     0.090246
      dxz     :     0.018956
      dyz     :     0.013250
      dx2y2   :     0.026843
      dxy     :     0.022417

 16 C s       :     2.901243  s :     2.901243
      pz      :     1.017803  p :     3.143851
      px      :     1.072184
      py      :     1.053864
      dz2     :     0.009516  d :     0.091592
      dxz     :     0.018291
      dyz     :     0.014424
      dx2y2   :     0.024331
      dxy     :     0.025030

 17 C s       :     2.902800  s :     2.902800
      pz      :     1.019089  p :     3.143699
      px      :     1.071608
      py      :     1.053002
      dz2     :     0.014315  d :     0.091186
      dxz     :     0.014288
      dyz     :     0.014916
      dx2y2   :     0.021665
      dxy     :     0.026001

 18 C s       :     2.900915  s :     2.900915
      pz      :     1.017428  p :     3.144218
      px      :     1.079105
      py      :     1.047684
      dz2     :     0.008851  d :     0.091707
      dxz     :     0.018972
      dyz     :     0.013284
      dx2y2   :     0.027450
      dxy     :     0.023149

 19 C s       :     2.900944  s :     2.900944
      pz      :     1.015342  p :     3.133282
      px      :     1.074827
      py      :     1.043114
      dz2     :     0.009246  d :     0.090178
      dxz     :     0.017711
      dyz     :     0.014106
      dx2y2   :     0.024593
      dxy     :     0.024522

 20 H s       :     0.858913  s :     0.858913

 21 H s       :     0.857172  s :     0.857172

 22 H s       :     0.857620  s :     0.857620

 23 H s       :     0.857166  s :     0.857166

 24 H s       :     0.858342  s :     0.858342

 25 H s       :     0.858338  s :     0.858338



                      *****************************
                      * MAYER POPULATION ANALYSIS *
                      *****************************

  NA   - Mulliken gross atomic population
  ZA   - Total nuclear charge
  QA   - Mulliken gross atomic charge
  VA   - Mayer's total valence
  BVA  - Mayer's bonded valence
  FA   - Mayer's free valence

  ATOM       NA         ZA         QA         VA         BVA        FA
  0 C      6.1595     6.0000    -0.1595     3.8330     3.8330    -0.0000
  1 C      5.9721     6.0000     0.0279     3.8485     3.8485     0.0000
  2 C      6.1436     6.0000    -0.1436     3.8179     3.8179    -0.0000
  3 C      6.1225     6.0000    -0.1225     3.8231     3.8231     0.0000
  4 C      6.1143     6.0000    -0.1143     3.7921     3.7921    -0.0000
  5 C      6.1202     6.0000    -0.1202     3.8142     3.8142    -0.0000
  6 H      0.8744     1.0000     0.1256     0.9468     0.9468     0.0000
  7 H      0.8730     1.0000     0.1270     0.9465     0.9465    -0.0000
  8 H      0.8742     1.0000     0.1258     0.9469     0.9469     0.0000
  9 H      0.8764     1.0000     0.1236     0.9548     0.9548    -0.0000
 10 C      5.9832     6.0000     0.0168     3.9637     3.9637     0.0000
 11 C      6.3009     6.0000    -0.3009     3.9164     3.9164     0.0000
 12 H      0.8452     1.0000     0.1548     0.9407     0.9407     0.0000
 13 H      0.8452     1.0000     0.1548     0.9407     0.9407     0.0000
 14 C      5.9719     6.0000     0.0281     3.8485     3.8485    -0.0000
 15 C      6.1595     6.0000    -0.1595     3.8331     3.8331    -0.0000
 16 C      6.1202     6.0000    -0.1202     3.8142     3.8142    -0.0000
 17 C      6.1143     6.0000    -0.1143     3.7921     3.7921     0.0000
 18 C      6.1223     6.0000    -0.1223     3.8232     3.8232     0.0000
 19 C      6.1435     6.0000    -0.1435     3.8180     3.8180     0.0000
 20 H      0.8769     1.0000     0.1231     0.9549     0.9549     0.0000
 21 H      0.8742     1.0000     0.1258     0.9469     0.9469     0.0000
 22 H      0.8730     1.0000     0.1270     0.9465     0.9465     0.0000
 23 H      0.8744     1.0000     0.1256     0.9468     0.9468     0.0000
 24 H      0.8825     1.0000     0.1175     0.9594     0.9594    -0.0000
 25 H      0.8825     1.0000     0.1175     0.9594     0.9594    -0.0000

  Mayer bond orders larger than 0.100000
B(  0-C ,  1-C ) :   1.3730 B(  0-C ,  5-C ) :   1.3848 B(  0-C , 25-H ) :   0.9586 
B(  1-C ,  2-C ) :   1.3702 B(  1-C , 10-C ) :   1.0006 B(  2-C ,  3-C ) :   1.3921 
B(  2-C ,  9-H ) :   0.9540 B(  3-C ,  4-C ) :   1.3750 B(  3-C ,  8-H ) :   0.9629 
B(  4-C ,  5-C ) :   1.3756 B(  4-C ,  7-H ) :   0.9643 B(  5-C ,  6-H ) :   0.9626 
B( 10-C , 11-C ) :   1.9592 B( 10-C , 14-C ) :   1.0006 B( 11-C , 12-H ) :   0.9071 
B( 11-C , 13-H ) :   0.9071 B( 14-C , 15-C ) :   1.3731 B( 14-C , 19-C ) :   1.3702 
B( 15-C , 16-C ) :   1.3848 B( 15-C , 24-H ) :   0.9586 B( 16-C , 17-C ) :   1.3756 
B( 16-C , 23-H ) :   0.9626 B( 17-C , 18-C ) :   1.3750 B( 17-C , 22-H ) :   0.9643 
B( 18-C , 19-C ) :   1.3921 B( 18-C , 21-H ) :   0.9629 B( 19-C , 20-H ) :   0.9541 


-------
TIMINGS
-------

Total SCF time: 0 days 0 hours 0 min 32 sec 

Total time                  ....      32.586 sec
Sum of individual times     ....      31.288 sec  ( 96.0%)

SCF preparation             ....       1.806 sec  (  5.5%)
Fock matrix formation       ....      22.160 sec  ( 68.0%)
  Startup                   ....       1.417 sec  (  6.4% of F)
  Split-RI-J                ....       2.776 sec  ( 12.5% of F)
  Chain of spheres X        ....      11.127 sec  ( 50.2% of F)
  XC integration            ....       3.110 sec  ( 14.0% of F)
    XC Preparation          ....       0.000 sec  (  0.0% of XC)
    Basis function eval.    ....       0.532 sec  ( 17.1% of XC)
    Density eval.           ....       0.281 sec  (  9.0% of XC)
    XC-Functional eval.     ....       0.094 sec  (  3.0% of XC)
    XC-Potential eval.      ....       0.225 sec  (  7.2% of XC)
  CPCM terms                ....       1.903 sec  (  8.6% of F)
Diagonalization             ....       0.000 sec  (  0.0%)
Density matrix formation    ....       2.379 sec  (  7.3%)
Total Energy calculation    ....       1.413 sec  (  4.3%)
Population analysis         ....       1.331 sec  (  4.1%)
Orbital Transformation      ....       0.279 sec  (  0.9%)
Orbital Orthonormalization  ....       0.000 sec  (  0.0%)
DIIS solution               ....       0.415 sec  (  1.3%)
SOSCF solution              ....       1.505 sec  (  4.6%)
Finished LeanSCF after  33.2 sec

Maximum memory used throughout the entire LEANSCF-calculation: 27.1 MB


-------------------------------------------------------------------------------
                          DFT DISPERSION CORRECTION                            
                                                                               
                              DFTD3 V3.1  Rev 1                                
                          USING Becke-Johnson damping                          
-------------------------------------------------------------------------------
The PBE0 functional is recognized
Active option DFTDOPT                   ...         4   

molecular C6(AA) [au] = 8358.549777 


            DFT-D V3
 parameters
 s6 scaling factor         :     1.0000 
 a1 scaling factor         :     0.4145 
 s8 scaling factor         :     1.2177 
 a2 scaling factor         :     4.8593 
 ad hoc parameters k1-k3   :    16.0000     1.3333    -4.0000 

 Edisp/kcal,au: -18.137102343823  -0.028903309287 
 E6   /kcal   : -11.287660688 
 E8   /kcal   :  -6.849441656 
 % E8         :  37.764806783 

-------------------------   ----------------
Dispersion correction           -0.028903309
-------------------------   ----------------


-------------------------   --------------------
FINAL SINGLE POINT ENERGY      -539.686728247116
-------------------------   --------------------

                                *** OPTIMIZATION RUN DONE ***



           ************************************************************
           *        Program running with 8 parallel MPI-processes     *
           *              working on a common directory               *
           ************************************************************

------------------------------------------------------------------------------
                              ORCA PROPERTY CALCULATIONS
------------------------------------------------------------------------------

GBWName                                 ... cs_rporg_015_red_opt_03.gbw
Number of atoms                         ...     26
Number of basis functions               ...    220
Max core memory                         ...   3500 MB

Electric properties:
Dipole moment                           ... YES
Quadrupole moment                       ...  NO
Static polarizability (Dipole/Dipole)   ...  NO
Static polarizability (Dipole/Quad.)    ...  NO
Static polarizability (Quad./Quad.)     ...  NO
Static polarizability (Velocity)        ...  NO

Atomic electric properties:
Dipole moment                           ...  NO
Quadrupole moment                       ...  NO
Static polarizability                   ...  NO

Choice of electric origin               ... Center of mass
Position of electric origin             ...    -0.000026     0.005073    -0.000001

General magnetic properties:
Magnetizability                         ...  NO

EPR properties:
g-Tensor (aka g-matrix)                 ...  NO
Zero-Field splitting spin-orbit         ...  NO
Zero-field splitting spin-spin          ...  NO
Hyperfine couplings                     ...  NO (   0 nuclei)
Quadrupole couplings                    ...  NO (   0 nuclei)
Contact density                         ...  NO (   0 nuclei)

NMR properties:
Chemical shifts                         ...  NO (   0 nuclei)
Spin-rotation constants                 ...  NO (   0 nuclei)
Spin-spin couplings                     ...  NO (   0 nuclei,    0 pairs)

Choice of magnetic origin               ... GIAO
Position of magnetic origin             ...     0.000000     0.000000     0.000000

Properties with geometric perturbations:
SCF Hessian                             ...  NO
IR spectrum                             ...  NO
VCD spectrum                            ...  NO
X-ray spectroscopy properties:
SCF XES/XAS/RIXS spectra                ...  NO


-------------
DIPOLE MOMENT
-------------

Method             : SCF
Type of density    : Electron Density
Multiplicity       :   1
Irrep              :   0
Energy             :  -539.6578249378289911 Eh
Relativity type    : 
Basis              : AO
                                X                 Y                 Z
Electronic contribution:     -0.000869856       0.612390338      -0.000459805
Nuclear contribution   :      0.000137676      -0.483998563      -0.000269927
                        -----------------------------------------
Total Dipole Moment    :     -0.000732181       0.128391775      -0.000729732
                        -----------------------------------------
Magnitude (a.u.)       :      0.128395937
Magnitude (Debye)      :      0.326356535



--------------------
Rotational spectrum 
--------------------
 
Rotational constants in cm-1:             0.053280             0.013933             0.012125 
Rotational constants in MHz :          1597.293092           417.711099           363.491438 

Dipole components along the rotational axes: 
x,y,z [a.u.] :    -0.000732    -0.128392    -0.000730 
x,y,z [Debye]:    -0.001860    -0.326346    -0.001855 

 

Dipole moment calculation done in   0.2 sec 

Maximum memory used throughout the entire PROP-calculation: 11.3 MB

--------------------------------
SUGGESTED CITATIONS FOR THIS RUN
--------------------------------

Below you find a list of papers that are relevant to this ORCA run
We neither can nor want to force you to cite these papers, but we appreciate if you do
You receive ORCA, which is the product of decades of hard work by many enthusiastic individuals, for free
The only thing we kindly ask in return is that you cite our papers,
We deeply appreciate it, if you show your appreciation for ORCA by not just citing the generic ORCA reference.

Please note that relegating all ORCA citations to the supporting information does *not* help us.
SI sections are not indexed - citations you put there will not count into any citation statistics
But we need these citations in order to attract the funding resources that allow us to do what we are doing

Therefore, if you are a happy ORCA user, please consider citing a few of the papers listed below in the main body of your paper

In addition to the list printed below, the program has created the file cs_rporg_015_red_opt_03.bibtex that contains the list in bibtex format
You can import this file easily into all common literature databanks and citation aid programs


List of essential papers. We consider these as the minimum necessary citations

  1. Neese,F.
     Software update: the ORCA program system, version 5.0
     WIRES Comput. Molec. Sci., 2022 12(1)e1606
     doi.org/10.1002/wcms.1606

List of papers to cite with high priority. The work reported in these papers was absolutely
necessary for this run to complete.
Our perspective: the developers of density functionals and basis sets usually get cited in chemistry papers
Good! But without the algorithms to do something with them, the functionals or basis sets would not do anything.
Hence, in our opinion, the algorithm design and method developments papers are equally worthy of getting cited

  1. Neese,F.
     An improvement of the resolution of the identity approximation for the formation of the Coulomb matrix
     J. Comp. Chem., 2003 24(14)1740-1747
     doi.org/10.1002/jcc.10318
  2. Neese,F.; Wennmohs,F.; Hansen,A.; Becker,U.
     Efficient, approximate and parallel Hartree-Fock and hybrid DFT calculations. A 'chain-of-spheres' algorithm for the Hartree-Fock exchange
     Chem. Phys., 2009 356(1-3)98-109
     doi.org/10.1016/j.chemphys.2008.10.036
  3. Garcia-Rates,M.; Neese,F.
     Effect of the Solute Cavity on the Solvation Energy and its Derivatives within the Framework of the Gaussian Charge Scheme
     J. Comput. Chem., 2020 41 922-939
     doi.org/10.1002/jcc.26139
  4. Helmich-Paris,B.; de Souza,B.; Neese,F.; Izsák,R.
     An improved chain of spheres for exchange algorithm
     J. Chem. Phys., 2021 155 104109
     doi.org/doi: 10.1063/5.0058766.
  5. Neese,F.
     The SHARK Integral Generation and Digestion System
     J. Comp. Chem., 2022  1-16
     doi.org/10.1002/jcc.26942
  6. Grimme,S.; Antony,J.; Ehrlich,S.; Krieg,H.
     A consistent and accurate ab initio parametrization of density functional dispersion correction (DFT-D) for the 94 elements H-Pu
     J. Chem. Phys., 2010 132 154104-XXXX
     doi.org/10.1063/1.3382344
  7. Grimme,S.; Ehrlich,S.; Goerigk,L.
     Effect of the damping function in dispersion corrected density functional theory
     J. Comput. Chem., 2011 32(7)1456-1465
     doi.org/10.1002/jcc.21759

List of suggested additional citations. These are papers that are important in the 'surrounding' of 
of this run, or papers that preceded the highly important papers. If you like your results we are grateful for a citation.

  1. Izsak,R.; Neese,F.
     An overlap fitted chain of spheres exchange method
     J. Chem. Phys., 2011 135 144105
     doi.org/10.1063/1.3646921
  2. Izsak,R.; Hansen,A.; Neese,F.
     The resolution of identity and chain of spheres approximations for the LPNO-CCSD singles Fock term
     Molec. Phys., 2012 110 2413-2417
     doi.org/10.1080/00268976.2012.687466
  3. Neese,F.
     The ORCA program system
     WIRES Comput. Molec. Sci., 2012 2(1)73-78
     doi.org/10.1002/wcms.81
  4. Izsak,R.; Neese,F.; Klopper,W.
     Robust fitting techniques in the chain of spheres approximation to the Fock exchange: The role of the complementary space
     J. Chem. Phys., 2013 139 
     doi.org/10.1063/1.4819264
  5. Neese,F.
     Software update: the ORCA program system, version 4.0
     WIRES Comput. Molec. Sci., 2018 8(1)1-6
     doi.org/10.1002/wcms.1327
  6. Neese,F.; Wennmohs,F.; Becker,U.; Riplinger,C.
     The ORCA quantum chemistry program package
     J. Chem. Phys., 2020 152 Art. No. L224108
     doi.org/10.1063/5.0004608

List of optional additional citations

  1. Neese,F.
     Approximate second-order SCF convergence for spin unrestricted wavefunctions
     Chem. Phys. Lett., 2000 325(1-3)93-98
     doi.org/10.1016/s0009-2614(00)00662-x

Timings for individual modules:

Sum of individual times          ...      298.561 sec (=   4.976 min)
Startup calculation              ...       23.374 sec (=   0.390 min)   7.8 %
SCF iterations                   ...      225.896 sec (=   3.765 min)  75.7 %
Property calculations            ...        2.788 sec (=   0.046 min)   0.9 %
SCF Gradient evaluation          ...       46.168 sec (=   0.769 min)  15.5 %
Geometry relaxation              ...        0.335 sec (=   0.006 min)   0.1 %
                             ****ORCA TERMINATED NORMALLY****
TOTAL RUN TIME: 0 days 0 hours 5 minutes 14 seconds 74 msec
