 vasp.6.4.2 20Jul23 (build Sep 06 2024 14:39:43) complex                        
  
 executed on             LinuxIFC date 2025.09.17  22:42:22
 running   90 mpi-ranks, on    6 nodes
 distrk:  each k-point on   90 cores,    1 groups
 distr:  one band on NCORE=  15 cores,    6 groups


--------------------------------------------------------------------------------------------------------


 INCAR:
   SYSTEM = charged_w03_ox
   ISTART = 0
   ICHARG = 2
   INIWAV = 1
   NELM = 500
   ALGO = fast   	
   ISPIN = 2
   EDIFF = 1E-05
   ISMEAR = 0
   SIGMA = 0.05
   PREC = accurate
   ENCUT = 500
   LREAL = auto  	
   LWAVE = .TRUE.
   LCHARG = .FALSE.
   LAECHG = .FALSE.
   LVHAR = .FALSE.
   LVTOT = .FALSE.
   EDIFFG = -0.02
   IBRION = 2
   NSW = 500
   ISIF = 2
   POTIM = 0.5
   IVDW = 11
   LPLANE = .TRUE.
   NCORE = 15
   LSCALU = .FALSE.
   NSIM = 4
   LSOL = .TRUE.
   EB_K = 78.4
   LAMBDA_D_K = 3.04
   NELECT = 80.0000
   TAU = 0

 POTCAR:    PAW_PBE C 08Apr2002                   
 POTCAR:    PAW_PBE N 08Apr2002                   
 POTCAR:    PAW_PBE O 08Apr2002                   
 POTCAR:    PAW_PBE H 15Jun2001                   
 -----------------------------------------------------------------------------
|                                                                             |
|           W    W    AA    RRRRR   N    N  II  N    N   GGGG   !!!           |
|           W    W   A  A   R    R  NN   N  II  NN   N  G    G  !!!           |
|           W    W  A    A  R    R  N N  N  II  N N  N  G       !!!           |
|           W WW W  AAAAAA  RRRRR   N  N N  II  N  N N  G  GGG   !            |
|           WW  WW  A    A  R   R   N   NN  II  N   NN  G    G                |
|           W    W  A    A  R    R  N    N  II  N    N   GGGG   !!!           |
|                                                                             |
|     You use a magnetic or noncollinear calculation, but did not specify     |
|     the initial magnetic moment with the MAGMOM tag. Note that a            |
|     default of 1 will be used for all atoms. This ferromagnetic setup       |
|     may break the symmetry of the crystal, in particular it may rule        |
|     out finding an antiferromagnetic solution. Thence, we recommend         |
|     setting the initial magnetic moment manually or verifying carefully     |
|     that this magnetic setup is desired.                                    |
|                                                                             |
 -----------------------------------------------------------------------------

 POTCAR:    PAW_PBE C 08Apr2002                   
   SHA256 =  253f7b50bb8d59471dbedb8285d89021f4a42ed1a2c5d38a03a736e69125dd95 C/POTCAR              
   COPYR  = (c) Copyright 08Apr2002 Georg Kresse                                                    
   COPYR  = This file is part of the software VASP. Any use, copying, and all other rights are regul
   COPYR  = If you do not have a valid VASP license, you may not use, copy or distribute this file. 
   VRHFIN =C: s2p2                                                                                  
   LEXCH  = PE                                                                                      
   EATOM  =   147.1560 eV,   10.8157 Ry                                                             
                                                                                                    
   TITEL  = PAW_PBE C 08Apr2002                                                                     
   LULTRA =        F    use ultrasoft PP ?                                                          
   IUNSCR =        1    unscreen: 0-lin 1-nonlin 2-no                                               
   RPACOR =    1.200    partial core radius                                                         
   POMASS =   12.011; ZVAL   =    4.000    mass and valenz                                          
   RCORE  =    1.500    outmost cutoff radius                                                       
   RWIGS  =    1.630; RWIGS  =    0.863    wigner-seitz radius (au A)                               
   ENMAX  =  400.000; ENMIN  =  300.000 eV                                                          
   ICORE  =        2    local potential                                                             
   LCOR   =        T    correct aug charges                                                         
   LPAW   =        T    paw PP                                                                      
   EAUG   =  644.873                                                                                
   DEXC   =    0.000                                                                                
   RMAX   =    1.529    core radius for proj-oper                                                   
   RAUG   =    1.300    factor for augmentation sphere                                              
   RDEP   =    1.501    radius for radial grids                                                     
   RDEPT  =    1.300    core radius for aug-charge                                                  
                                                                                                    
   Atomic configuration                                                                             
    4 entries                                                                                       
     n  l   j            E        occ.                                                              
     1  0  0.50      -273.3789   2.0000                                                             
     2  0  0.50       -13.7508   2.0000                                                             
     2  1  0.50        -5.2854   2.0000                                                             
     3  2  1.50        -5.4423   0.0000                                                             
   Description                                                                                      
     l       E           TYP  RCUT    TYP  RCUT                                                     
     0    -13.7508458     23  1.200                                                                 
     0     -8.2022199     23  1.200                                                                 
     1     -5.2854383     23  1.500                                                                 
     1     34.0145650     23  1.500                                                                 
     2     -5.4423304      7  1.500                                                                 
  local pseudopotential read in
  partial core-charges read in
  partial kinetic energy density read in
  atomic valenz-charges read in
  non local Contribution for L=           0  read in
    real space projection operators read in
  non local Contribution for L=           0  read in
    real space projection operators read in
  non local Contribution for L=           1  read in
    real space projection operators read in
  non local Contribution for L=           1  read in
    real space projection operators read in
    PAW grid and wavefunctions read in
 
   number of l-projection  operators is LMAX  =           4
   number of lm-projection operators is LMMAX =           8
 
 POTCAR:    PAW_PBE N 08Apr2002                   
   SHA256 =  e053789ff3a61a86a1b75d8a110fcc91f86041011e7b0817c7c99e4e8a6349d7 N/POTCAR              
   COPYR  = (c) Copyright 08Apr2002 Georg Kresse                                                    
   COPYR  = This file is part of the software VASP. Any use, copying, and all other rights are regul
   COPYR  = If you do not have a valid VASP license, you may not use, copy or distribute this file. 
   VRHFIN =N: s2p3                                                                                  
   LEXCH  = PE                                                                                      
   EATOM  =   264.5486 eV,   19.4438 Ry                                                             
                                                                                                    
   TITEL  = PAW_PBE N 08Apr2002                                                                     
   LULTRA =        F    use ultrasoft PP ?                                                          
   IUNSCR =        1    unscreen: 0-lin 1-nonlin 2-no                                               
   RPACOR =    1.200    partial core radius                                                         
   POMASS =   14.001; ZVAL   =    5.000    mass and valenz                                          
   RCORE  =    1.500    outmost cutoff radius                                                       
   RWIGS  =    1.400; RWIGS  =    0.741    wigner-seitz radius (au A)                               
   ENMAX  =  400.000; ENMIN  =  300.000 eV                                                          
   ICORE  =        2    local potential                                                             
   LCOR   =        T    correct aug charges                                                         
   LPAW   =        T    paw PP                                                                      
   EAUG   =  627.112                                                                                
   DEXC   =    0.000                                                                                
   RMAX   =    1.529    core radius for proj-oper                                                   
   RAUG   =    1.300    factor for augmentation sphere                                              
   RDEP   =    1.514    radius for radial grids                                                     
   RDEPT  =    1.338    core radius for aug-charge                                                  
                                                                                                    
   Atomic configuration                                                                             
    4 entries                                                                                       
     n  l   j            E        occ.                                                              
     1  0  0.50      -384.7179   2.0000                                                             
     2  0  0.50       -18.5828   2.0000                                                             
     2  1  0.50        -7.0898   3.0000                                                             
     3  2  1.50        -6.8029   0.0000                                                             
   Description                                                                                      
     l       E           TYP  RCUT    TYP  RCUT                                                     
     0    -18.5828119     23  1.200                                                                 
     0    -13.5018863     23  1.200                                                                 
     1     -7.0897853     23  1.500                                                                 
     1      9.5240782     23  1.500                                                                 
     2     -6.8029130      7  1.500                                                                 
  local pseudopotential read in
  partial core-charges read in
  partial kinetic energy density read in
  atomic valenz-charges read in
  non local Contribution for L=           0  read in
    real space projection operators read in
  non local Contribution for L=           0  read in
    real space projection operators read in
  non local Contribution for L=           1  read in
    real space projection operators read in
  non local Contribution for L=           1  read in
    real space projection operators read in
    PAW grid and wavefunctions read in
 
   number of l-projection  operators is LMAX  =           4
   number of lm-projection operators is LMMAX =           8
 
 POTCAR:    PAW_PBE O 08Apr2002                   
   SHA256 =  818f92134a0a090dccd8ba1447fa70422a3b330e708bb4f08108d8ae51209ddf O/POTCAR              
   COPYR  = (c) Copyright 08Apr2002 Georg Kresse                                                    
   COPYR  = This file is part of the software VASP. Any use, copying, and all other rights are regul
   COPYR  = If you do not have a valid VASP license, you may not use, copy or distribute this file. 
   VRHFIN =O: s2p4                                                                                  
   LEXCH  = PE                                                                                      
   EATOM  =   432.3788 eV,   31.7789 Ry                                                             
                                                                                                    
   TITEL  = PAW_PBE O 08Apr2002                                                                     
   LULTRA =        F    use ultrasoft PP ?                                                          
   IUNSCR =        1    unscreen: 0-lin 1-nonlin 2-no                                               
   RPACOR =    1.200    partial core radius                                                         
   POMASS =   16.000; ZVAL   =    6.000    mass and valenz                                          
   RCORE  =    1.520    outmost cutoff radius                                                       
   RWIGS  =    1.550; RWIGS  =    0.820    wigner-seitz radius (au A)                               
   ENMAX  =  400.000; ENMIN  =  300.000 eV                                                          
   ICORE  =        2    local potential                                                             
   LCOR   =        T    correct aug charges                                                         
   LPAW   =        T    paw PP                                                                      
   EAUG   =  605.392                                                                                
   DEXC   =    0.000                                                                                
   RMAX   =    1.553    core radius for proj-oper                                                   
   RAUG   =    1.300    factor for augmentation sphere                                              
   RDEP   =    1.550    radius for radial grids                                                     
   RDEPT  =    1.329    core radius for aug-charge                                                  
                                                                                                    
   Atomic configuration                                                                             
    4 entries                                                                                       
     n  l   j            E        occ.                                                              
     1  0  0.50      -514.6923   2.0000                                                             
     2  0  0.50       -23.9615   2.0000                                                             
     2  1  0.50        -9.0305   4.0000                                                             
     3  2  1.50        -9.5241   0.0000                                                             
   Description                                                                                      
     l       E           TYP  RCUT    TYP  RCUT                                                     
     0    -23.9615318     23  1.200                                                                 
     0     -9.5240782     23  1.200                                                                 
     1     -9.0304911     23  1.520                                                                 
     1      8.1634956     23  1.520                                                                 
     2     -9.5240782      7  1.500                                                                 
  local pseudopotential read in
  partial core-charges read in
  partial kinetic energy density read in
  kinetic energy density of atom read in
  atomic valenz-charges read in
  non local Contribution for L=           0  read in
    real space projection operators read in
  non local Contribution for L=           0  read in
    real space projection operators read in
  non local Contribution for L=           1  read in
    real space projection operators read in
  non local Contribution for L=           1  read in
    real space projection operators read in
    PAW grid and wavefunctions read in
 
   number of l-projection  operators is LMAX  =           4
   number of lm-projection operators is LMMAX =           8
 
 POTCAR:    PAW_PBE H 15Jun2001                   
   SHA256 =  030f79b5d3ab3cf0e668861823c8fb652ff669f3e15e46930bd03bfd63a607b6 H/POTCAR              
   COPYR  = (c) Copyright 15Jun2001 Georg Kresse                                                    
   COPYR  = This file is part of the software VASP. Any use, copying, and all other rights are regul
   COPYR  = If you do not have a valid VASP license, you may not use, copy or distribute this file. 
   VRHFIN =H: ultrasoft test                                                                        
   LEXCH  = PE                                                                                      
   EATOM  =    12.4884 eV,    0.9179 Ry                                                             
                                                                                                    
   TITEL  = PAW_PBE H 15Jun2001                                                                     
   LULTRA =        F    use ultrasoft PP ?                                                          
   IUNSCR =        0    unscreen: 0-lin 1-nonlin 2-no                                               
   RPACOR =    0.000    partial core radius                                                         
   POMASS =    1.000; ZVAL   =    1.000    mass and valenz                                          
   RCORE  =    1.100    outmost cutoff radius                                                       
   RWIGS  =    0.700; RWIGS  =    0.370    wigner-seitz radius (au A)                               
   ENMAX  =  250.000; ENMIN  =  200.000 eV                                                          
   RCLOC  =    0.701    cutoff for local pot                                                        
   LCOR   =        T    correct aug charges                                                         
   LPAW   =        T    paw PP                                                                      
   EAUG   =  400.000                                                                                
   RMAX   =    1.123    core radius for proj-oper                                                   
   RAUG   =    1.200    factor for augmentation sphere                                              
   RDEP   =    1.112    radius for radial grids                                                     
   RDEPT  =    0.926    core radius for aug-charge                                                  
                                                                                                    
   Atomic configuration                                                                             
    2 entries                                                                                       
     n  l   j            E        occ.                                                              
     1  0  0.50        -6.4927   1.0000                                                             
     2  1  0.50        -3.4015   0.0000                                                             
   Description                                                                                      
     l       E           TYP  RCUT    TYP  RCUT                                                     
     0     -6.4927494     23  1.100                                                                 
     0      6.8029130     23  1.100                                                                 
     1     -4.0817478     23  1.100                                                                 
  local pseudopotential read in
  atomic valenz-charges read in
  non local Contribution for L=           0  read in
    real space projection operators read in
  non local Contribution for L=           0  read in
    real space projection operators read in
  non local Contribution for L=           1  read in
    real space projection operators read in
    PAW grid and wavefunctions read in
 
   number of l-projection  operators is LMAX  =           3
   number of lm-projection operators is LMMAX =           5
 
 Optimization of the real space projectors (new method)

 maximal supplied QI-value         = 25.13
 optimisation between [QCUT,QGAM] = [ 11.31, 22.87] = [ 35.82,146.48] Ry 
 Optimized for a Real-space Cutoff    1.03 Angstroem

   l    n(q)    QCUT    max X(q) W(low)/X(q) W(high)/X(q)  e(spline) 
   0      7    11.310   115.676    0.20E-03    0.90E-03    0.20E-06
   0      7    11.310    87.132    0.20E-03    0.89E-03    0.19E-06
   1      6    11.310     4.429    0.16E-03    0.28E-03    0.12E-06
   1      6    11.310     2.733    0.12E-03    0.21E-03    0.99E-07
 Optimization of the real space projectors (new method)

 maximal supplied QI-value         = 25.13
 optimisation between [QCUT,QGAM] = [ 11.31, 22.87] = [ 35.82,146.48] Ry 
 Optimized for a Real-space Cutoff    1.43 Angstroem

   l    n(q)    QCUT    max X(q) W(low)/X(q) W(high)/X(q)  e(spline) 
   0     10    11.310    79.467    0.42E-04    0.81E-04    0.60E-06
   0     10    11.310    66.151    0.40E-04    0.81E-04    0.60E-06
   1      9    11.310    17.416    0.14E-03    0.88E-04    0.14E-05
   1      9    11.310    12.382    0.15E-03    0.93E-04    0.14E-05
 Optimization of the real space projectors (new method)

 maximal supplied QI-value         = 24.76
 optimisation between [QCUT,QGAM] = [ 11.39, 22.77] = [ 36.31,145.25] Ry 
 Optimized for a Real-space Cutoff    1.10 Angstroem

   l    n(q)    QCUT    max X(q) W(low)/X(q) W(high)/X(q)  e(spline) 
   0      7    11.387    20.381    0.22E-03    0.48E-03    0.18E-06
   0      7    11.387    15.268    0.22E-03    0.52E-03    0.19E-06
   1      7    11.387     5.964    0.22E-03    0.73E-03    0.24E-06
   1      7    11.387     5.382    0.19E-03    0.60E-03    0.21E-06
 Optimization of the real space projectors (new method)

 maximal supplied QI-value         = 34.20
 optimisation between [QCUT,QGAM] = [ 11.29, 22.57] = [ 35.68,142.71] Ry 
 Optimized for a Real-space Cutoff    1.20 Angstroem

   l    n(q)    QCUT    max X(q) W(low)/X(q) W(high)/X(q)  e(spline) 
   0      8    11.287    19.460    0.22E-03    0.50E-03    0.19E-06
   0      8    11.287    12.209    0.21E-03    0.48E-03    0.18E-06
   1      8    11.287     4.655    0.21E-03    0.11E-04    0.26E-06
  PAW_PBE C 08Apr2002                   :
 energy of atom  1       EATOM= -147.1560
 kinetic energy error for atom=    0.0076 (will be added to EATOM!!)
  PAW_PBE N 08Apr2002                   :
 energy of atom  2       EATOM= -264.5486
 kinetic energy error for atom=    0.0138 (will be added to EATOM!!)
  PAW_PBE O 08Apr2002                   :
 energy of atom  3       EATOM= -432.3788
 kinetic energy error for atom=    0.0224 (will be added to EATOM!!)
  PAW_PBE H 15Jun2001                   :
 energy of atom  4       EATOM=  -12.4884
 kinetic energy error for atom=    0.0020 (will be added to EATOM!!)
 
 
 POSCAR: C N O H
  positions in direct lattice
  velocities in cartesian coordinates
 exchange correlation table for  LEXCH =        8
   RHO(1)=    0.500       N(1)  =     2000
   RHO(2)=  100.500       N(2)  =     4000
 


--------------------------------------------------------------------------------------------------------


 ion  position               nearest neighbor table
   1  0.505  0.545  0.459-  11 1.52   7 1.53   2 1.54   6 1.55
   2  0.531  0.490  0.445-  15 1.10  16 1.10   3 1.52   1 1.54
   3  0.541  0.454  0.493-  17 1.10   2 1.52  10 1.52   4 1.53
   4  0.489  0.444  0.522-  18 1.10  19 1.10   3 1.53   5 1.54
   5  0.460  0.495  0.542-  11 1.52   9 1.53   4 1.54   8 1.55
   6  0.546  0.583  0.487-  21 1.09  20 1.10  22 1.10   1 1.55
   7  0.483  0.572  0.409-  23 1.10  25 1.10  24 1.10   1 1.53
   8  0.491  0.521  0.590-  27 1.09  26 1.10  28 1.10   5 1.55
   9  0.403  0.483  0.559-  29 1.10  31 1.10  30 1.10   5 1.53
  10  0.567  0.402  0.475-  13 1.23  14 1.35   3 1.52
  11  0.459  0.536  0.498-  12 1.21   1 1.52   5 1.52
  12  0.420  0.564  0.493-  11 1.21
  13  0.581  0.392  0.429-  10 1.23
  14  0.574  0.369  0.517-  32 0.98  10 1.35
  15  0.568  0.499  0.423-   2 1.10
  16  0.504  0.470  0.416-   2 1.10
  17  0.570  0.473  0.520-   3 1.10
  18  0.495  0.419  0.558-   4 1.10
  19  0.461  0.422  0.496-   4 1.10
  20  0.525  0.618  0.503-   6 1.10
  21  0.568  0.563  0.520-   6 1.09
  22  0.574  0.595  0.456-   6 1.10
  23  0.469  0.613  0.418-   7 1.10
  24  0.450  0.549  0.392-   7 1.10
  25  0.516  0.575  0.380-   7 1.10
  26  0.474  0.561  0.599-   8 1.10
  27  0.534  0.524  0.584-   8 1.09
  28  0.484  0.494  0.624-   8 1.10
  29  0.383  0.518  0.577-   9 1.10
  30  0.379  0.470  0.524-   9 1.10
  31  0.404  0.451  0.588-   9 1.10
  32  0.592  0.336  0.504-  14 0.98
 
  LATTYP: Found a simple cubic cell.
 ALAT       =    25.0000000000
  
  Lattice vectors:
  
 A1 = (  25.0000000000,   0.0000000000,   0.0000000000)
 A2 = (   0.0000000000,  25.0000000000,   0.0000000000)
 A3 = (   0.0000000000,   0.0000000000,  25.0000000000)


Analysis of symmetry for initial positions (statically):
=====================================================================
 Subroutine PRICEL returns:
 Original cell was already a primitive cell.
 

 Routine SETGRP: Setting up the symmetry group for a 
 simple cubic supercell.


 Subroutine GETGRP returns: Found  1 space group operations
 (whereof  1 operations were pure point group operations)
 out of a pool of 48 trial point group operations.


The static configuration has the point symmetry C_1 .


Analysis of symmetry for dynamics (positions and initial velocities):
=====================================================================
 Subroutine PRICEL returns:
 Original cell was already a primitive cell.
 

 Routine SETGRP: Setting up the symmetry group for a 
 simple cubic supercell.


 Subroutine GETGRP returns: Found  1 space group operations
 (whereof  1 operations were pure point group operations)
 out of a pool of 48 trial point group operations.


The dynamic configuration has the point symmetry C_1 .


Analysis of constrained symmetry for selective dynamics:
=====================================================================
 Subroutine PRICEL returns:
 Original cell was already a primitive cell.
 

 Routine SETGRP: Setting up the symmetry group for a 
 simple cubic supercell.


 Subroutine GETGRP returns: Found  1 space group operations
 (whereof  1 operations were pure point group operations)
 out of a pool of 48 trial point group operations.


The constrained configuration has the point symmetry C_1 .


Analysis of structural, dynamic, and magnetic symmetry:
=====================================================================
 Subroutine PRICEL returns:
 Original cell was already a primitive cell.
 

 Routine SETGRP: Setting up the symmetry group for a 
 simple cubic supercell.


 Subroutine GETGRP returns: Found  1 space group operations
 (whereof  1 operations were pure point group operations)
 out of a pool of 48 trial point group operations.


The overall configuration has the point symmetry C_1 .


 Subroutine INISYM returns: Found  1 space group operations
 (whereof  1 operations are pure point group operations),
 and found     1 'primitive' translations


----------------------------------------------------------------------------------------

                                     Primitive cell                                     

  volume of cell :   15625.0000

  direct lattice vectors                    reciprocal lattice vectors
    25.000000000  0.000000000  0.000000000     0.040000000  0.000000000  0.000000000
     0.000000000 25.000000000  0.000000000     0.000000000  0.040000000  0.000000000
     0.000000000  0.000000000 25.000000000     0.000000000  0.000000000  0.040000000

  length of vectors
    25.000000000 25.000000000 25.000000000     0.040000000  0.040000000  0.040000000

  position of ions in fractional coordinates (direct lattice)
     0.505384255  0.544904537  0.458947627
     0.530663175  0.490479792  0.444699000
     0.541119138  0.454448992  0.492732731
     0.488558793  0.443702827  0.522379192
     0.460348979  0.494839238  0.542472466
     0.545663826  0.582652732  0.487420286
     0.483014243  0.572392770  0.409215170
     0.490517940  0.520956268  0.590053366
     0.402613698  0.483167389  0.558546193
     0.567489467  0.402354880  0.475157710
     0.459323779  0.536144688  0.497766210
     0.419992201  0.563752314  0.493124378
     0.581471224  0.392190978  0.429301164
     0.574458173  0.368519507  0.516535868
     0.567880714  0.499475717  0.423206452
     0.504102177  0.469751893  0.416459114
     0.570170936  0.472907354  0.520282528
     0.495097313  0.418695336  0.557825438
     0.460902947  0.422165434  0.495826545
     0.525484558  0.618349049  0.502909414
     0.567803872  0.563074587  0.519609402
     0.574194809  0.594864490  0.456388231
     0.468927773  0.613004671  0.417738705
     0.450214394  0.549065969  0.391684733
     0.515729354  0.574832261  0.380077055
     0.474076853  0.560551270  0.599195165
     0.533623481  0.524023673  0.583511766
     0.483517198  0.494468036  0.624350222
     0.383375511  0.517927219  0.577046760
     0.378891557  0.470200715  0.523960362
     0.403760380  0.450593691  0.587917422
     0.591628282  0.335542720  0.503660326

  ion indices of the primitive-cell ions
   primitive index   ion index
                 1           1
                 2           2
                 3           3
                 4           4
                 5           5
                 6           6
                 7           7
                 8           8
                 9           9
                10          10
                11          11
                12          12
                13          13
                14          14
                15          15
                16          16
                17          17
                18          18
                19          19
                20          20
                21          21
                22          22
                23          23
                24          24
                25          25
                26          26
                27          27
                28          28
                29          29
                30          30
                31          31
                32          32

----------------------------------------------------------------------------------------

 
 
 KPOINTS: K-Point Grid                            

Automatic generation of k-mesh.
 Grid dimensions read from file:
 generate k-points for:    1    1    1

 Generating k-lattice:

  Cartesian coordinates                     Fractional coordinates (reciprocal lattice)
     0.040000000  0.000000000  0.000000000     1.000000000  0.000000000  0.000000000
     0.000000000  0.040000000  0.000000000     0.000000000  1.000000000  0.000000000
     0.000000000  0.000000000  0.040000000     0.000000000  0.000000000  1.000000000

  Length of vectors
     0.040000000  0.040000000  0.040000000

  Shift w.r.t. Gamma in fractional coordinates (k-lattice)
     0.000000000  0.000000000  0.000000000

 
 Subroutine IBZKPT returns following result:
 ===========================================
 
 Found      1 irreducible k-points:
 
 Following reciprocal coordinates:
            Coordinates               Weight
  0.000000  0.000000  0.000000      1.000000
 
 Following cartesian coordinates:
            Coordinates               Weight
  0.000000  0.000000  0.000000      1.000000
 


--------------------------------------------------------------------------------------------------------




 Dimension of arrays:
   k-points           NKPTS =      1   k-points in BZ     NKDIM =      1   number of bands    NBANDS=     78
   number of dos      NEDOS =    301   number of ions     NIONS =     32
   non local maximal  LDIM  =      4   non local SUM 2l+1 LMDIM =      8
   total plane-waves  NPLWV = ******
   max r-space proj   IRMAX =   5615   max aug-charges    IRDMAX=   6076
   dimension x,y,z NGX =   192 NGY =  192 NGZ =  192
   dimension x,y,z NGXF=   384 NGYF=  384 NGZF=  384
   support grid    NGXF=   384 NGYF=  384 NGZF=  384
   ions per type =              10   1   3  18
   NGX,Y,Z   is equivalent  to a cutoff of  12.77, 12.77, 12.77 a.u.
   NGXF,Y,Z  is equivalent  to a cutoff of  25.54, 25.54, 25.54 a.u.

 SYSTEM =  charged_w03_ox                          
 POSCAR =  C N O H                                 

 Startparameter for this run:
   NWRITE =      2    write-flag & timer
   PREC   = accura    normal or accurate (medium, high low for compatibility)
   ISTART =      0    job   : 0-new  1-cont  2-samecut
   ICHARG =      2    charge: 1-file 2-atom 10-const
   ISPIN  =      2    spin polarized calculation?
   LNONCOLLINEAR =      F non collinear calculations
   LSORBIT =      F    spin-orbit coupling
   INIWAV =      1    electr: 0-lowe 1-rand  2-diag
   LASPH  =      F    aspherical Exc in radial PAW
 Electronic Relaxation 1
   ENCUT  =  500.0 eV  36.75 Ry    6.06 a.u.  45.58 45.58 45.58*2*pi/ulx,y,z
   ENINI  =  500.0     initial cutoff
   ENAUG  =  644.9 eV  augmentation charge cutoff
   NELM   =    500;   NELMIN=  2; NELMDL= -5     # of ELM steps 
   EDIFF  = 0.1E-04   stopping-criterion for ELM
   LREAL  =      T    real-space projection
   NLSPLINE    = F    spline interpolate recip. space projectors
   LCOMPAT=      F    compatible to vasp.4.4
   GGA_COMPAT  = T    GGA compatible to vasp.4.4-vasp.4.6
   LMAXPAW     = -100 max onsite density
   LMAXMIX     =    2 max onsite mixed and CHGCAR
   VOSKOWN=      0    Vosko Wilk Nusair interpolation
   ROPT   =   -0.00025  -0.00025  -0.00025  -0.00025
 Ionic relaxation
   EDIFFG = -.2E-01   stopping-criterion for IOM
   NSW    =    500    number of steps for IOM
   NBLOCK =      1;   KBLOCK =    500    inner block; outer block 
   IBRION =      2    ionic relax: 0-MD 1-quasi-New 2-CG
   NFREE  =      1    steps in history (QN), initial steepest desc. (CG)
   ISIF   =      2    stress and relaxation
   IWAVPR =     11    prediction:  0-non 1-charg 2-wave 3-comb
   ISYM   =      2    0-nonsym 1-usesym 2-fastsym
   LCORR  =      T    Harris-Foulkes like correction to forces

   POTIM  = 0.5000    time-step for ionic-motion
   TEIN   =    0.0    initial temperature
   TEBEG  =    0.0;   TEEND  =   0.0 temperature during run
   SMASS  =  -3.00    Nose mass-parameter (am)
   estimated Nose-frequenzy (Omega)   =  0.10E-29 period in steps = 0.13E+47 mass=  -0.143E-25a.u.
   SCALEE = 1.0000    scale energy and forces
   NPACO  =    256;   APACO  = 10.0  distance and # of slots for P.C.
   PSTRESS=    0.0 pullay stress

  Mass of Ions in am
   POMASS =  12.01 14.00 16.00  1.00
  Ionic Valenz
   ZVAL   =   4.00  5.00  6.00  1.00
  Atomic Wigner-Seitz radii
   RWIGS  =  -1.00 -1.00 -1.00 -1.00
  virtual crystal weights 
   VCA    =   1.00  1.00  1.00  1.00
   NELECT =      80.0000    total number of electrons
   NUPDOWN=      -1.0000    fix difference up-down

 DOS related values:
   EMIN   =  10.00;   EMAX   =-10.00  energy-range for DOS
   EFERMI =   0.00;   METHOD = LEGACY      
   ISMEAR =     0;   SIGMA  =   0.05  broadening in eV -4-tet -1-fermi 0-gaus

 Electronic relaxation 2 (details)
   IALGO  =     68    algorithm
   LDIAG  =      T    sub-space diagonalisation (order eigenvalues)
   LSUBROT=      F    optimize rotation matrix (better conditioning)
   TURBO    =      0    0=normal 1=particle mesh
   IRESTART =      0    0=no restart 2=restart with 2 vectors
   NREBOOT  =      0    no. of reboots
   NMIN     =      0    reboot dimension
   EREF     =   0.00    reference energy to select bands
   IMIX   =      4    mixing-type and parameters
     AMIX     =   0.40;   BMIX     =  1.00
     AMIX_MAG =   1.60;   BMIX_MAG =  1.00
     AMIN     =   0.10
     WC   =   100.;   INIMIX=   1;  MIXPRE=   1;  MAXMIX= -45

 Intra band minimization:
   WEIMIN = 0.0010     energy-eigenvalue tresh-hold
   EBREAK =  0.32E-07  absolut break condition
   DEPER  =   0.30     relativ break condition  

   TIME   =   0.40     timestep for ELM

  volume/ion in A,a.u.               =     488.28      3295.08
  Fermi-wavevector in a.u.,A,eV,Ry     =   0.282162  0.533208  1.083231  0.079615
  Thomas-Fermi vector in A             =   1.132669
 
 Write flags
   LWAVE        =      T    write WAVECAR
   LDOWNSAMPLE  =      F    k-point downsampling of WAVECAR
   LCHARG       =      F    write CHGCAR
   LVTOT        =      F    write LOCPOT, total local potential
   LVHAR        =      F    write LOCPOT, Hartree potential only
   LELF         =      F    write electronic localiz. function (ELF)
   LORBIT       =      0    0 simple, 1 ext, 2 COOP (PROOUT), +10 PAW based schemes


 Dipole corrections
   LMONO  =      F    monopole corrections only (constant potential shift)
   LDIPOL =      F    correct potential (dipole corrections)
   IDIPOL =      0    1-x, 2-y, 3-z, 4-all directions 
   EPSILON=  1.0000000 bulk dielectric constant

 Exchange correlation treatment:
   GGA     =    --    GGA type
   LEXCH   =     8    internal setting for exchange type
   LIBXC   =     F    Libxc                    
   VOSKOWN =     0    Vosko Wilk Nusair interpolation
   LHFCALC =     F    Hartree Fock is set to
   LHFONE  =     F    Hartree Fock one center treatment
   AEXX    =    0.0000 exact exchange contribution

 Linear response parameters
   LEPSILON=     F    determine dielectric tensor
   LRPA    =     F    only Hartree local field effects (RPA)
   LNABLA  =     F    use nabla operator in PAW spheres
   LVEL    =     F    velocity operator in full k-point grid
   CSHIFT  =0.1000    complex shift for real part using Kramers Kronig
   OMEGAMAX=  -1.0    maximum frequency
   DEG_THRESHOLD= 0.2000000E-02 threshold for treating states as degnerate
   RTIME   =   -0.100 relaxation time in fs
  (WPLASMAI=    0.000 imaginary part of plasma frequency in eV, 0.658/RTIME)
   DFIELD  = 0.0000000 0.0000000 0.0000000 field for delta impulse in time
 
  Optional k-point grid parameters
   LKPOINTS_OPT  =     F    use optional k-point grid
   KPOINTS_OPT_MODE=     1    mode for optional k-point grid
 
 Orbital magnetization related:
   ORBITALMAG=     F  switch on orbital magnetization
   LCHIMAG   =     F  perturbation theory with respect to B field
   DQ        =  0.001000  dq finite difference perturbation B field
   LLRAUG    =     F  two centre corrections for induced B field
   LBONE     =     F  B-component reconstruction in AE one-centre
   LVGVCALC  =     T  calculate vGv susceptibility
   LVGVAPPL  =     F  apply vGv susceptibility instead of pGv for G=0

 Random number generation:
   RANDOM_GENERATOR = DEFAULT
   PCG_SEED         = not used
 Solvation model:
   LSOL    =     T         switch on solvation model
   EB_K    = 78.400000     relative permittivity of the bulk solvent
   SIGMA_K =  0.600000     width of the dielectric cavity
   NC_K    =  0.002500     cutoff charge density
   TAU     =  0.000000     cavity surface tension
   LAMBDA_D_K    =  3.040000     Debye length in Angstroms
   LRHOB     =     F     write boundcharge  density
   LRHOION     =     F     write ioniccharge density



--------------------------------------------------------------------------------------------------------


 conjugate gradient relaxation of ions
   using selective dynamics as specified on POSCAR
 charge density and potential will be updated during run
 spin polarized calculation
 RMM-DIIS sequential band-by-band and
  variant of blocked Davidson during initial phase
 perform sub-space diagonalisation
    before iterative eigenvector-optimisation
 modified Broyden-mixing scheme, WC =      100.0
 initial mixing is a Kerker type mixing with AMIX =  0.4000 and BMIX =      1.0000
 Hartree-type preconditioning will be used
 using additional bands           38
 real space projection scheme for non local part
 use partial core corrections
 calculate Harris-corrections to forces 
   (improved forces if not selfconsistent)
 use gradient corrections 
 use of overlap-Matrix (Vanderbilt PP)
 Gauss-broadening in eV      SIGMA  =   0.05


--------------------------------------------------------------------------------------------------------


  energy-cutoff  :      500.00
  volume of cell :    15625.00
      direct lattice vectors                 reciprocal lattice vectors
    25.000000000  0.000000000  0.000000000     0.040000000  0.000000000  0.000000000
     0.000000000 25.000000000  0.000000000     0.000000000  0.040000000  0.000000000
     0.000000000  0.000000000 25.000000000     0.000000000  0.000000000  0.040000000

  length of vectors
    25.000000000 25.000000000 25.000000000     0.040000000  0.040000000  0.040000000


 
 k-points in units of 2pi/SCALE and weight: K-Point Grid                            
   0.00000000  0.00000000  0.00000000       1.000
 
 k-points in reciprocal lattice and weights: K-Point Grid                            
   0.00000000  0.00000000  0.00000000       1.000
 
 position of ions in fractional coordinates (direct lattice) 
   0.50538426  0.54490454  0.45894763
   0.53066317  0.49047979  0.44469900
   0.54111914  0.45444899  0.49273273
   0.48855879  0.44370283  0.52237919
   0.46034898  0.49483924  0.54247247
   0.54566383  0.58265273  0.48742029
   0.48301424  0.57239277  0.40921517
   0.49051794  0.52095627  0.59005337
   0.40261370  0.48316739  0.55854619
   0.56748947  0.40235488  0.47515771
   0.45932378  0.53614469  0.49776621
   0.41999220  0.56375231  0.49312438
   0.58147122  0.39219098  0.42930116
   0.57445817  0.36851951  0.51653587
   0.56788071  0.49947572  0.42320645
   0.50410218  0.46975189  0.41645911
   0.57017094  0.47290735  0.52028253
   0.49509731  0.41869534  0.55782544
   0.46090295  0.42216543  0.49582655
   0.52548456  0.61834905  0.50290941
   0.56780387  0.56307459  0.51960940
   0.57419481  0.59486449  0.45638823
   0.46892777  0.61300467  0.41773871
   0.45021439  0.54906597  0.39168473
   0.51572935  0.57483226  0.38007705
   0.47407685  0.56055127  0.59919517
   0.53362348  0.52402367  0.58351177
   0.48351720  0.49446804  0.62435022
   0.38337551  0.51792722  0.57704676
   0.37889156  0.47020072  0.52396036
   0.40376038  0.45059369  0.58791742
   0.59162828  0.33554272  0.50366033
 
 position of ions in cartesian coordinates  (Angst):
  12.63460638 13.62261342 11.47369066
  13.26657937 12.26199480 11.11747501
  13.52797846 11.36122481 12.31831827
  12.21396982 11.09257067 13.05947981
  11.50872447 12.37098095 13.56181164
  13.64159566 14.56631831 12.18550715
  12.07535608 14.30981926 10.23037925
  12.26294851 13.02390671 14.75133415
  10.06534246 12.07918471 13.96365481
  14.18723668 10.05887201 11.87894274
  11.48309448 13.40361721 12.44415526
  10.49980502 14.09380785 12.32810944
  14.53678059  9.80477444 10.73252910
  14.36145432  9.21298767 12.91339671
  14.19701785 12.48689293 10.58016129
  12.60255441 11.74379732 10.41147785
  14.25427341 11.82268385 13.00706319
  12.37743282 10.46738341 13.94563594
  11.52257368 10.55413585 12.39566364
  13.13711394 15.45872623 12.57273534
  14.19509680 14.07686468 12.99023504
  14.35487023 14.87161226 11.40970578
  11.72319431 15.32511678 10.44346763
  11.25535986 13.72664924  9.79211833
  12.89323385 14.37080652  9.50192637
  11.85192131 14.01378175 14.97987913
  13.34058703 13.10059182 14.58779415
  12.08792995 12.36170091 15.60875554
   9.58438777 12.94818046 14.42616899
   9.47228894 11.75501788 13.09900905
  10.09400949 11.26484229 14.69793556
  14.79070704  8.38856800 12.59150816
 


--------------------------------------------------------------------------------------------------------


 k-point   1 :   0.0000 0.0000 0.0000  plane waves:  396599

 maximum and minimum number of plane-waves per node :     26445    26429

 maximum number of plane-waves:    396599
 maximum index in each direction: 
   IXMAX=   45   IYMAX=   45   IZMAX=   45
   IXMIN=  -45   IYMIN=  -45   IZMIN=  -45


 real space projection operators:
  total allocation   :       4293.20 KBytes
  max/ min on nodes  :        309.54        260.91


 parallel 3D FFT for wavefunctions:
    minimum data exchange during FFTs selected (reduces bandwidth)
 parallel 3D FFT for charge:
    minimum data exchange during FFTs selected (reduces bandwidth)


 total amount of memory used by VASP MPI-rank0   192113. kBytes
=======================================================================

   base      :      30000. kBytes
   nonlr-proj:       3400. kBytes
   fftplans  :      38189. kBytes
   grid      :     109504. kBytes
   one-center:         18. kBytes
   wavefun   :      11002. kBytes
 
     INWAV:  cpu time      0.0001: real time      0.0015
 Broyden mixing: mesh for mixing (old mesh)
   NGX = 91   NGY = 91   NGZ = 91
  (NGX  =384   NGY  =384   NGZ  =384)
  gives a total of 753571 points

 initial charge density was supplied:
 charge density of overlapping atoms calculated
 number of electron      81.0000000 magnetization      32.0000000
 keeping initial charge density in first step


--------------------------------------------------------------------------------------------------------


 Maximum index for non-local projection operator          362
 Maximum index for augmentation-charges          333 (set IRDMAX)


--------------------------------------------------------------------------------------------------------


 First call to EWALD:  gamma=   0.071
 Maximum number of real-space cells 3x 3x 3
 Maximum number of reciprocal cells 3x 3x 3

    FEWALD:  cpu time      0.0036: real time      0.0036


--------------------------------------- Ionic step        1  -------------------------------------------




--------------------------------------- Iteration      1(   1)  ---------------------------------------


    POTLOK:  cpu time    337.3493: real time    337.3894
    SETDIJ:  cpu time      0.0173: real time      0.0173
     EDDAV:  cpu time      6.1732: real time      6.1737
       DOS:  cpu time      0.0045: real time      0.0045
    --------------------------------------------
      LOOP:  cpu time    343.5443: real time    343.5850

 eigenvalue-minimisations  :   360
 total energy-change (2. order) : 0.7806230E+03  (-0.1500069E+04)
 number of electron      81.0000000 magnetization      32.0000000
 augmentation part       81.0000000 magnetization      32.0000000

 Free energy of the ion-electron system (eV)
  ---------------------------------------------------
  alpha Z        PSCENC =         1.76382608
  Ewald energy   TEWEN  =      9829.95284002
  -Hartree energ DENC   =    -12148.44416158
  -exchange      EXHF   =         0.00000000
  -V(xc)+E(xc)   XCENC  =       286.65669625
  PAW double counting   =      2360.25025159    -2372.57297515
  entropy T*S    EENTRO =        -0.05467414
  eigenvalues    EBANDS =      -427.80448962
  atomic energy  EATOM  =      3257.84410776
  Solvation  Ediel_sol  =        -6.96840545
  ---------------------------------------------------
  free energy    TOTEN  =       780.62301577 eV

  energy without entropy =      780.67768991  energy(sigma->0) =      780.65035284


--------------------------------------------------------------------------------------------------------




--------------------------------------- Iteration      1(   2)  ---------------------------------------


     EDDAV:  cpu time      9.2613: real time      9.2860
       DOS:  cpu time      0.0050: real time      0.0050
    --------------------------------------------
      LOOP:  cpu time      9.2663: real time      9.2910

 eigenvalue-minimisations  :   558
 total energy-change (2. order) :-0.4845279E+03  (-0.4380787E+03)
 number of electron      81.0000000 magnetization      32.0000000
 augmentation part       81.0000000 magnetization      32.0000000

 Free energy of the ion-electron system (eV)
  ---------------------------------------------------
  alpha Z        PSCENC =         1.76382608
  Ewald energy   TEWEN  =      9829.95284002
  -Hartree energ DENC   =    -12148.44416158
  -exchange      EXHF   =         0.00000000
  -V(xc)+E(xc)   XCENC  =       286.65669625
  PAW double counting   =      2360.25025159    -2372.57297515
  entropy T*S    EENTRO =        -0.02657220
  eigenvalues    EBANDS =      -912.36050561
  atomic energy  EATOM  =      3257.84410776
  Solvation  Ediel_sol  =        -6.96840545
  ---------------------------------------------------
  free energy    TOTEN  =       296.09510172 eV

  energy without entropy =      296.12167392  energy(sigma->0) =      296.10838782


--------------------------------------------------------------------------------------------------------




--------------------------------------- Iteration      1(   3)  ---------------------------------------


     EDDAV:  cpu time      8.2731: real time      8.2767
       DOS:  cpu time      0.1975: real time      0.1976
    --------------------------------------------
      LOOP:  cpu time      8.4707: real time      8.4743

 eigenvalue-minimisations  :   492
 total energy-change (2. order) :-0.3815674E+03  (-0.3666282E+03)
 number of electron      81.0000000 magnetization      32.0000000
 augmentation part       81.0000000 magnetization      32.0000000

 Free energy of the ion-electron system (eV)
  ---------------------------------------------------
  alpha Z        PSCENC =         1.76382608
  Ewald energy   TEWEN  =      9829.95284002
  -Hartree energ DENC   =    -12148.44416158
  -exchange      EXHF   =         0.00000000
  -V(xc)+E(xc)   XCENC  =       286.65669625
  PAW double counting   =      2360.25025159    -2372.57297515
  entropy T*S    EENTRO =        -0.00000000
  eigenvalues    EBANDS =     -1293.95444056
  atomic energy  EATOM  =      3257.84410776
  Solvation  Ediel_sol  =        -6.96840545
  ---------------------------------------------------
  free energy    TOTEN  =       -85.47226103 eV

  energy without entropy =      -85.47226103  energy(sigma->0) =      -85.47226103


--------------------------------------------------------------------------------------------------------




--------------------------------------- Iteration      1(   4)  ---------------------------------------


     EDDAV:  cpu time      7.4372: real time      7.4379
       DOS:  cpu time      0.0036: real time      0.0036
    --------------------------------------------
      LOOP:  cpu time      7.4408: real time      7.4415

 eigenvalue-minimisations  :   450
 total energy-change (2. order) :-0.6992552E+02  (-0.6976202E+02)
 number of electron      81.0000000 magnetization      32.0000000
 augmentation part       81.0000000 magnetization      32.0000000

 Free energy of the ion-electron system (eV)
  ---------------------------------------------------
  alpha Z        PSCENC =         1.76382608
  Ewald energy   TEWEN  =      9829.95284002
  -Hartree energ DENC   =    -12148.44416158
  -exchange      EXHF   =         0.00000000
  -V(xc)+E(xc)   XCENC  =       286.65669625
  PAW double counting   =      2360.25025159    -2372.57297515
  entropy T*S    EENTRO =        -0.00000000
  eigenvalues    EBANDS =     -1363.87996034
  atomic energy  EATOM  =      3257.84410776
  Solvation  Ediel_sol  =        -6.96840545
  ---------------------------------------------------
  free energy    TOTEN  =      -155.39778082 eV

  energy without entropy =     -155.39778082  energy(sigma->0) =     -155.39778082


--------------------------------------------------------------------------------------------------------




--------------------------------------- Iteration      1(   5)  ---------------------------------------


     EDDAV:  cpu time      7.3695: real time      7.3701
       DOS:  cpu time      0.0019: real time      0.0019
    CHARGE:  cpu time      0.7807: real time      0.7808
    MIXING:  cpu time      0.0288: real time      0.0288
    --------------------------------------------
      LOOP:  cpu time      8.1809: real time      8.1816

 eigenvalue-minimisations  :   456
 total energy-change (2. order) :-0.1457481E+01  (-0.1452643E+01)
 number of electron      79.9999994 magnetization      28.9580728
 augmentation part        3.7730413 magnetization      28.9568041

 Broyden mixing:
  rms(total) = 0.38701E+01    rms(broyden)= 0.38695E+01
  rms(prec ) = 0.39620E+01
  weight for this iteration     100.00

 Free energy of the ion-electron system (eV)
  ---------------------------------------------------
  alpha Z        PSCENC =         1.76382608
  Ewald energy   TEWEN  =      9829.95284002
  -Hartree energ DENC   =    -12148.44416158
  -exchange      EXHF   =         0.00000000
  -V(xc)+E(xc)   XCENC  =       286.65669625
  PAW double counting   =      2360.25025159    -2372.57297515
  entropy T*S    EENTRO =        -0.00000000
  eigenvalues    EBANDS =     -1365.33744097
  atomic energy  EATOM  =      3257.84410776
  Solvation  Ediel_sol  =        -6.96840545
  ---------------------------------------------------
  free energy    TOTEN  =      -156.85526144 eV

  energy without entropy =     -156.85526144  energy(sigma->0) =     -156.85526144


--------------------------------------------------------------------------------------------------------




--------------------------------------- Iteration      1(   6)  ---------------------------------------


    POTLOK:  cpu time    350.8303: real time    350.8583
    SETDIJ:  cpu time      0.0142: real time      0.0142
    EDDIAG:  cpu time      1.4535: real time      1.4537
  RMM-DIIS:  cpu time      3.2313: real time      3.2315
    ORTHCH:  cpu time      0.4236: real time      0.4237
       DOS:  cpu time      0.0026: real time      0.0026
    CHARGE:  cpu time      0.7845: real time      0.7846
    MIXING:  cpu time      0.0237: real time      0.0237
    --------------------------------------------
      LOOP:  cpu time    356.7636: real time    356.7923

 eigenvalue-minimisations  :   312
 total energy-change (2. order) : 0.9067933E+02  (-0.1728453E+02)
 number of electron      79.9999994 magnetization      25.8755535
 augmentation part        3.6522665 magnetization      25.6353146

 Broyden mixing:
  rms(total) = 0.18860E+01    rms(broyden)= 0.18858E+01
  rms(prec ) = 0.19444E+01
  weight for this iteration     100.00

 eigenvalues of (default mixing * dielectric matrix)
  average eigenvalue GAMMA=   0.9416
  0.9416

 Free energy of the ion-electron system (eV)
  ---------------------------------------------------
  alpha Z        PSCENC =         1.76382608
  Ewald energy   TEWEN  =      9829.95284002
  -Hartree energ DENC   =    -12265.79174873
  -exchange      EXHF   =         0.00000000
  -V(xc)+E(xc)   XCENC  =       368.45387285
  PAW double counting   =      3625.67709534    -3639.79871432
  entropy T*S    EENTRO =        -0.00000000
  eigenvalues    EBANDS =     -1206.39822195
  atomic energy  EATOM  =      3257.84410776
  Solvation  Ediel_sol  =       -37.87899160
  ---------------------------------------------------
  free energy    TOTEN  =       -66.17593454 eV

  energy without entropy =      -66.17593454  energy(sigma->0) =      -66.17593454


--------------------------------------------------------------------------------------------------------




--------------------------------------- Iteration      1(   7)  ---------------------------------------


    POTLOK:  cpu time    365.4074: real time    365.4449
    SETDIJ:  cpu time      0.0145: real time      0.0145
    EDDIAG:  cpu time      1.4240: real time      1.4241
  RMM-DIIS:  cpu time      3.2327: real time      3.2330
    ORTHCH:  cpu time      0.4653: real time      0.4654
       DOS:  cpu time      0.0054: real time      0.0054
    CHARGE:  cpu time      1.1867: real time      1.1868
    MIXING:  cpu time      0.0237: real time      0.0237
    --------------------------------------------
      LOOP:  cpu time    371.7597: real time    371.7978

 eigenvalue-minimisations  :   312
 total energy-change (2. order) :-0.5110745E+02  (-0.6182306E+01)
 number of electron      79.9999994 magnetization      23.2676770
 augmentation part        3.5476478 magnetization      22.5350011

 Broyden mixing:
  rms(total) = 0.12373E+01    rms(broyden)= 0.12370E+01
  rms(prec ) = 0.12608E+01
  weight for this iteration     100.00

 eigenvalues of (default mixing * dielectric matrix)
  average eigenvalue GAMMA=   0.9928
  1.1888  0.7968

 Free energy of the ion-electron system (eV)
  ---------------------------------------------------
  alpha Z        PSCENC =         1.76382608
  Ewald energy   TEWEN  =      9829.95284002
  -Hartree energ DENC   =    -12353.98054264
  -exchange      EXHF   =         0.00000000
  -V(xc)+E(xc)   XCENC  =       334.70363053
  PAW double counting   =      4746.78888149    -4761.73803851
  entropy T*S    EENTRO =        -0.02406794
  eigenvalues    EBANDS =     -1101.84914252
  atomic energy  EATOM  =      3257.84410776
  Solvation  Ediel_sol  =       -70.74487619
  ---------------------------------------------------
  free energy    TOTEN  =      -117.28338191 eV

  energy without entropy =     -117.25931397  energy(sigma->0) =     -117.27134794


--------------------------------------------------------------------------------------------------------




--------------------------------------- Iteration      1(   8)  ---------------------------------------


    POTLOK:  cpu time    365.9884: real time    366.0529
    SETDIJ:  cpu time      0.0134: real time      0.0134
    EDDIAG:  cpu time      1.6591: real time      1.6593
  RMM-DIIS:  cpu time      3.0420: real time      3.0422
    ORTHCH:  cpu time      0.4288: real time      0.4288
       DOS:  cpu time      0.0014: real time      0.0014
    CHARGE:  cpu time      0.7905: real time      0.7906
    MIXING:  cpu time      0.0280: real time      0.0280
    --------------------------------------------
      LOOP:  cpu time    371.9516: real time    372.0167

 eigenvalue-minimisations  :   313
 total energy-change (2. order) :-0.1319534E+02  (-0.2094159E+01)
 number of electron      79.9999994 magnetization      21.0029832
 augmentation part        3.4879062 magnetization      20.7976722

 Broyden mixing:
  rms(total) = 0.97890E+00    rms(broyden)= 0.97871E+00
  rms(prec ) = 0.99408E+00
  weight for this iteration     100.00

 eigenvalues of (default mixing * dielectric matrix)
  average eigenvalue GAMMA=   0.9542
  1.3622  0.8852  0.6153

 Free energy of the ion-electron system (eV)
  ---------------------------------------------------
  alpha Z        PSCENC =         1.76382608
  Ewald energy   TEWEN  =      9829.95284002
  -Hartree energ DENC   =    -12383.08539401
  -exchange      EXHF   =         0.00000000
  -V(xc)+E(xc)   XCENC  =       328.60094203
  PAW double counting   =      5441.32944351    -5456.33547789
  entropy T*S    EENTRO =        -0.00000000
  eigenvalues    EBANDS =     -1055.11165341
  atomic energy  EATOM  =      3257.84410776
  Solvation  Ediel_sol  =       -95.43735281
  ---------------------------------------------------
  free energy    TOTEN  =      -130.47871871 eV

  energy without entropy =     -130.47871871  energy(sigma->0) =     -130.47871871


--------------------------------------------------------------------------------------------------------




--------------------------------------- Iteration      1(   9)  ---------------------------------------


    POTLOK:  cpu time    364.5399: real time    364.5780
    SETDIJ:  cpu time      0.0136: real time      0.0136
    EDDIAG:  cpu time      1.6267: real time      1.6268
  RMM-DIIS:  cpu time      3.1430: real time      3.1432
    ORTHCH:  cpu time      0.4692: real time      0.4693
       DOS:  cpu time      0.2038: real time      0.2038
    CHARGE:  cpu time      0.7680: real time      0.7681
    MIXING:  cpu time      0.0277: real time      0.0277
    --------------------------------------------
      LOOP:  cpu time    370.7920: real time    370.8305

 eigenvalue-minimisations  :   314
 total energy-change (2. order) :-0.1070538E+02  (-0.6004152E+00)
 number of electron      79.9999993 magnetization      16.5747463
 augmentation part        3.4698986 magnetization      16.3872491

 Broyden mixing:
  rms(total) = 0.68953E+00    rms(broyden)= 0.68950E+00
  rms(prec ) = 0.70022E+00
  weight for this iteration     100.00

 eigenvalues of (default mixing * dielectric matrix)
  average eigenvalue GAMMA=   1.2500
  1.9975  1.5743  0.7859  0.6424

 Free energy of the ion-electron system (eV)
  ---------------------------------------------------
  alpha Z        PSCENC =         1.76382608
  Ewald energy   TEWEN  =      9829.95284002
  -Hartree energ DENC   =    -12383.89790830
  -exchange      EXHF   =         0.00000000
  -V(xc)+E(xc)   XCENC  =       321.72935388
  PAW double counting   =      5846.87779775    -5861.76515591
  entropy T*S    EENTRO =        -0.00000000
  eigenvalues    EBANDS =     -1041.78455256
  atomic energy  EATOM  =      3257.84410776
  Solvation  Ediel_sol  =      -111.90440298
  ---------------------------------------------------
  free energy    TOTEN  =      -141.18409425 eV

  energy without entropy =     -141.18409425  energy(sigma->0) =     -141.18409425


--------------------------------------------------------------------------------------------------------




--------------------------------------- Iteration      1(  10)  ---------------------------------------


    POTLOK:  cpu time    386.5552: real time    386.5957
    SETDIJ:  cpu time      0.0144: real time      0.0144
    EDDIAG:  cpu time      1.8215: real time      1.8217
  RMM-DIIS:  cpu time      3.2545: real time      3.2548
    ORTHCH:  cpu time      0.2825: real time      0.2825
       DOS:  cpu time      0.1976: real time      0.1977
    CHARGE:  cpu time      0.7876: real time      0.7877
    MIXING:  cpu time      0.0552: real time      0.0552
    --------------------------------------------
      LOOP:  cpu time    392.9685: real time    393.0096

 eigenvalue-minimisations  :   315
 total energy-change (2. order) :-0.2196703E+02  (-0.1189255E+01)
 number of electron      79.9999993 magnetization      14.4331798
 augmentation part        3.4551118 magnetization      14.2993426

 Broyden mixing:
  rms(total) = 0.39689E+00    rms(broyden)= 0.39685E+00
  rms(prec ) = 0.40099E+00
  weight for this iteration     100.00

 eigenvalues of (default mixing * dielectric matrix)
  average eigenvalue GAMMA=   1.2624
  2.4721  1.5207  0.8315  0.8315  0.6563

 Free energy of the ion-electron system (eV)
  ---------------------------------------------------
  alpha Z        PSCENC =         1.76382608
  Ewald energy   TEWEN  =      9829.95284002
  -Hartree energ DENC   =    -12369.35329657
  -exchange      EXHF   =         0.00000000
  -V(xc)+E(xc)   XCENC  =       305.61808799
  PAW double counting   =      6360.92303021    -6375.47580065
  entropy T*S    EENTRO =        -0.00000000
  eigenvalues    EBANDS =     -1038.34668053
  atomic energy  EATOM  =      3257.84410776
  Solvation  Ediel_sol  =      -136.07723504
  ---------------------------------------------------
  free energy    TOTEN  =      -163.15112073 eV

  energy without entropy =     -163.15112073  energy(sigma->0) =     -163.15112073


--------------------------------------------------------------------------------------------------------




--------------------------------------- Iteration      1(  11)  ---------------------------------------


    POTLOK:  cpu time    352.1161: real time    352.1515
    SETDIJ:  cpu time      0.0144: real time      0.0144
    EDDIAG:  cpu time      1.6237: real time      1.6238
  RMM-DIIS:  cpu time      3.0695: real time      3.0698
    ORTHCH:  cpu time      0.2856: real time      0.2856
       DOS:  cpu time      0.2008: real time      0.2008
    CHARGE:  cpu time      0.7819: real time      0.7819
    MIXING:  cpu time      0.0317: real time      0.0317
    --------------------------------------------
      LOOP:  cpu time    358.1236: real time    358.1595

 eigenvalue-minimisations  :   313
 total energy-change (2. order) :-0.4538002E+01  (-0.3510343E+00)
 number of electron      79.9999994 magnetization      11.8363852
 augmentation part        3.4381290 magnetization      11.7369702

 Broyden mixing:
  rms(total) = 0.33617E+00    rms(broyden)= 0.33615E+00
  rms(prec ) = 0.34037E+00
  weight for this iteration     100.00

 eigenvalues of (default mixing * dielectric matrix)
  average eigenvalue GAMMA=   1.2237
  2.2426  1.9303  0.9070  0.9070  0.6777  0.6777

 Free energy of the ion-electron system (eV)
  ---------------------------------------------------
  alpha Z        PSCENC =         1.76382608
  Ewald energy   TEWEN  =      9829.95284002
  -Hartree energ DENC   =    -12361.98754317
  -exchange      EXHF   =         0.00000000
  -V(xc)+E(xc)   XCENC  =       302.80870589
  PAW double counting   =      6429.24672863    -6443.77105469
  entropy T*S    EENTRO =        -0.00000000
  eigenvalues    EBANDS =     -1040.25905953
  atomic energy  EATOM  =      3257.84410776
  Solvation  Ediel_sol  =      -143.28767422
  ---------------------------------------------------
  free energy    TOTEN  =      -167.68912322 eV

  energy without entropy =     -167.68912322  energy(sigma->0) =     -167.68912322


--------------------------------------------------------------------------------------------------------




--------------------------------------- Iteration      1(  12)  ---------------------------------------


    POTLOK:  cpu time    351.2683: real time    351.3061
    SETDIJ:  cpu time      0.2252: real time      0.2252
    EDDIAG:  cpu time      1.4246: real time      1.4247
  RMM-DIIS:  cpu time      3.3631: real time      3.3633
    ORTHCH:  cpu time      0.2774: real time      0.2775
       DOS:  cpu time      0.2002: real time      0.2002
    CHARGE:  cpu time      0.9944: real time      0.9945
    MIXING:  cpu time      0.0340: real time      0.0340
    --------------------------------------------
      LOOP:  cpu time    357.7871: real time    357.8254

 eigenvalue-minimisations  :   312
 total energy-change (2. order) :-0.4761816E+01  (-0.1965671E+00)
 number of electron      79.9999994 magnetization       6.9740623
 augmentation part        3.4313918 magnetization       6.9015350

 Broyden mixing:
  rms(total) = 0.24737E+00    rms(broyden)= 0.24736E+00
  rms(prec ) = 0.25037E+00
  weight for this iteration     100.00

 eigenvalues of (default mixing * dielectric matrix)
  average eigenvalue GAMMA=   1.4861
  3.3241  2.5289  1.3891  0.8978  0.8978  0.7226  0.6419

 Free energy of the ion-electron system (eV)
  ---------------------------------------------------
  alpha Z        PSCENC =         1.76382608
  Ewald energy   TEWEN  =      9829.95284002
  -Hartree energ DENC   =    -12341.84561624
  -exchange      EXHF   =         0.00000000
  -V(xc)+E(xc)   XCENC  =       298.61096213
  PAW double counting   =      6287.85933666    -6302.35840691
  entropy T*S    EENTRO =        -0.00000000
  eigenvalues    EBANDS =     -1058.20951018
  atomic energy  EATOM  =      3257.84410776
  Solvation  Ediel_sol  =      -146.06847808
  ---------------------------------------------------
  free energy    TOTEN  =      -172.45093875 eV

  energy without entropy =     -172.45093875  energy(sigma->0) =     -172.45093875


--------------------------------------------------------------------------------------------------------




--------------------------------------- Iteration      1(  13)  ---------------------------------------


    POTLOK:  cpu time    372.6533: real time    372.6904
    SETDIJ:  cpu time      0.0161: real time      0.0161
    EDDIAG:  cpu time      1.5988: real time      1.5989
  RMM-DIIS:  cpu time      3.3686: real time      3.3689
    ORTHCH:  cpu time      0.2819: real time      0.2819
       DOS:  cpu time      0.0018: real time      0.0018
    CHARGE:  cpu time      0.7766: real time      0.7767
    MIXING:  cpu time      0.0273: real time      0.0273
    --------------------------------------------
      LOOP:  cpu time    378.7243: real time    378.7619

 eigenvalue-minimisations  :   325
 total energy-change (2. order) :-0.4521893E+01  (-0.3215945E+00)
 number of electron      79.9999993 magnetization       5.1316619
 augmentation part        3.4207403 magnetization       5.0927946

 Broyden mixing:
  rms(total) = 0.14572E+00    rms(broyden)= 0.14570E+00
  rms(prec ) = 0.14859E+00
  weight for this iteration     100.00

 eigenvalues of (default mixing * dielectric matrix)
  average eigenvalue GAMMA=   1.5583
  4.6484  2.2648  1.5469  0.9524  0.9524  0.6418  0.7297  0.7297

 Free energy of the ion-electron system (eV)
  ---------------------------------------------------
  alpha Z        PSCENC =         1.76382608
  Ewald energy   TEWEN  =      9829.95284002
  -Hartree energ DENC   =    -12309.86261325
  -exchange      EXHF   =         0.00000000
  -V(xc)+E(xc)   XCENC  =       294.52887375
  PAW double counting   =      6187.69076992    -6202.13682720
  entropy T*S    EENTRO =        -0.00000000
  eigenvalues    EBANDS =     -1081.70224101
  atomic energy  EATOM  =      3257.84410776
  Solvation  Ediel_sol  =      -155.05156816
  ---------------------------------------------------
  free energy    TOTEN  =      -176.97283209 eV

  energy without entropy =     -176.97283209  energy(sigma->0) =     -176.97283209


--------------------------------------------------------------------------------------------------------




--------------------------------------- Iteration      1(  14)  ---------------------------------------


    POTLOK:  cpu time    370.0704: real time    370.1225
    SETDIJ:  cpu time      0.0163: real time      0.0163
    EDDIAG:  cpu time      1.4232: real time      1.4233
  RMM-DIIS:  cpu time      3.0851: real time      3.0854
    ORTHCH:  cpu time      0.2801: real time      0.2801
       DOS:  cpu time      0.1988: real time      0.1988
    CHARGE:  cpu time      0.8111: real time      0.8112
    MIXING:  cpu time      0.0328: real time      0.0328
    --------------------------------------------
      LOOP:  cpu time    375.9178: real time    375.9704

 eigenvalue-minimisations  :   316
 total energy-change (2. order) :-0.8997889E+00  (-0.5650398E-01)
 number of electron      79.9999993 magnetization       3.5197052
 augmentation part        3.4184634 magnetization       3.4956498

 Broyden mixing:
  rms(total) = 0.10657E+00    rms(broyden)= 0.10656E+00
  rms(prec ) = 0.10866E+00
  weight for this iteration     100.00

 eigenvalues of (default mixing * dielectric matrix)
  average eigenvalue GAMMA=   1.6172
  5.8209  1.9862  1.7103  1.2023  0.8974  0.8974  0.6342  0.7029  0.7029

 Free energy of the ion-electron system (eV)
  ---------------------------------------------------
  alpha Z        PSCENC =         1.76382608
  Ewald energy   TEWEN  =      9829.95284002
  -Hartree energ DENC   =    -12299.49819969
  -exchange      EXHF   =         0.00000000
  -V(xc)+E(xc)   XCENC  =       293.69012099
  PAW double counting   =      6195.35783582    -6209.79757718
  entropy T*S    EENTRO =        -0.00000000
  eigenvalues    EBANDS =     -1087.58990695
  atomic energy  EATOM  =      3257.84410776
  Solvation  Ediel_sol  =      -159.59566783
  ---------------------------------------------------
  free energy    TOTEN  =      -177.87262100 eV

  energy without entropy =     -177.87262100  energy(sigma->0) =     -177.87262100


--------------------------------------------------------------------------------------------------------




--------------------------------------- Iteration      1(  15)  ---------------------------------------


    POTLOK:  cpu time    360.1890: real time    360.2312
    SETDIJ:  cpu time      0.0137: real time      0.0137
    EDDIAG:  cpu time      1.4307: real time      1.4308
  RMM-DIIS:  cpu time      3.0731: real time      3.0734
    ORTHCH:  cpu time      0.2824: real time      0.2824
       DOS:  cpu time      0.0011: real time      0.0011
    CHARGE:  cpu time      0.7706: real time      0.7706
    MIXING:  cpu time      0.0442: real time      0.0442
    --------------------------------------------
      LOOP:  cpu time    365.8048: real time    365.8475

 eigenvalue-minimisations  :   314
 total energy-change (2. order) :-0.8178546E+00  (-0.2790867E-01)
 number of electron      79.9999994 magnetization       2.0093128
 augmentation part        3.4192605 magnetization       1.9960726

 Broyden mixing:
  rms(total) = 0.76185E-01    rms(broyden)= 0.76178E-01
  rms(prec ) = 0.77758E-01
  weight for this iteration     100.00

 eigenvalues of (default mixing * dielectric matrix)
  average eigenvalue GAMMA=   1.7720
  6.9892  2.2220  2.2220  1.3922  1.0229  1.0229  0.7548  0.7548  0.6244  0.7147

 Free energy of the ion-electron system (eV)
  ---------------------------------------------------
  alpha Z        PSCENC =         1.76382608
  Ewald energy   TEWEN  =      9829.95284002
  -Hartree energ DENC   =    -12290.10105633
  -exchange      EXHF   =         0.00000000
  -V(xc)+E(xc)   XCENC  =       292.79625681
  PAW double counting   =      6184.91312782    -6199.35933135
  entropy T*S    EENTRO =        -0.00000000
  eigenvalues    EBANDS =     -1092.60645672
  atomic energy  EATOM  =      3257.84410776
  Solvation  Ediel_sol  =      -163.89378971
  ---------------------------------------------------
  free energy    TOTEN  =      -178.69047561 eV

  energy without entropy =     -178.69047561  energy(sigma->0) =     -178.69047561


--------------------------------------------------------------------------------------------------------




--------------------------------------- Iteration      1(  16)  ---------------------------------------


    POTLOK:  cpu time    379.2362: real time    379.2808
    SETDIJ:  cpu time      0.0155: real time      0.0155
    EDDIAG:  cpu time      1.5925: real time      1.5926
  RMM-DIIS:  cpu time      3.0858: real time      3.0861
    ORTHCH:  cpu time      0.6755: real time      0.6755
       DOS:  cpu time      0.0013: real time      0.0013
    CHARGE:  cpu time      1.3708: real time      1.3709
    MIXING:  cpu time      0.0335: real time      0.0335
    --------------------------------------------
      LOOP:  cpu time    386.0111: real time    386.0562

 eigenvalue-minimisations  :   316
 total energy-change (2. order) :-0.5329249E+00  (-0.1370313E-01)
 number of electron      79.9999994 magnetization       1.2733432
 augmentation part        3.4165772 magnetization       1.2667352

 Broyden mixing:
  rms(total) = 0.46827E-01    rms(broyden)= 0.46822E-01
  rms(prec ) = 0.47735E-01
  weight for this iteration     100.00

 eigenvalues of (default mixing * dielectric matrix)
  average eigenvalue GAMMA=   1.7989
  7.6305  2.7324  2.1155  1.4427  1.1103  0.9650  0.9650  0.7527  0.7527  0.6218
  0.6992

 Free energy of the ion-electron system (eV)
  ---------------------------------------------------
  alpha Z        PSCENC =         1.76382608
  Ewald energy   TEWEN  =      9829.95284002
  -Hartree energ DENC   =    -12282.05035370
  -exchange      EXHF   =         0.00000000
  -V(xc)+E(xc)   XCENC  =       292.18113453
  PAW double counting   =      6169.22278822    -6183.69850505
  entropy T*S    EENTRO =        -0.00000000
  eigenvalues    EBANDS =     -1095.75543657
  atomic energy  EATOM  =      3257.84410776
  Solvation  Ediel_sol  =      -168.68380185
  ---------------------------------------------------
  free energy    TOTEN  =      -179.22340055 eV

  energy without entropy =     -179.22340055  energy(sigma->0) =     -179.22340055


--------------------------------------------------------------------------------------------------------




--------------------------------------- Iteration      1(  17)  ---------------------------------------


    POTLOK:  cpu time    358.0664: real time    358.1072
    SETDIJ:  cpu time      0.0140: real time      0.0140
    EDDIAG:  cpu time      1.4693: real time      1.4694
  RMM-DIIS:  cpu time      3.3679: real time      3.3681
    ORTHCH:  cpu time      0.4218: real time      0.4218
       DOS:  cpu time      0.0018: real time      0.0018
    CHARGE:  cpu time      0.7762: real time      0.7763
    MIXING:  cpu time      0.0332: real time      0.0332
    --------------------------------------------
      LOOP:  cpu time    364.1506: real time    364.1918

 eigenvalue-minimisations  :   322
 total energy-change (2. order) :-0.2171172E+00  (-0.4050170E-02)
 number of electron      79.9999994 magnetization       0.6128897
 augmentation part        3.4151361 magnetization       0.6092841

 Broyden mixing:
  rms(total) = 0.33058E-01    rms(broyden)= 0.33056E-01
  rms(prec ) = 0.33715E-01
  weight for this iteration     100.00

 eigenvalues of (default mixing * dielectric matrix)
  average eigenvalue GAMMA=   1.8847
  8.3941  3.2596  2.0780  2.0780  1.1485  1.0484  1.0484  0.8095  0.7353  0.7353
  0.6242  0.6577

 Free energy of the ion-electron system (eV)
  ---------------------------------------------------
  alpha Z        PSCENC =         1.76382608
  Ewald energy   TEWEN  =      9829.95284002
  -Hartree energ DENC   =    -12277.13565624
  -exchange      EXHF   =         0.00000000
  -V(xc)+E(xc)   XCENC  =       291.91970038
  PAW double counting   =      6171.93742159    -6186.40661986
  entropy T*S    EENTRO =        -0.00000000
  eigenvalues    EBANDS =     -1097.14685721
  atomic energy  EATOM  =      3257.84410776
  Solvation  Ediel_sol  =      -172.16928027
  ---------------------------------------------------
  free energy    TOTEN  =      -179.44051773 eV

  energy without entropy =     -179.44051773  energy(sigma->0) =     -179.44051773


--------------------------------------------------------------------------------------------------------




--------------------------------------- Iteration      1(  18)  ---------------------------------------


    POTLOK:  cpu time    340.3633: real time    340.4029
    SETDIJ:  cpu time      0.0143: real time      0.0142
    EDDIAG:  cpu time      1.6023: real time      1.6024
  RMM-DIIS:  cpu time      3.2798: real time      3.2801
    ORTHCH:  cpu time      0.2794: real time      0.2794
       DOS:  cpu time      0.0057: real time      0.0057
    CHARGE:  cpu time      2.1919: real time      2.1921
    MIXING:  cpu time      0.0379: real time      0.0379
    --------------------------------------------
      LOOP:  cpu time    347.7747: real time    347.8149

 eigenvalue-minimisations  :   314
 total energy-change (2. order) :-0.1761865E+00  (-0.1365080E-02)
 number of electron      79.9999994 magnetization       0.3147376
 augmentation part        3.4157515 magnetization       0.3127692

 Broyden mixing:
  rms(total) = 0.15767E-01    rms(broyden)= 0.15766E-01
  rms(prec ) = 0.16114E-01
  weight for this iteration     100.00

 eigenvalues of (default mixing * dielectric matrix)
  average eigenvalue GAMMA=   1.9983
[...]
     39      -7.7260      1.00000
     40      -6.6773      1.00000
     41      -5.5291      0.00000
     42      -1.3838      0.00000
     43      -0.5386      0.00000
     44      -0.2729      0.00000
     45      -0.1665      0.00000
     46      -0.0920      0.00000
     47       0.0049      0.00000
     48       0.0853      0.00000
     49       0.1553      0.00000
     50       0.1772      0.00000
     51       0.2505      0.00000
     52       0.2577      0.00000
     53       0.2648      0.00000
     54       0.2740      0.00000
     55       0.2935      0.00000
     56       0.3224      0.00000
     57       0.3701      0.00000
     58       0.3813      0.00000
     59       0.4232      0.00000
     60       0.4244      0.00000
     61       0.4272      0.00000
     62       0.4832      0.00000
     63       0.5433      0.00000
     64       0.5512      0.00000
     65       0.5648      0.00000
     66       0.5746      0.00000
     67       0.5806      0.00000
     68       0.5962      0.00000
     69       0.6079      0.00000
     70       0.6266      0.00000
     71       0.6410      0.00000
     72       0.7049      0.00000
     73       0.7416      0.00000
     74       0.7730      0.00000
     75       0.7907      0.00000
     76       0.8206      0.00000
     77       0.8566      0.00000
     78       0.8702      0.00000
 Fermi energy:        -6.4002475490

 spin component 2

 k-point     1 :       0.0000    0.0000    0.0000
  band No.  band energies     occupation 
      1     -31.5090      1.00000
      2     -27.8203      1.00000
      3     -25.5535      1.00000
      4     -23.0979      1.00000
      5     -21.4352      1.00000
      6     -20.3701      1.00000
      7     -18.8295      1.00000
      8     -17.8170      1.00000
      9     -17.5748      1.00000
     10     -17.5144      1.00000
     11     -16.8082      1.00000
     12     -16.1554      1.00000
     13     -14.8077      1.00000
     14     -14.3785      1.00000
     15     -13.6976      1.00000
     16     -13.1298      1.00000
     17     -12.9740      1.00000
     18     -12.5136      1.00000
     19     -11.9549      1.00000
     20     -11.7293      1.00000
     21     -11.3779      1.00000
     22     -11.0368      1.00000
     23     -10.9748      1.00000
     24     -10.7994      1.00000
     25     -10.4681      1.00000
     26     -10.2140      1.00000
     27     -10.2069      1.00000
     28      -9.7815      1.00000
     29      -9.7124      1.00000
     30      -9.5787      1.00000
     31      -9.4140      1.00000
     32      -9.3087      1.00000
     33      -9.0726      1.00000
     34      -8.8198      1.00000
     35      -8.7420      1.00000
     36      -8.6929      1.00000
     37      -8.4049      1.00000
     38      -7.8931      1.00000
     39      -7.7260      1.00000
     40      -6.6773      1.00000
     41      -5.5291      0.00000
     42      -1.3838      0.00000
     43      -0.5386      0.00000
     44      -0.2729      0.00000
     45      -0.1665      0.00000
     46      -0.0920      0.00000
     47       0.0049      0.00000
     48       0.0853      0.00000
     49       0.1554      0.00000
     50       0.1772      0.00000
     51       0.2505      0.00000
     52       0.2577      0.00000
     53       0.2648      0.00000
     54       0.2740      0.00000
     55       0.2935      0.00000
     56       0.3224      0.00000
     57       0.3701      0.00000
     58       0.3813      0.00000
     59       0.4232      0.00000
     60       0.4244      0.00000
     61       0.4272      0.00000
     62       0.4832      0.00000
     63       0.5433      0.00000
     64       0.5512      0.00000
     65       0.5648      0.00000
     66       0.5746      0.00000
     67       0.5806      0.00000
     68       0.5963      0.00000
     69       0.6079      0.00000
     70       0.6266      0.00000
     71       0.6410      0.00000
     72       0.7049      0.00000
     73       0.7417      0.00000
     74       0.7731      0.00000
     75       0.7907      0.00000
     76       0.8207      0.00000
     77       0.8566      0.00000
     78       0.8702      0.00000


--------------------------------------------------------------------------------------------------------


 soft charge-density along one line, spin component           1
         0         1         2         3         4         5         6         7         8         9
 total charge-density along one line
 
 soft charge-density along one line, spin component           2
         0         1         2         3         4         5         6         7         8         9
 total charge-density along one line
 
 pseudopotential strength for first ion, spin component:           1
 10.379  13.807  -0.001   0.005  -0.005   0.003  -0.014   0.014
 13.807  18.365  -0.001   0.006  -0.006   0.004  -0.019   0.018
 -0.001  -0.001  -4.496   0.001  -0.002   8.804  -0.001   0.005
  0.005   0.006   0.001  -4.502   0.007  -0.001   8.815  -0.014
 -0.005  -0.006  -0.002   0.007  -4.503   0.005  -0.014   8.817
  0.003   0.004   8.804  -0.001   0.005 -19.384   0.002  -0.011
 -0.014  -0.019  -0.001   8.815  -0.014   0.002 -19.407   0.030
  0.014   0.018   0.005  -0.014   8.817  -0.011   0.030 -19.413
 pseudopotential strength for first ion, spin component:           2
 10.379  13.807  -0.001   0.005  -0.005   0.003  -0.014   0.014
 13.807  18.365  -0.001   0.006  -0.006   0.004  -0.019   0.018
 -0.001  -0.001  -4.496   0.001  -0.002   8.804  -0.001   0.005
  0.005   0.006   0.001  -4.502   0.007  -0.001   8.815  -0.014
 -0.005  -0.006  -0.002   0.007  -4.503   0.005  -0.014   8.817
  0.003   0.004   8.804  -0.001   0.005 -19.384   0.002  -0.011
 -0.014  -0.019  -0.001   8.815  -0.014   0.002 -19.407   0.030
  0.014   0.018   0.005  -0.014   8.817  -0.011   0.030 -19.413
 total augmentation occupancy for first ion, spin component:           1
  6.972  -3.020   0.008   0.013  -0.053  -0.002   0.015  -0.022
 -3.020   1.414   0.009  -0.074   0.095   0.003  -0.014   0.018
  0.008   0.009   1.586   0.006  -0.071   0.122  -0.001  -0.002
  0.013  -0.074   0.006   1.459   0.169  -0.001   0.122   0.001
 -0.053   0.095  -0.071   0.169   1.410  -0.002   0.001   0.119
 -0.002   0.003   0.122  -0.001  -0.002   0.011  -0.000   0.000
  0.015  -0.014  -0.001   0.122   0.001  -0.000   0.012  -0.001
 -0.022   0.018  -0.002   0.001   0.119   0.000  -0.001   0.012
 total augmentation occupancy for first ion, spin component:           2
  0.000  -0.000  -0.000  -0.000  -0.000  -0.000  -0.000  -0.000
 -0.000   0.000   0.000   0.000   0.000   0.000   0.000   0.000
 -0.000   0.000  -0.000  -0.000   0.000   0.000   0.000  -0.000
 -0.000   0.000  -0.000   0.000  -0.000  -0.000   0.000  -0.000
 -0.000   0.000   0.000  -0.000   0.000   0.000  -0.000   0.000
 -0.000   0.000   0.000  -0.000   0.000  -0.000   0.000  -0.000
 -0.000   0.000   0.000   0.000  -0.000   0.000  -0.000  -0.000
 -0.000   0.000  -0.000  -0.000   0.000  -0.000  -0.000   0.000


------------------------ aborting loop because EDIFF is reached ----------------------------------------


    CHARGE:  cpu time      0.7775: real time      0.7776
    FORLOC:  cpu time      0.1226: real time      0.1226
    FORNL :  cpu time      1.3619: real time      1.3620
    STRESS:  cpu time      4.1421: real time      4.1425
    FORCOR:  cpu time      7.2037: real time      7.2043
    FORHAR:  cpu time      1.2862: real time      1.2862
    MIXING:  cpu time      0.0238: real time      0.0238
    OFIELD:  cpu time      0.0000: real time      0.0000

 ---------------------------------------------------------------------------------------------

         DFTD3 V3.0 Rev 1        
 Edisp (eV)   -0.61154

 E6    (eV) :    -0.2585
 E8    (eV) :    -0.3530
 % E8        : 57.72
    FORVDW:  cpu time      0.0206: real time      0.0210

  FORCE on cell =-STRESS in cart. coord.  units (eV):
  Direction    XX          YY          ZZ          XY          YZ          ZX
  --------------------------------------------------------------------------------------
  Alpha Z     1.76383     1.76383     1.76383
  Ewald    2863.33148  3888.54893  3080.76343 -1372.96900  -607.32418  -924.60722
  Hartree  3762.28564  4647.27057  3861.97860 -1096.81348  -460.65610  -775.37625
  E(xc)    -314.94326  -314.55454  -314.19871    -1.10904    -0.54485    -0.53465
  Local   -7452.17348 -9357.72449 -7764.54199  2445.33340  1071.06046  1700.02546
  n-local  -171.41860  -170.99370  -173.55134     4.06278     2.43448     2.68401
  augment    18.86731    18.74870    19.31713     0.81852    -1.08468    -0.75752
  Kinetic  1291.99955  1287.98125  1286.74267    21.16116    -3.67375    -0.58784
  Fock        0.00000     0.00000     0.00000     0.00000     0.00000     0.00000
  vdW        -0.16114    -0.20361    -0.15453     0.03802     0.02353     0.05847
  -------------------------------------------------------------------------------------
  Total      -0.44867     0.83695    -1.88090     0.52236     0.23492     0.90445
  in kB      -0.04601     0.08582    -0.19287     0.05356     0.02409     0.09274
  external pressure =       -0.05 kB  Pullay stress =        0.00 kB


 VOLUME and BASIS-vectors are now :
 -----------------------------------------------------------------------------
  energy-cutoff  :      500.00
  volume of cell :    15625.00
      direct lattice vectors                 reciprocal lattice vectors
    25.000000000  0.000000000  0.000000000     0.040000000  0.000000000  0.000000000
     0.000000000 25.000000000  0.000000000     0.000000000  0.040000000  0.000000000
     0.000000000  0.000000000 25.000000000     0.000000000  0.000000000  0.040000000

  length of vectors
    25.000000000 25.000000000 25.000000000     0.040000000  0.040000000  0.040000000


 FORCES acting on ions
    electron-ion (+dipol)            ewald-force                    non-local-force                 convergence-correction
 -----------------------------------------------------------------------------------------------
   -.631E+02 -.106E+03 0.119E+03   0.682E+02 0.107E+03 -.124E+03   -.469E+01 -.101E+01 0.488E+01   0.114E-02 -.676E-03 -.193E-02
   -.875E+02 0.216E+02 0.201E+03   0.894E+02 -.241E+02 -.204E+03   -.100E+01 0.162E+01 0.164E+01   0.321E-02 0.299E-03 -.120E-03
   -.115E+03 0.369E+02 -.299E+02   0.116E+03 -.368E+02 0.295E+02   -.110E+00 -.118E+01 -.418E+00   0.438E-02 -.452E-02 -.204E-03
   0.724E+02 0.195E+03 -.746E+02   -.717E+02 -.198E+03 0.747E+02   -.582E-01 0.238E+01 -.769E-02   0.219E-02 -.360E-02 0.267E-02
   0.797E+02 0.500E+02 -.142E+03   -.804E+02 -.548E+02 0.147E+03   0.568E+00 0.475E+01 -.490E+01   0.292E-03 -.137E-02 0.136E-02
   -.180E+03 -.216E+03 -.355E+02   0.182E+03 0.218E+03 0.363E+02   -.183E+01 -.180E+01 -.118E+01   0.189E-02 0.246E-02 -.858E-03
   0.489E+02 -.149E+03 0.243E+03   -.501E+02 0.151E+03 -.246E+03   0.102E+01 -.115E+01 0.174E+01   0.320E-04 -.213E-02 -.153E-02
   -.551E+02 -.794E+02 -.266E+03   0.563E+02 0.804E+02 0.269E+03   -.128E+01 -.116E+01 -.227E+01   -.120E-02 0.196E-03 0.271E-02
   0.249E+03 0.730E+02 -.128E+03   -.253E+03 -.732E+02 0.129E+03   0.230E+01 0.211E+00 -.559E+00   -.117E-02 -.243E-02 -.734E-03
   -.680E+02 0.699E+02 -.158E+01   0.659E+02 -.649E+02 0.110E+00   0.289E+01 -.590E+01 -.192E+00   0.148E-02 0.187E-02 -.628E-03
   0.405E+02 -.420E+02 -.270E+01   -.247E+02 0.313E+02 0.452E+01   -.158E+02 0.113E+02 -.163E+01   0.103E-02 0.185E-02 0.127E-02
   0.473E+03 -.339E+03 0.521E+02   -.525E+03 0.374E+03 -.591E+02   0.501E+02 -.339E+02 0.667E+01   0.102E-01 0.602E-02 0.838E-02
   -.196E+03 0.219E+03 0.389E+03   0.212E+03 -.232E+03 -.444E+03   -.138E+02 0.109E+02 0.499E+02   0.153E-01 0.125E-01 0.360E-02
   -.145E+03 0.314E+03 -.256E+03   0.135E+03 -.307E+03 0.301E+03   0.997E+01 -.584E+01 -.436E+02   -.120E-01 -.226E-01 -.591E-02
   -.801E+02 -.157E+02 0.680E+02   0.849E+02 0.163E+02 -.711E+02   -.486E+01 -.105E+01 0.284E+01   0.852E-03 -.185E-03 -.361E-04
   0.370E+02 0.404E+02 0.886E+02   -.399E+02 -.433E+02 -.926E+02   0.335E+01 0.271E+01 0.373E+01   0.311E-03 -.164E-03 -.339E-03
   -.832E+02 -.216E+02 -.551E+02   0.868E+02 0.236E+02 0.584E+02   -.372E+01 -.235E+01 -.352E+01   0.468E-03 -.699E-03 -.268E-03
   0.337E+01 0.714E+02 -.762E+02   -.235E+01 -.750E+02 0.806E+02   -.855E+00 0.339E+01 -.458E+01   0.539E-03 -.469E-03 0.146E-03
   0.656E+02 0.741E+02 0.363E+02   -.690E+02 -.771E+02 -.395E+02   0.358E+01 0.285E+01 0.341E+01   0.344E-03 -.726E-03 0.461E-03
   -.167E+01 -.972E+02 -.292E+02   -.597E+00 0.102E+03 0.311E+02   0.253E+01 -.472E+01 -.204E+01   0.424E-03 0.318E-03 -.103E-03
   -.739E+02 -.193E+02 -.537E+02   0.769E+02 0.170E+02 0.577E+02   -.301E+01 0.244E+01 -.424E+01   0.605E-03 0.213E-03 0.554E-04
   -.749E+02 -.560E+02 0.417E+02   0.786E+02 0.578E+02 -.456E+02   -.377E+01 -.165E+01 0.393E+01   0.364E-03 0.229E-03 -.120E-03
   0.273E+02 -.924E+02 0.299E+02   -.292E+02 0.978E+02 -.291E+02   0.181E+01 -.531E+01 -.105E+01   0.159E-04 -.263E-03 -.278E-03
   0.617E+02 0.976E+01 0.760E+02   -.660E+02 -.123E+02 -.787E+02   0.427E+01 0.288E+01 0.236E+01   0.577E-03 -.201E-03 -.122E-03
   -.412E+02 -.308E+02 0.854E+02   0.452E+02 0.313E+02 -.894E+02   -.416E+01 -.352E+00 0.385E+01   0.244E-04 -.360E-03 -.158E-03
   0.171E+02 -.760E+02 -.654E+02   -.191E+02 0.811E+02 0.670E+02   0.209E+01 -.517E+01 -.134E+01   -.627E-04 -.212E-04 0.427E-03
   -.757E+02 -.211E+02 -.503E+02   0.812E+02 0.215E+02 0.497E+02   -.568E+01 -.455E+00 0.726E+00   0.206E-03 0.333E-04 0.520E-03
   0.125E+01 0.272E+02 -.986E+02   -.203E+01 -.305E+02 0.103E+03   0.792E+00 0.338E+01 -.451E+01   -.223E-03 0.956E-04 0.340E-03
   0.731E+02 -.415E+02 -.559E+02   -.760E+02 0.459E+02 0.583E+02   0.255E+01 -.447E+01 -.246E+01   -.288E-03 -.282E-03 -.113E-03
   0.860E+02 0.365E+02 0.311E+02   -.895E+02 -.382E+02 -.351E+02   0.320E+01 0.166E+01 0.437E+01   0.127E-03 -.459E-03 0.161E-03
   0.413E+02 0.607E+02 -.674E+02   -.416E+02 -.648E+02 0.712E+02   -.489E-01 0.423E+01 -.379E+01   -.123E-03 -.362E-03 -.227E-03
   -.592E+02 0.119E+03 0.711E+01   0.624E+02 -.125E+03 -.941E+01   -.368E+01 0.722E+01 0.239E+01   -.103E-02 -.487E-03 -.290E-03
 -----------------------------------------------------------------------------------------------
   -.227E+02 0.156E+02 -.101E+02   -.639E-13 0.199E-12 -.142E-12   0.227E+02 -.156E+02 0.101E+02   0.298E-01 -.159E-01 0.813E-02
 
 
 POSITION                                       TOTAL-FORCE (eV/Angst)
 -----------------------------------------------------------------------------------
     12.63401     13.62194     11.46880         0.008798     -0.000765      0.012480
     13.26213     12.25964     11.10945        -0.000059     -0.004902      0.010085
     13.52039     11.36216     12.31319        -0.002847     -0.000778      0.005484
     12.20549     11.08990     13.05162        -0.000568      0.012129     -0.000563
     11.50671     12.36953     13.56101         0.007007     -0.000482     -0.009067
     13.64131     14.56137     12.18529        -0.004005     -0.005282     -0.000856
     12.07999     14.31759     10.22896         0.002297      0.002257      0.005140
     12.27119     13.01924     14.74515        -0.001115     -0.003053     -0.006285
     10.06655     12.08020     13.97381         0.010982      0.004102     -0.002180
     14.18295     10.05956     11.88623         0.004049     -0.011186     -0.004113
     11.47864     13.39784     12.43775        -0.015272      0.006118     -0.007255
     10.48852     14.07612     12.31054         0.005771     -0.006096      0.001779
     14.51111      9.78595     10.73759         0.001341     -0.007805     -0.009254
     14.38138      9.23678     12.93425         0.012652     -0.004716     -0.005992
     14.19515     12.48125     10.57455        -0.013046      0.006510      0.007226
     12.59728     11.74298     10.40260         0.000355      0.003414      0.009381
     14.23843     11.83215     13.00495         0.002814     -0.002919     -0.003903
     12.36838     10.45938     13.93498        -0.001815      0.008366     -0.009560
     11.51234     10.55710     12.38448         0.004584      0.002718     -0.000590
     13.13590     15.45383     12.57181         0.002601     -0.000047      0.001438
     14.19262     14.07108     12.99157        -0.003376     -0.001367     -0.007458
     14.35824     14.86744     11.41253        -0.004319     -0.001783      0.000764
     11.73849     15.33510     10.44781        -0.004746      0.013160     -0.000259
     11.25450     13.74515      9.78860        -0.010809     -0.009873     -0.004220
     12.89773     14.37477      9.50012         0.003645      0.003289     -0.002830
     11.85968     14.00743     14.98016         0.000616      0.001166      0.002845
     13.34748     13.09959     14.57325        -0.005585     -0.003414     -0.001158
     12.10634     12.35386     15.60208        -0.001730     -0.002125      0.002485
      9.59304     12.94841     14.44511        -0.003770      0.007693      0.006221
      9.46367     11.76160     13.11423         0.002129     -0.000877     -0.004727
     10.09953     11.26280     14.70438        -0.003564     -0.001969      0.007712
     14.81084      8.40830     12.62318         0.006987     -0.001483      0.007230
 -----------------------------------------------------------------------------------
    total drift:                               -0.005952      0.004167      0.015429


--------------------------------------------------------------------------------------------------------



  FREE ENERGIE OF THE ION-ELECTRON SYSTEM (eV)
  ---------------------------------------------------
  free  energy   TOTEN  =      -180.39395128 eV

  energy  without entropy=     -180.39395128  energy(sigma->0) =     -180.39395128
 
 d Force = 0.7641369E-04[ 0.415E-04, 0.111E-03]  d Energy = 0.8071224E-04-0.430E-05
 d Force =-0.4095395E-01[-0.406E-01,-0.413E-01]  d Ewald  =-0.4095403E-01 0.707E-07


--------------------------------------------------------------------------------------------------------


    POTLOK:  cpu time    228.2750: real time    228.2935


--------------------------------------------------------------------------------------------------------


 Conjugate gradient step on ions:
 trial-energy change:   -0.000081  1 .order   -0.000076   -0.000111   -0.000042
  (g-gl).g = 0.191E-03      g.g   = 0.458E-03  gl.gl    = 0.563E-03
 g(Force)  = 0.458E-03   g(Stress)= 0.000E+00 ortho     = 0.405E-04
 gamma     =   0.33855
 trial     =   0.23611
 opt step  =   0.37645  (harmonic =   0.37645) maximal distance =0.00132350
 next E    =  -180.393959   (d E  =  -0.00009)


--------------------------------------------------------------------------------------------------------


  
 reached required accuracy - stopping structural energy minimisation
 writing wavefunctions
     LOOP+:  cpu time   1045.9037: real time   1046.4309
    4ORBIT:  cpu time      0.0000: real time      0.0000

 total amount of memory used by VASP MPI-rank0   192113. kBytes
=======================================================================

   base      :      30000. kBytes
   nonlr-proj:       3400. kBytes
   fftplans  :      38189. kBytes
   grid      :     109504. kBytes
   one-center:         18. kBytes
   wavefun   :      11002. kBytes
 
  
  
 General timing and accounting informations for this job:
 ========================================================
  
                  Total CPU time used (sec):    57046.379
                            User time (sec):    20079.384
                          System time (sec):    36966.995
                         Elapsed time (sec):    57055.152
  
                   Maximum memory used (kb):      729580.
                   Average memory used (kb):          N/A
  
                          Minor page faults:     46525584
                          Major page faults:            0
                 Voluntary context switches:         7871
