
                                 *****************
                                 * O   R   C   A *
                                 *****************

                                            #,                                       
                                            ###                                      
                                            ####                                     
                                            #####                                    
                                            ######                                   
                                           ########,                                 
                                     ,,################,,,,,                         
                               ,,#################################,,                 
                          ,,##########################################,,             
                       ,#########################################, ''#####,          
                    ,#############################################,,   '####,        
                  ,##################################################,,,,####,       
                ,###########''''           ''''###############################       
              ,#####''   ,,,,##########,,,,          '''####'''          '####       
            ,##' ,,,,###########################,,,                        '##       
           ' ,,###''''                  '''############,,,                           
         ,,##''                                '''############,,,,        ,,,,,,###''
      ,#''                                            '''#######################'''  
     '                                                          ''''####''''         
             ,#######,   #######,   ,#######,      ##                                
            ,#'     '#,  ##    ##  ,#'     '#,    #''#        ,####,   ,####,        
            ##       ##  ##   ,#'  ##            #'  '#       #'       #'  '#        
            ##       ##  #######   ##           ,######,      #####,   #    #        
            '#,     ,#'  ##    ##  '#,     ,#' ,#      #,     #,   #   #,  ,#        
             '#######'   ##     ##  '#######'  #'      '#     '####' # '####'        



                #########################################################
                #                        -***-                          #
                #          Department of theory and spectroscopy        #
                #                                                       #
                #                      Frank Neese                      #
                #                                                       #
                #     Directorship, Architecture, Infrastructure        #
                #                    SHARK, DRIVERS                     #
                #        Core code/Algorithms in most modules           #
                #                                                       #
                #        Max Planck Institute fuer Kohlenforschung      #
                #                Kaiser Wilhelm Platz 1                 #
                #                 D-45470 Muelheim/Ruhr                 #
                #                      Germany                          #
                #                                                       #
                #                  All rights reserved                  #
                #                        -***-                          #
                #########################################################


                         Program Version 6.0.0  -   RELEASE  -


 With contributions from (in alphabetic order):
   Daniel Aravena         : Magnetic Suceptibility
   Michael Atanasov       : Ab Initio Ligand Field Theory (pilot matlab implementation)
   Alexander A. Auer      : GIAO ZORA, VPT2 properties, NMR spectrum
   Ute Becker             : All parallelization in ORCA, NUMFREQ, NUMCALC
   Giovanni Bistoni       : ED, misc. LED, open-shell LED, HFLD
   Martin Brehm           : Molecular dynamics
   Dmytro Bykov           : pre 5.0 version of the SCF Hessian
   Marcos Casanova-Páez   : Triplet and SCS-CIS(D). UHF-(DLPNO)-IP/EA/STEOM-CCSD. UHF-CVS-IP/STEOM-CCSD
   Vijay G. Chilkuri      : MRCI spin determinant printing, contributions to CSF-ICE
   Pauline Colinet        : FMM embedding
   Dipayan Datta          : RHF DLPNO-CCSD density
   Achintya Kumar Dutta   : EOM-CC, STEOM-CC
   Nicolas Foglia         : Exact transition moments, OPA infrastructure, MCD improvements
   Dmitry Ganyushin       : Spin-Orbit,Spin-Spin,Magnetic field MRCI
   Miquel Garcia          : C-PCM and meta-GGA Hessian, CCSD/C-PCM, Gaussian charge scheme
   Tiago L. C. Gouveia    : GS-ROHF, GS-ROCIS
   Yang Guo               : DLPNO-NEVPT2, F12-NEVPT2, CIM, IAO-localization
   Andreas Hansen         : Spin unrestricted coupled pair/coupled cluster methods
   Ingolf Harden          : AUTO-CI MPn and infrastructure 
   Benjamin Helmich-Paris : MC-RPA, TRAH-(SCF,CASSCF), AVAS, COSX integrals, SCF dyn. polar.
   Lee Huntington         : MR-EOM, pCC
   Robert Izsak           : Overlap fitted RIJCOSX, COSX-SCS-MP3, EOM
   Riya Kayal             : Wick's Theorem for AUTO-CI, AUTO-CI UHF-CCSDT
   Emily Kempfer          : AUTO-CI, RHF CISDT and CCSDT
   Christian Kollmar      : KDIIS, OOCD, Brueckner-CCSD(T), CCSD density, CASPT2, CASPT2-K, improved NEVPT2
   Axel Koslowski         : Symmetry handling
   Simone Kossmann        : Meta GGA functionals, TD-DFT gradient, OOMP2, (MP2 Hessian; deprecated post 5.0)
   Lucas Lang             : DCDCAS
   Marvin Lechner         : AUTO-CI (C++ implementation), FIC-MRCC
   Spencer Leger          : CASSCF response
   Dagmar Lenk            : GEPOL surface, SMD, ORCA-2-JSON
   Dimitrios Liakos       : Extrapolation schemes; Compound Job, initial MDCI parallelization
   Dimitrios Manganas     : Further ROCIS development; embedding schemes. LFT, Crystal Embedding
   Dimitrios Pantazis     : SARC Basis sets
   Anastasios Papadopoulos: AUTO-CI, single reference methods and gradients
   Taras Petrenko         : pre 6.0 DFT Hessian and TD-DFT gradient, (ASA, deprecated), ECA, 1-Electron XAS/XES, NRVS
   Peter Pinski           : DLPNO-MP2, DLPNO-MP2 Gradient
   Christoph Reimann      : Effective Core Potentials
   Marius Retegan         : Local ZFS, SOC
   Christoph Riplinger    : Optimizer, TS searches, QM/MM, DLPNO-CCSD(T), (RO)-DLPNO pert. Triples
   Michael Roemelt        : Original ROCIS implementation
   Masaaki Saitow         : Open-shell DLPNO-CCSD energy and density
   Barbara Sandhoefer     : DKH picture change effects
   Kantharuban Sivalingam : CASSCF convergence/infrastructure, NEVPT2 and variants, FIC-MRCI
   Bernardo de Souza      : ESD, SOC TD-DFT
   Georgi Stoychev        : AutoAux, RI-MP2 NMR, DLPNO-MP2 response, X2C
   Van Anh Tran           : RI-MP2 g-tensors
   Willem Van den Heuvel  : Paramagnetic NMR
   Zikuan Wang            : NOTCH, Electric field optimization 
   Frank Wennmohs         : Technical directorship and infrastructure
   Hang Xu                : AUTO-CI-Response properties 


 We gratefully acknowledge several colleagues who have allowed us to
 interface, adapt or use parts of their codes:
   Stefan Grimme, W. Hujo, H. Kruse, P. Pracht,  : VdW corrections, initial TS optimization,
                  C. Bannwarth, S. Ehlert,         DFT functionals, gCP, sTDA/sTD-DF
                  L. Wittmann, M. Mueller
   Ed Valeev, F. Pavosevic, A. Kumar             : LibInt (2-el integral package), F12 methods
   Garnet Chan, S. Sharma, J. Yang, R. Olivares  : DMRG
   Ulf Ekstrom                                   : XCFun DFT Library
   Mihaly Kallay                                 : mrcc  (arbitrary order and MRCC methods)
   Frank Weinhold                                : gennbo (NPA and NBO analysis)
   Simon Mueller                                 : openCOSMO-RS
   Christopher J. Cramer and Donald G. Truhlar   : smd solvation model
   Lars Goerigk                                  : TD-DFT with DH, B97 family of functionals
   V. Asgeirsson, H. Jonsson                     : NEB implementation
   FAccTs GmbH                                   : IRC, NEB, NEB-TS, DLPNO-Multilevel, CI-OPT
                                                   MM, QMMM, 2- and 3-layer-ONIOM, Crystal-QMMM,
                                                   LR-CPCM, SF, NACMEs, symmetry and pop. for TD-DFT,
                                                   nearIR, NL-DFT gradient (VV10), updates on ESD,
                                                   ML-optimized integration grids, MBIS, APM,
                                                   GOAT, DOCKER, SOLVATOR, interface openCOSMO-RS
   S Lehtola, MJT Oliveira, MAL Marques          : LibXC Library
   Liviu Ungur et al                             : ANISO software


 Your calculation uses the libint2 library for the computation of 2-el integrals
 For citations please refer to: http://libint.valeyev.net

 Your ORCA version has been built with support for libXC version: 6.2.2
 For citations please refer to: https://libxc.gitlab.io

 This ORCA versions uses:
   CBLAS   interface :  Fast vector & matrix operations
   LAPACKE interface :  Fast linear algebra routines
   SCALAPACK package :  Parallel linear algebra routines
   Shared memory     :  Shared parallel matrices
   BLAS/LAPACK       :  OpenBLAS 0.3.27  USE64BITINT DYNAMIC_ARCH NO_AFFINITY SkylakeX SINGLE_THREADED
        Core in use  :  SkylakeX
   Copyright (c) 2011-2014, The OpenBLAS Project


NOTE: MaxCore=3000 MB was set to SCF,MP2,MDCI,CIPSI,MRCI and CIS
      => If you want to overwrite this, your respective input block should be placed after the MaxCore statement
Your calculation utilizes the atom-pairwise dispersion correction
with the Becke-Johnson damping scheme (D3BJ)


Your calculation utilizes the SMD solvation module
Please cite in your paper:
A.V. Marenich, C.J. Cramer, D.G. Truhlar J. Phys. Chem. B, 113, (2009), 6378 

Warning: RI is on but no J-basis has been assigned. Assigning Def2/J (nothing to worry about!)
================================================================================

----- Orbital basis set information -----
Your calculation utilizes the basis: aug-cc-pVTZ 
    H, B-Ne : Obtained from the ccRepo (grant-hill.group.shef.ac.uk/ccrepo) Feb. 2017
              R. A. Kendall, T. H. Dunning, Jr., R. J. Harrison, J. Chem. Phys. 96, 6796 (1992)
         He : Obtained from the ccRepo (grant-hill.group.shef.ac.uk/ccrepo) Feb. 2017
              D. E. Woon, T. H. Dunning, Jr., J. Chem. Phys. 100, 2975 (1994)
  Li-Be, Na : Obtained from the ccRepo (grant-hill.group.shef.ac.uk/ccrepo) Feb. 2017
              B. P. Prascher, D. E. Woon, K. A. Peterson, T. H. Dunning, Jr., A. K. Wilson, Theor. Chem. Acc. 128, 69 (2011)
         Mg : Obtained from the Peterson Research Group Website (tyr0.chem.wsu.edu/~kipeters) Feb. 2017
              B. P. Prascher, D. E. Woon, K. A. Peterson, T. H. Dunning, Jr., A. K. Wilson, Theor. Chem. Acc. 128, 69 (2011)
      Al-Ar : Obtained from the ccRepo (grant-hill.group.shef.ac.uk/ccrepo) Feb. 2017
              D. E. Woon, T. H. Dunning, Jr., J. Chem. Phys. 98, 1358 (1993)
      Sc-Zn : Obtained from the ccRepo (grant-hill.group.shef.ac.uk/ccrepo) Feb. 2017
              N. B. Balabanov, K. A. Peterson, J. Chem. Phys. 123, 064107 (2005)
              N. B. Balabanov, K. A. Peterson, J. Chem. Phys. 125, 074110 (2006)
      Ga-Kr : Obtained from the ccRepo (grant-hill.group.shef.ac.uk/ccrepo) Feb. 2017
              A. K. Wilson, D. E. Woon, K. A. Peterson, T. H. Dunning, Jr., J. Chem. Phys. 110, 7667 (1999)
     Ag, Au : Obtained from the Peterson Research Group Website (tyr0.chem.wsu.edu/~kipeters) Feb. 2017
              K. A. Peterson, C. Puzzarini, Theor. Chem. Acc. 114, 283 (2005)

----- AuxJ basis set information -----
Your calculation utilizes the auxiliary basis: def2/J
   F. Weigend, Phys. Chem. Chem. Phys. 8, 1057 (2006).

================================================================================
                                        WARNINGS
                       Please study these warnings very carefully!
================================================================================

Using LibXC functional ID 497 : Re-regularized SCAN exchange by Furness et al
[ 1]  J. W. Furness, A. D. Kaplan, J. Ning, J. P. Perdew, and J. Sun.,  J. Phys. Chem. Lett. 11, 8208-8215 (2020)
[ 2]  J. W. Furness, A. D. Kaplan, J. Ning, J. P. Perdew, and J. Sun.,  J. Phys. Chem. Lett. 11, 9248-9248 (2020)
Using LibXC functional ID 498 : Re-regularized SCAN correlation by Furness et al
[ 1]  J. W. Furness, A. D. Kaplan, J. Ning, J. P. Perdew, and J. Sun.,  J. Phys. Chem. Lett. 11, 8208-8215 (2020)
[ 2]  J. W. Furness, A. D. Kaplan, J. Ning, J. P. Perdew, and J. Sun.,  J. Phys. Chem. Lett. 11, 9248-9248 (2020)
Using LibXC functional ID 497 : Re-regularized SCAN exchange by Furness et al
[ 1]  J. W. Furness, A. D. Kaplan, J. Ning, J. P. Perdew, and J. Sun.,  J. Phys. Chem. Lett. 11, 8208-8215 (2020)
[ 2]  J. W. Furness, A. D. Kaplan, J. Ning, J. P. Perdew, and J. Sun.,  J. Phys. Chem. Lett. 11, 9248-9248 (2020)
Using LibXC functional ID 498 : Re-regularized SCAN correlation by Furness et al
[ 1]  J. W. Furness, A. D. Kaplan, J. Ning, J. P. Perdew, and J. Sun.,  J. Phys. Chem. Lett. 11, 8208-8215 (2020)
[ 2]  J. W. Furness, A. D. Kaplan, J. Ning, J. P. Perdew, and J. Sun.,  J. Phys. Chem. Lett. 11, 9248-9248 (2020)

================================================================================
                                       INPUT FILE
================================================================================
NAME = cs_rporg_150_ox_solv_04.inp
|  1> !r2SCANh aug-cc-pVTZ d3 TightSCF SlowConv RIJCOSX defgrid2
|  2>  
|  3> %pal
|  4> nprocs 4
|  5> end
|  6>  
|  7> %scf
|  8> MaxIter 1500
|  9> end
| 10>  
| 11> %maxcore 3000
| 12>  
| 13> !CPCM
| 14> %cpcm smd true
| 15> SMDsolvent "MeCN"
| 16> surfacetype gepol_ses
| 17> rsolv 2.19
| 18> end 
| 19>  
| 20> * xyz 0 1
| 21> C           0.69340039581910     -1.21642473703122     -0.00210106158208
| 22> C          -0.69454855654644     -1.22021347444475     -0.00107333204799
| 23> C          -1.36154262322334      0.00187791219067      0.00026242389151
| 24> C          -0.68604253118331      1.21670210566519      0.00055618520570
| 25> C           0.70509440805818      1.20392227540601     -0.00053641990430
| 26> C           1.40455093160228     -0.00927557523456     -0.00186311158295
| 27> C           2.90624055769532     -0.08463588452950     -0.00286199019476
| 28> O           3.45693707307488     -1.16143789750676     -0.00328851772908
| 29> C           3.69101592073766      1.20331719293128     -0.00349620755262
| 30> H           3.45502261169039      1.81064521986950      0.88792921534318
| 31> H           4.76399312425029      0.96314274578425     -0.00608195367514
| 32> H           3.45097324706094      1.81300927441323     -0.89217068832087
| 33> H           1.24208602358160      2.15534045576678     -0.00026184416090
| 34> H          -1.25661571978578      2.14643950150070      0.00165091333299
| 35> N          -2.83358313105393      0.00969549364775      0.00154754521515
| 36> O          -3.38285340798047      1.08799719381857      0.00256173004398
| 37> O          -3.39352955523644     -1.06261620732784      0.00148372469125
| 38> H          -1.27233938255821     -2.14567385267397     -0.00122499566180
| 39> H           1.26268251399728     -2.14919824224534     -0.00306631531128
| 40> *
| 41> 
| 42>                          ****END OF INPUT****
================================================================================

                       ****************************
                       * Single Point Calculation *
                       ****************************

---------------------------------
CARTESIAN COORDINATES (ANGSTROEM)
---------------------------------
  C      0.693400   -1.216425   -0.002101
  C     -0.694549   -1.220213   -0.001073
  C     -1.361543    0.001878    0.000262
  C     -0.686043    1.216702    0.000556
  C      0.705094    1.203922   -0.000536
  C      1.404551   -0.009276   -0.001863
  C      2.906241   -0.084636   -0.002862
  O      3.456937   -1.161438   -0.003289
  C      3.691016    1.203317   -0.003496
  H      3.455023    1.810645    0.887929
  H      4.763993    0.963143   -0.006082
  H      3.450973    1.813009   -0.892171
  H      1.242086    2.155340   -0.000262
  H     -1.256616    2.146440    0.001651
  N     -2.833583    0.009695    0.001548
  O     -3.382853    1.087997    0.002562
  O     -3.393530   -1.062616    0.001484
  H     -1.272339   -2.145674   -0.001225
  H      1.262683   -2.149198   -0.003066

----------------------------
CARTESIAN COORDINATES (A.U.)
----------------------------
  NO LB      ZA    FRAG     MASS         X           Y           Z
   0 C     6.0000    0    12.011    1.310337   -2.298710   -0.003970
   1 C     6.0000    0    12.011   -1.312507   -2.305869   -0.002028
   2 C     6.0000    0    12.011   -2.572943    0.003549    0.000496
   3 C     6.0000    0    12.011   -1.296433    2.299234    0.001051
   4 C     6.0000    0    12.011    1.332435    2.275083   -0.001014
   5 C     6.0000    0    12.011    2.654217   -0.017528   -0.003521
   6 C     6.0000    0    12.011    5.491999   -0.159939   -0.005408
   7 O     8.0000    0    15.999    6.532664   -2.194800   -0.006214
   8 C     6.0000    0    12.011    6.975009    2.273940   -0.006607
   9 H     1.0000    0     1.008    6.529047    3.421624    1.677943
  10 H     1.0000    0     1.008    9.002642    1.820076   -0.011493
  11 H     1.0000    0     1.008    6.521394    3.426091   -1.685958
  12 H     1.0000    0     1.008    2.347202    4.073003   -0.000495
  13 H     1.0000    0     1.008   -2.374660    4.056183    0.003120
  14 N     7.0000    0    14.007   -5.354696    0.018322    0.002924
  15 O     8.0000    0    15.999   -6.392666    2.056017    0.004841
  16 O     8.0000    0    15.999   -6.412841   -2.008054    0.002804
  17 H     1.0000    0     1.008   -2.404373   -4.054736   -0.002315
  18 H     1.0000    0     1.008    2.386124   -4.061396   -0.005794

--------------------------------
INTERNAL COORDINATES (ANGSTROEM)
--------------------------------
 C      0   0   0     0.000000000000     0.00000000     0.00000000
 C      1   0   0     1.387954503985     0.00000000     0.00000000
 C      2   1   0     1.392260832788   118.46848767     0.00000000
 C      3   2   1     1.389999381904   122.29898685     0.00000000
 C      4   3   2     1.391196068701   118.54978291     0.00000000
 C      5   4   3     1.400389307742   120.49151200     0.00000000
 C      6   5   4     1.503579697619   122.83807004   180.00998735
 O      7   6   5     1.209450044082   119.95895360   179.96134497
 C      7   6   5     1.508209502162   118.48188625   359.95320244
 H      9   7   6     1.104164597696   110.98705136    59.83581590
 H      9   7   6     1.099531959701   108.73771680   180.10387668
 H      9   7   6     1.104122842883   111.02458833   300.41519266
 H      5   4   3     1.092500171375   118.91453126   180.00303823
 H      4   3   2     1.090855896623   119.38671104   180.00179271
 N      3   2   1     1.472061827102   118.92917293   180.00831540
 O     15   3   2     1.210137769957   117.29789669   180.00694101
 O     15   3   2     1.209707562214   117.26865173     0.00000000
 H      2   1   3     1.091017494496   122.13407234   180.00347266
 H      1   2   3     1.092771464590   121.23980295   179.99393153

---------------------------
INTERNAL COORDINATES (A.U.)
---------------------------
 C      0   0   0     0.000000000000     0.00000000     0.00000000
 C      1   0   0     2.622853898874     0.00000000     0.00000000
 C      2   1   0     2.630991680954   118.46848767     0.00000000
 C      3   2   1     2.626718158118   122.29898685     0.00000000
 C      4   3   2     2.628979568433   118.54978291     0.00000000
 C      5   4   3     2.646352272504   120.49151200     0.00000000
 C      6   5   4     2.841353849023   122.83807004   180.00998735
 O      7   6   5     2.285529355973   119.95895360   179.96134497
 C      7   6   5     2.850102911663   118.48188625   359.95320244
 H      9   7   6     2.086568696416   110.98705136    59.83581590
 H      9   7   6     2.077814279328   108.73771680   180.10387668
 H      9   7   6     2.086489791256   111.02458833   300.41519266
 H      5   4   3     2.064526125162   118.91453126   180.00303823
 H      4   3   2     2.061418896190   119.38671104   180.00179271
 N      3   2   1     2.781793705422   118.92917293   180.00831540
 O     15   3   2     2.286828969533   117.29789669   180.00694101
 O     15   3   2     2.286015994717   117.26865173     0.00000000
 H      2   1   3     2.061724271915   122.13407234   180.00347266
 H      1   2   3     2.065038795039   121.23980295   179.99393153

---------------------
BASIS SET INFORMATION
---------------------
There are 4 groups of distinct atoms

 Group   1 Type C   : 19s6p3d2f contracted to 5s4p3d2f pattern {88111/3111/111/11}
 Group   2 Type O   : 19s6p3d2f contracted to 5s4p3d2f pattern {88111/3111/111/11}
 Group   3 Type H   : 6s3p2d contracted to 4s3p2d pattern {3111/111/11}
 Group   4 Type N   : 19s6p3d2f contracted to 5s4p3d2f pattern {88111/3111/111/11}

Atom   0C    basis set group =>   1
Atom   1C    basis set group =>   1
Atom   2C    basis set group =>   1
Atom   3C    basis set group =>   1
Atom   4C    basis set group =>   1
Atom   5C    basis set group =>   1
Atom   6C    basis set group =>   1
Atom   7O    basis set group =>   2
Atom   8C    basis set group =>   1
Atom   9H    basis set group =>   3
Atom  10H    basis set group =>   3
Atom  11H    basis set group =>   3
Atom  12H    basis set group =>   3
Atom  13H    basis set group =>   3
Atom  14N    basis set group =>   4
Atom  15O    basis set group =>   2
Atom  16O    basis set group =>   2
Atom  17H    basis set group =>   3
Atom  18H    basis set group =>   3
---------------------------------
AUXILIARY/J BASIS SET INFORMATION
---------------------------------
There are 4 groups of distinct atoms

 Group   1 Type C   : 12s5p4d2f1g contracted to 6s4p3d1f1g pattern {711111/2111/211/2/1}
 Group   2 Type O   : 12s5p4d2f1g contracted to 6s4p3d1f1g pattern {711111/2111/211/2/1}
 Group   3 Type H   : 5s2p1d contracted to 3s1p1d pattern {311/2/1}
 Group   4 Type N   : 12s5p4d2f1g contracted to 6s4p3d1f1g pattern {711111/2111/211/2/1}

Atom   0C    basis set group =>   1
Atom   1C    basis set group =>   1
Atom   2C    basis set group =>   1
Atom   3C    basis set group =>   1
Atom   4C    basis set group =>   1
Atom   5C    basis set group =>   1
Atom   6C    basis set group =>   1
Atom   7O    basis set group =>   2
Atom   8C    basis set group =>   1
Atom   9H    basis set group =>   3
Atom  10H    basis set group =>   3
Atom  11H    basis set group =>   3
Atom  12H    basis set group =>   3
Atom  13H    basis set group =>   3
Atom  14N    basis set group =>   4
Atom  15O    basis set group =>   2
Atom  16O    basis set group =>   2
Atom  17H    basis set group =>   3
Atom  18H    basis set group =>   3


           ************************************************************
           *        Program running with 4 parallel MPI-processes     *
           *              working on a common directory               *
           ************************************************************
------------------------------------------------------------------------------
                             ORCA STARTUP CALCULATIONS
                           -- RI-GTO INTEGRALS CHOSEN --
------------------------------------------------------------------------------
------------------------------------------------------------------------------
                   ___                                                        
                  /   \      - P O W E R E D   B Y -                         
                 /     \                                                     
                 |  |  |   _    _      __       _____    __    __             
                 |  |  |  | |  | |    /  \     |  _  \  |  |  /  |          
                  \  \/   | |  | |   /    \    | | | |  |  | /  /          
                 / \  \   | |__| |  /  /\  \   | |_| |  |  |/  /          
                |  |  |   |  __  | /  /__\  \  |    /   |      \           
                |  |  |   | |  | | |   __   |  |    \   |  |\   \          
                \     /   | |  | | |  |  |  |  | |\  \  |  | \   \       
                 \___/    |_|  |_| |__|  |__|  |_| \__\ |__|  \__/        
                                                                              
                      - O R C A' S   B I G   F R I E N D -                    
                                      &                                       
                       - I N T E G R A L  F E E D E R -                       
                                                                              
 v1 FN, 2020, v2 2021, v3 2022-2024                                           
------------------------------------------------------------------------------


----------------------
SHARK INTEGRAL PACKAGE
----------------------

Number of atoms                             ...     19
Number of basis functions                   ...    785
Number of shells                            ...    303
Maximum angular momentum                    ...      3
Integral batch strategy                     ... SHARK/LIBINT Hybrid
RI-J (if used) integral strategy            ... SPLIT-RIJ (Revised 2003 algorithm where possible)
Printlevel                                  ...      1
Contraction scheme used                     ... PARTIAL GENERAL contraction
Prescreening option                         ... SCHWARTZ
   Thresh                                   ... 2.500e-11
   Tcut                                     ... 2.500e-12
   Tpresel                                  ... 2.500e-12 
Coulomb Range Separation                    ... NOT USED
Exchange Range Separation                   ... NOT USED
Multipole approximations                    ... NOT USED
Finite Nucleus Model                        ... NOT USED
CABS basis                                  ... NOT available
Auxiliary Coulomb fitting basis             ... AVAILABLE
   # of basis functions in Aux-J            ...    665
   # of shells in Aux-J                     ...    215
   Maximum angular momentum in Aux-J        ...      4
Auxiliary J/K fitting basis                 ... NOT available
Auxiliary Correlation fitting basis         ... NOT available
Auxiliary 'external' fitting basis          ... NOT available

Checking pre-screening integrals            ... done (  0.0 sec) Dimension = 303
Save PGC pre-screening integrals            ... done (  0.0 sec) Dimension = 303
Calculate PGC overlap integrals             ... done (  0.1 sec) Dimension = 231
Calculating pre-screening integrals (ORCA)  ... done (  0.3 sec) Dimension = 231
Check shell pair data                       ... done (  0.0 sec)
Shell pair information
Shell pair cut-off parameter TPreSel        ...   2.5e-12
Total number of shell pairs                 ...     46056
Shell pairs after pre-screening             ...     35780
Total number of primitive shell pairs       ...     58368
Primitive shell pairs kept                  ...     42216
          la=0 lb=0:   8016 shell pairs
          la=1 lb=0:   9039 shell pairs
          la=1 lb=1:   2225 shell pairs
          la=2 lb=0:   6342 shell pairs
          la=2 lb=1:   3117 shell pairs
          la=2 lb=2:   1139 shell pairs
          la=3 lb=0:   3062 shell pairs
          la=3 lb=1:   1500 shell pairs
          la=3 lb=2:   1071 shell pairs
          la=3 lb=3:    269 shell pairs

Calculating one electron integrals          ... done (  0.1 sec)
Calculating RI/J V-Matrix + Cholesky decomp.... done (  0.1 sec)
Calculating Nuclear repulsion               ... done (  0.0 sec) ENN=    649.215627709202 Eh

Diagonalization of the overlap matrix:
Smallest eigenvalue                        ... 4.464e-07
Time for diagonalization                   ...    0.086 sec
Threshold for overlap eigenvalues          ... 1.000e-07
Number of eigenvalues below threshold      ... 0

IMPORTANT:
Smallest eigenvalue of S below the DiffSThresh (1.000e-06) while
Thresh>1e-12 and/or TCut>1e-13! In order to avoid SCF convergence issues,
Thresh will be set to at least 1e-12 and TCut to at least 1e-13.
This can be turned off by adding %SCF DiffSThresh -1 END to the input.

Time for construction of square roots      ...    0.063 sec
Total time needed                          ...    0.174 sec

-------------------
DFT GRID GENERATION
-------------------

General Integration Accuracy     IntAcc      ... 4.388
Radial Grid Type                 RadialGrid  ... OptM3 with GC (2021)
Angular Grid (max. ang.)         AngularGrid ... 4 (Lebedev-302)
Angular grid pruning method      GridPruning ... 4 (adaptive)
Weight generation scheme         WeightScheme... mBecke (2022)
Basis function cutoff            BFCut       ... 1.0000e-11
Integration weight cutoff        WCut        ... 1.0000e-14
Partially contracted basis set               ... off
Rotationally invariant grid construction     ... off
Angular grids for H and He will be reduced by one unit
Diffuse basis detected: some atoms will have their outermost
                        angular grid increased by 1.

Total number of grid points                  ...    99192
Total number of batches                      ...     1559
Average number of points per batch           ...       63
Average number of grid points per atom       ...     5221

---------------------
SHARK GRID GENERATION
---------------------

General Integration Accuracy     IntAcc      ... 4.388
Radial Grid Type                 RadialGrid  ... OptM3 with GC (2021)
Angular Grid (max. ang.)         AngularGrid ... 4 (Lebedev-302)
Angular grid pruning method      GridPruning ... 4 (adaptive)
Weight generation scheme         WeightScheme... mBecke (2022)
Basis function cutoff            BFCut       ... 1.0000e-11
Integration weight cutoff        WCut        ... 1.0000e-14
Partially contracted basis set               ... off
Rotationally invariant grid construction     ... off
Angular grids for H and He will be reduced by one unit
Diffuse basis detected: some atoms will have their outermost
                        angular grid increased by 1.
Steep s-basis detected: some atoms will have their radial
                        grid points doubled.

Total number of grid points                  ...   175199
Total number of batches                      ...     2746
Average number of points per batch           ...       63
Average number of grid points per atom       ...     9221

--------------------
COSX GRID GENERATION
--------------------

GRIDX 1
-------
General Integration Accuracy     IntAcc      ... 3.816
Radial Grid Type                 RadialGrid  ... OptM3 with GC (2021)
Angular Grid (max. ang.)         AngularGrid ... 1 (Lebedev-50)
Angular grid pruning method      GridPruning ... 4 (adaptive)
Weight generation scheme         WeightScheme... mBecke (2022)
Basis function cutoff            BFCut       ... 1.0000e-11
Integration weight cutoff        WCut        ... 1.0000e-14
Partially contracted basis set               ... on
Rotationally invariant grid construction     ... off
Angular grids for H and He will be reduced by one unit
Diffuse basis detected: some atoms will have their outermost
                        angular grid increased by 1.

Total number of grid points                  ...    12485
Total number of batches                      ...      104
Average number of points per batch           ...      120
Average number of grid points per atom       ...      657
UseSFitting                                  ... on

GRIDX 2
-------
General Integration Accuracy     IntAcc      ... 4.020
Radial Grid Type                 RadialGrid  ... OptM3 with GC (2021)
Angular Grid (max. ang.)         AngularGrid ... 2 (Lebedev-110)
Angular grid pruning method      GridPruning ... 4 (adaptive)
Weight generation scheme         WeightScheme... mBecke (2022)
Basis function cutoff            BFCut       ... 1.0000e-11
Integration weight cutoff        WCut        ... 1.0000e-14
Partially contracted basis set               ... on
Rotationally invariant grid construction     ... off
Angular grids for H and He will be reduced by one unit
Diffuse basis detected: some atoms will have their outermost
                        angular grid increased by 1.

Total number of grid points                  ...    31047
Total number of batches                      ...      253
Average number of points per batch           ...      122
Average number of grid points per atom       ...     1634
UseSFitting                                  ... on

GRIDX 3
-------
General Integration Accuracy     IntAcc      ... 4.338
Radial Grid Type                 RadialGrid  ... OptM3 with GC (2021)
Angular Grid (max. ang.)         AngularGrid ... 3 (Lebedev-194)
Angular grid pruning method      GridPruning ... 4 (adaptive)
Weight generation scheme         WeightScheme... mBecke (2022)
Basis function cutoff            BFCut       ... 1.0000e-11
Integration weight cutoff        WCut        ... 1.0000e-14
Partially contracted basis set               ... on
Rotationally invariant grid construction     ... off
Angular grids for H and He will be reduced by one unit
Diffuse basis detected: some atoms will have their outermost
                        angular grid increased by 1.

Total number of grid points                  ...    68429
Total number of batches                      ...      543
Average number of points per batch           ...      126
Average number of grid points per atom       ...     3602
UseSFitting                                  ... on
Initializing property integral containers    ... done (  0.0 sec)

SHARK setup successfully completed in   9.1 seconds

Maximum memory used throughout the entire STARTUP-calculation: 91.0 MB


           ************************************************************
           *        Program running with 4 parallel MPI-processes     *
           *              working on a common directory               *
           ************************************************************
-------------------------------------------------------------------------------
                                 ORCA GUESS
                   Start orbitals & Density for SCF / CASSCF
-------------------------------------------------------------------------------

------------
SCF SETTINGS
------------
Hamiltonian:
 Density Functional     Method          .... DFT(GTOs)
  Functional kind                       .... Exchange
  Functional name                       .... Re-regularized SCAN exchange by Furness et al
  Functional family                     .... MGGA
  Functional refs                              
    [ 0] J. W. Furness, A. D. Kaplan, J. Ning, J. P. Perdew, and J. Sun.,  J. Phys. Chem. Lett. 11, 8208-8215 (2020), doi: 10.1021/acs.jpclett.0c02405
    [ 1] J. W. Furness, A. D. Kaplan, J. Ning, J. P. Perdew, and J. Sun.,  J. Phys. Chem. Lett. 11, 9248-9248 (2020), doi: 10.1021/acs.jpclett.0c03077
  Functional external parameters        .... 6
    Parameter  0 _c1        =  6.670000e-01 : c1 parameter        
    Parameter  1 _c2        =  8.000000e-01 : c2 parameter        
    Parameter  2 _d         =  1.240000e+00 : d parameter         
    Parameter  3 _k1        =  6.500000e-02 : k1 parameter        
    Parameter  4 _eta       =  1.000000e-03 : eta parameter       
    Parameter  5 _dp2       =  3.610000e-01 : dp2 parameter       
  Functional kind                       .... Correlation
  Functional name                       .... Re-regularized SCAN correlation by Furness et al
  Functional family                     .... MGGA
  Functional refs                              
    [ 0] J. W. Furness, A. D. Kaplan, J. Ning, J. P. Perdew, and J. Sun.,  J. Phys. Chem. Lett. 11, 8208-8215 (2020), doi: 10.1021/acs.jpclett.0c02405
    [ 1] J. W. Furness, A. D. Kaplan, J. Ning, J. P. Perdew, and J. Sun.,  J. Phys. Chem. Lett. 11, 9248-9248 (2020), doi: 10.1021/acs.jpclett.0c03077
  Functional external parameters        .... 1
    Parameter  0 _eta       =  1.000000e-03 : Regularization parameter
 Gradients option       PostSCFGGA      .... off
 Hybrid DFT is turned on
   Fraction HF Exchange ScalHFX         ....  0.100000
   Scaling of DF-GGA-X  ScalDFX         ....  0.900000
   Scaling of DF-GGA-C  ScalDFC         ....  1.000000
   Scaling of DF-LDA-C  ScalLDAC        ....  1.000000
   Perturbative correction              ....  0.000000
   NL short-range parameter             .... 11.900000
 RI-approximation to the Coulomb term is turned on
   Number of AuxJ basis functions       .... 665
   RIJ-COSX (HFX calculated with COS-X)).... on


General Settings:
 Integral files         IntName         .... cs_rporg_150_ox_solv_04
 Hartree-Fock type      HFTyp           .... RHF
 Total Charge           Charge          ....    0
 Multiplicity           Mult            ....    1
 Number of Electrons    NEL             ....   86
 Basis Dimension        Dim             ....  713
 Nuclear Repulsion      ENuc            ....    649.2156277092 Eh

Convergence Acceleration:
 AO-DIIS                CNVDIIS         .... on
   Start iteration      DIISMaxIt       ....     0
   Startup error        DIISStart       ....  0.200000
   # of expansion vecs  DIISMaxEq       ....     5
   Bias factor          DIISBfac        ....   1.050
   Max. coefficient     DIISMaxC        ....  10.000
 MO-DIIS                CNVKDIIS        .... off
 Trust-Rad. Augm. Hess. CNVTRAH         .... auto
   Auto Start mean grad. ratio tolernc. ....  1.125000
   Auto Start start iteration           ....    50
   Auto Start num. interpolation iter.  ....    10
   Max. Number of Micro iterations      ....    24
   Max. Number of Macro iterations      .... Maxiter - #DIIS iter
   Number of Davidson start vectors     ....     2
   Converg. threshold    (grad. norm)   ....   1.000e-05
   Grad. Scal. Fac. for Micro threshold ....   0.100
   Minimum threshold for Micro iter.    ....   1.000e-02
   NR start threshold (gradient norm)   ....   1.000e-04
   Initial trust radius                 ....   0.400
   Minimum AH scaling param. (alpha)    ....   1.000
   Maximum AH scaling param. (alpha)    .... 1000.000
   Quad. conv. algorithm                .... NR
   White noise on init. David. guess    .... on
   Maximum white noise                  ....   0.010
   Pseudo random numbers                .... off
   Inactive MOs                         .... canonical
   Orbital update algorithm             .... Taylor
   Preconditioner                       .... Diag
   Full preconditioner red. dimension   ....   250
 SOSCF                  CNVSOSCF        .... on
   Start iteration      SOSCFMaxIt      ....   150
   Startup grad/error   SOSCFStart      ....  0.001000
   Hessian update       SOSCFHessUp     .... L-BFGS
 Level Shifting         CNVShift        .... on
   Level shift para.    LevelShift      ....    0.2500
   Turn off err/grad.   ShiftErr        ....    0.0000
 Zerner damping         CNVZerner       .... off
 Static damping         CNVDamp         .... on
   Fraction old density DampFac         ....    0.8500
   Max. Damping (<1)    DampMax         ....    0.9800
   Min. Damping (>=0)   DampMin         ....    0.0000
   Turn off err/grad.   DampErr         ....    0.0300

SCF Procedure:
 Maximum # iterations   MaxIter         ....  1500
 SCF integral mode      SCFMode         .... Direct
   Integral package                     .... SHARK and LIBINT hybrid scheme
 Reset frequency        DirectResetFreq ....    20
 Integral Threshold     Thresh          ....  1.000e-12 Eh
 Primitive CutOff       TCut            ....  1.000e-13 Eh

Convergence Tolerance:
 Convergence Check Mode ConvCheckMode   .... Total+1el-Energy
 Convergence forced     ConvForced      .... 0
 Energy Change          TolE            ....  1.000e-08 Eh
 1-El. energy change                    ....  1.000e-05 Eh
 Orbital Gradient       TolG            ....  1.000e-05
 Orbital Rotation angle TolX            ....  1.000e-05
 DIIS Error             TolErr          ....  5.000e-07

------------------------------
INITIAL GUESS: MODEL POTENTIAL
------------------------------
Loading Hartree-Fock densities                     ... done
Calculating cut-offs                               ... done
Initializing the effective Hamiltonian             ... done
Setting up the integral package (SHARK)            ... done
Starting the Coulomb interaction                   ... done (   0.6 sec)
Making the grid                                    ... done (   0.4 sec)
Mapping shells                                     ... done
Starting the XC term evaluation                    ... done (   0.8 sec)
  promolecular density results
     # of electrons  =     86.000067403
     EX              =    -73.958524922
     EC              =     -2.895919655
     EX+EC           =    -76.854444577
Transforming the Hamiltonian                       ... done (   0.1 sec)
Diagonalizing the Hamiltonian                      ... done (   0.1 sec)
Back transforming the eigenvectors                 ... done (   0.1 sec)
Now organizing SCF variables                       ... done
                      ------------------
                      INITIAL GUESS DONE (   2.1 sec)
                      ------------------
             **** ENERGY FILE WAS UPDATED (cs_rporg_150_ox_solv_04.en.tmp) ****
Finished Guess after   3.0 sec
Maximum memory used throughout the entire GUESS-calculation: 65.7 MB


           ************************************************************
           *        Program running with 4 parallel MPI-processes     *
           *              working on a common directory               *
           ************************************************************

-------------------------------------------------------------------------------------------
                                      ORCA LEAN-SCF
                              memory conserving SCF solver
-------------------------------------------------------------------------------------------

--------------------
CPCM SOLVATION MODEL
--------------------
CPCM parameters:
  Epsilon                                         ...      35.6880
  Refrac                                          ...       1.3442
  Rsolv                                           ...       2.1900
  Surface type                                    ...    GEPOL SES
  Discretization scheme                           ... Constant num. charges
  Epsilon function type                           ...         CPCM
Solvent:                                          ... ACETONITRILE
SMD-CDS solvent descriptors:
  Soln                                            ...       1.3442
  Soln25                                          ...       1.3416
  Sola                                            ...       0.0700
  Solb                                            ...       0.3200
  Solg                                            ...      41.2500
  Solc                                            ...       0.0000
  Solh                                            ...       0.0000
Radii:
  Scheme                                          ... Element-dependent radii
  Radius for C  used is    3.4960 Bohr (=   1.8500 Ang.)
  Radius for O  used is    4.0969 Bohr (=   2.1680 Ang.)
  Radius for H  used is    2.2677 Bohr (=   1.2000 Ang.)
  Radius for N  used is    3.5716 Bohr (=   1.8900 Ang.)
Calculating surface                               ...        done! (  0.0s)
Cavity surface points                             ...          590
Cavity Volume                                     ...    1399.6898
Cavity Surface-area                               ...     749.4775
Calculating surface distance matrix               ...        done! (  0.0s)
Performing Cholesky decomposition & store         ...        done! (  0.0s)
Overall time for CPCM initialization              ...                 0.0s

----------------------------------------D-I-I-S--------------------------------------------
Iteration    Energy (Eh)           Delta-E    RMSDP     MaxDP     DIISErr   Damp  Time(sec)
-------------------------------------------------------------------------------------------
               ***  Starting incremental Fock matrix formation  ***
    1    -588.9772289653377584     0.00e+00  1.46e-03  9.93e-02  2.77e-01  0.850  27.2
Warning: op=0 Small HOMO/LUMO gap (   0.045) - skipping pre-diagonalization
         Will do a full diagonalization
    2    -589.0664275267546373    -8.92e-02  1.45e-03  9.88e-02  1.94e-01  0.850  16.2
                               ***Turning on AO-DIIS***
    3    -589.1191479857171771    -5.27e-02  8.84e-04  5.15e-02  1.21e-01  0.850  15.7
    4    -589.1517565479624636    -3.26e-02  6.79e-04  4.08e-02  9.64e-02  0.850  15.5
    5    -589.1751794344219206    -2.34e-02  5.63e-04  3.26e-02  8.28e-02  0.850  15.6
    6    -589.1938793349694379    -1.87e-02  4.80e-04  2.64e-02  7.15e-02  0.850  15.2
    7    -589.2094462764815717    -1.56e-02  4.10e-04  2.13e-02  6.03e-02  0.850  15.3
    8    -589.2224445164766848    -1.30e-02  3.42e-04  1.81e-02  4.92e-02  0.850  14.7
    9    -589.2330774742152926    -1.06e-02  2.87e-04  1.55e-02  4.08e-02  0.850  14.9
   10    -589.2418363683863163    -8.76e-03  2.44e-04  1.31e-02  3.46e-02  0.850  14.8
   11    -589.2491363327982299    -7.30e-03  2.09e-04  1.10e-02  2.95e-02  0.850  14.7
   12    -589.2552602801771400    -6.12e-03  1.18e-03  6.13e-02  2.48e-02  0.000  14.9
   13    -589.2883101345511250    -3.30e-02  6.50e-05  5.84e-03  3.34e-03  0.000  15.4
   14    -589.2883328232325084    -2.27e-05  1.97e-05  1.21e-03  1.68e-03  0.000  14.0
                              *** Initializing SOSCF ***
---------------------------------------S-O-S-C-F--------------------------------------
Iteration    Energy (Eh)           Delta-E    RMSDP     MaxDP     MaxGrad    Time(sec)
--------------------------------------------------------------------------------------
   15    -589.2883412356696908    -8.41e-06  6.63e-06  6.60e-04  2.53e-04    13.4
               *** Restarting incremental Fock matrix formation ***
   16    -589.2883399364701518     1.30e-06  1.76e-04  8.99e-03  3.08e-05    27.6
   17    -589.2883399018670616     3.46e-08  4.20e-05  2.10e-03  6.40e-05    21.6
   18    -589.2883399775001863    -7.56e-08  5.01e-05  2.53e-03  7.65e-06    20.5
   19    -589.2883399823425634    -4.84e-09  1.99e-06  1.59e-04  5.99e-06    20.2
                 **** Energy Check signals convergence ****

               *****************************************************
               *                     SUCCESS                       *
               *           SCF CONVERGED AFTER  19 CYCLES          *
               *****************************************************

Recomputing exchange energy using gridx3       ... done (   37.480 sec)
Old exchange energy                            :     -7.513191038 Eh
New exchange energy                            :     -7.513219734 Eh
Exchange energy change after final integration :     -0.000028696 Eh
Total energy after final integration           :   -589.288368679 Eh

SMD CDS free energy correction energy :                -1.73185     Kcal/mol
Total Energy after SMD CDS correction =              -589.291128550 Eh
             **** ENERGY FILE WAS UPDATED (cs_rporg_150_ox_solv_04.en.tmp) ****

----------------
TOTAL SCF ENERGY
----------------

Total Energy       :       -589.29112854950733 Eh          -16035.42683 eV

Components:
Nuclear Repulsion  :        649.21562770920207 Eh           17666.05535 eV
Electronic Energy  :      -1238.48780525070879 Eh          -33700.96650 eV
One Electron Energy:      -2088.41066603163017 Eh          -56828.54333 eV
Two Electron Energy:        849.92286078092150 Eh           23127.57683 eV
CPCM Dielectric    :         -0.01616244083590 Eh              -0.43980 eV
SMD CDS (Gcds)     :         -0.00275987093990 Eh              -0.07510 eV

Virial components:
Potential Energy   :      -1175.41216643086295 Eh          -31984.59111 eV
Kinetic Energy     :        586.12103788135562 Eh           15949.16428 eV
Virial Ratio       :          2.00540859389660

DFT components:
N(Alpha)           :       43.000029609514 electrons
N(Beta)            :       43.000029609514 electrons
N(Total)           :       86.000059219029 electrons
E(X)               :      -67.968650253404 Eh       
E(C)               :       -2.840803649814 Eh       
E(XC)              :      -70.809453903218 Eh       

CPCM Solvation Model Properties:
Surface-charge          :         -0.02392509467747
Corrected charge        :          0.00000000000000
Outlying charge corr.   :          0.00003650991308 Eh               0.00099 eV
Free-energy (cav+disp)  :         -0.00275987093990 Eh              -0.07510 eV

---------------
SCF CONVERGENCE
---------------

  Last Energy change         ...    4.8424e-09  Tolerance :   1.0000e-08
  Last MAX-Density change    ...    1.5891e-04  Tolerance :   1.0000e-07
  Last RMS-Density change    ...    1.9924e-06  Tolerance :   5.0000e-09
  Last DIIS Error            ...    2.5348e-04  Tolerance :   5.0000e-07
  Last Orbital Gradient      ...    5.9939e-06  Tolerance :   1.0000e-05
  Last Orbital Rotation      ...    1.2666e-05  Tolerance :   1.0000e-05


----------------
ORBITAL ENERGIES
----------------

  NO   OCC          E(Eh)            E(eV) 
   0   2.0000     -19.161487      -521.4106 
   1   2.0000     -19.161312      -521.4058 
   2   2.0000     -19.114632      -520.1356 
   3   2.0000     -14.554152      -396.0386 
   4   2.0000     -10.256520      -279.0941 
   5   2.0000     -10.228552      -278.3330 
   6   2.0000     -10.190835      -277.3067 
   7   2.0000     -10.189002      -277.2568 
   8   2.0000     -10.188443      -277.2416 
   9   2.0000     -10.186670      -277.1934 
  10   2.0000     -10.182870      -277.0900 
  11   2.0000     -10.153883      -276.3012 
  12   2.0000      -1.259793       -34.2807 
  13   2.0000      -1.081530       -29.4299 
  14   2.0000      -1.060098       -28.8467 
  15   2.0000      -0.895510       -24.3681 
  16   2.0000      -0.817922       -22.2568 
  17   2.0000      -0.772875       -21.0310 
  18   2.0000      -0.746462       -20.3123 
  19   2.0000      -0.703859       -19.1530 
  20   2.0000      -0.627250       -17.0683 
  21   2.0000      -0.609769       -16.5926 
  22   2.0000      -0.564782       -15.3685 
  23   2.0000      -0.554830       -15.0977 
  24   2.0000      -0.547397       -14.8954 
  25   2.0000      -0.524570       -14.2743 
  26   2.0000      -0.484829       -13.1929 
  27   2.0000      -0.473111       -12.8740 
  28   2.0000      -0.452039       -12.3006 
  29   2.0000      -0.439707       -11.9650 
  30   2.0000      -0.432546       -11.7702 
  31   2.0000      -0.420256       -11.4357 
  32   2.0000      -0.407999       -11.1022 
  33   2.0000      -0.387630       -10.5479 
  34   2.0000      -0.369879       -10.0649 
  35   2.0000      -0.358273        -9.7491 
  36   2.0000      -0.350262        -9.5311 
  37   2.0000      -0.325838        -8.8665 
  38   2.0000      -0.313064        -8.5189 
  39   2.0000      -0.299105        -8.1391 
  40   2.0000      -0.281374        -7.6566 
  41   2.0000      -0.274832        -7.4785 
  42   2.0000      -0.253262        -6.8916 
  43   0.0000      -0.121162        -3.2970 
  44   0.0000      -0.061654        -1.6777 
  45   0.0000      -0.044567        -1.2127 
  46   0.0000       0.007093         0.1930 
  47   0.0000       0.021168         0.5760 
  48   0.0000       0.021305         0.5797 
  49   0.0000       0.025165         0.6848 
  50   0.0000       0.036514         0.9936 
  51   0.0000       0.040359         1.0982 
  52   0.0000       0.042954         1.1688 
  53   0.0000       0.046637         1.2691 
*Only the first 10 virtual orbitals were printed.

                    ********************************
                    * MULLIKEN POPULATION ANALYSIS *
                    ********************************

-----------------------
MULLIKEN ATOMIC CHARGES
-----------------------
   0 C :   -0.913084
   1 C :   -0.334387
   2 C :    0.505805
   3 C :   -0.585049
   4 C :   -0.359337
   5 C :    1.218793
   6 C :    0.782757
   7 O :   -0.959989
   8 C :   -0.589332
   9 H :    0.262983
  10 H :    0.172108
  11 H :    0.262366
  12 H :    0.045602
  13 H :    0.469716
  14 N :    0.788138
  15 O :   -0.682176
  16 O :   -0.682936
  17 H :    0.523355
  18 H :    0.074667
Sum of atomic charges:   -0.0000000

--------------------------------
MULLIKEN REDUCED ORBITAL CHARGES
--------------------------------
  0 C s       :     4.130448  s :     4.130448
      pz      :     0.926938  p :     2.672499
      px      :     0.694792
      py      :     1.050769
      dz2     :    -0.018820  d :     0.128215
      dxz     :     0.005405
      dyz     :     0.016254
      dx2y2   :    -0.023824
      dxy     :     0.149202
      f0      :     0.000779  f :    -0.018079
      f+1     :    -0.001541
      f-1     :     0.000236
      f+2     :     0.000118
      f-2     :    -0.000419
      f+3     :     0.002966
      f-3     :    -0.020218

  1 C s       :     3.795370  s :     3.795370
      pz      :     0.919085  p :     2.442982
      px      :     0.592639
      py      :     0.931258
      dz2     :     0.010080  d :     0.122293
      dxz     :     0.018161
      dyz     :     0.007719
      dx2y2   :     0.014618
      dxy     :     0.071714
      f0      :     0.001026  f :    -0.026257
      f+1     :     0.000697
      f-1     :     0.000724
      f+2     :     0.000912
      f-2     :    -0.000400
      f+3     :     0.002465
      f-3     :    -0.031680

  2 C s       :     3.210980  s :     3.210980
      pz      :     1.013546  p :     2.623832
      px      :     0.445736
      py      :     1.164550
      dz2     :    -0.022611  d :    -0.262695
      dxz     :     0.000868
      dyz     :     0.029226
      dx2y2   :    -0.141136
      dxy     :    -0.129043
      f0      :     0.002854  f :    -0.077922
      f+1     :    -0.002901
      f-1     :     0.000471
      f+2     :     0.001595
      f-2     :    -0.001810
      f+3     :    -0.000785
      f-3     :    -0.077346

  3 C s       :     4.047891  s :     4.047891
      pz      :     0.907792  p :     2.442043
      px      :     0.627817
      py      :     0.906434
      dz2     :     0.015472  d :     0.124443
      dxz     :     0.007617
      dyz     :     0.004500
      dx2y2   :     0.015342
      dxy     :     0.081511
      f0      :     0.000864  f :    -0.029328
      f+1     :     0.000056
      f-1     :     0.000315
      f+2     :     0.000868
      f-2     :    -0.000550
      f+3     :     0.002840
      f-3     :    -0.033722

  4 C s       :     3.840733  s :     3.840733
      pz      :     0.971062  p :     2.468963
      px      :     0.519319
      py      :     0.978582
      dz2     :    -0.027728  d :     0.068183
      dxz     :    -0.005788
      dyz     :     0.018249
      dx2y2   :    -0.129097
      dxy     :     0.212548
      f0      :     0.001347  f :    -0.018543
      f+1     :     0.000330
      f-1     :     0.000094
      f+2     :     0.000025
      f-2     :    -0.000448
      f+3     :     0.004712
      f-3     :    -0.024603

  5 C s       :     2.729145  s :     2.729145
      pz      :     0.938243  p :     2.048851
      px      :     0.359490
      py      :     0.751118
      dz2     :    -0.016167  d :     0.119594
      dxz     :    -0.005286
      dyz     :    -0.002330
      dx2y2   :     0.030564
      dxy     :     0.112814
      f0      :     0.000342  f :    -0.116384
      f+1     :    -0.005456
      f-1     :    -0.000753
      f+2     :    -0.000706
      f-2     :    -0.004335
      f+3     :    -0.008625
      f-3     :    -0.096851

  6 C s       :     3.367404  s :     3.367404
      pz      :     0.613923  p :     1.866201
      px      :     0.668632
      py      :     0.583647
      dz2     :     0.005464  d :     0.010460
      dxz     :    -0.008208
      dyz     :     0.023816
      dx2y2   :     0.051007
      dxy     :    -0.061619
      f0      :     0.000152  f :    -0.026822
      f+1     :    -0.000187
      f-1     :     0.000333
      f+2     :     0.004956
      f-2     :     0.001966
      f+3     :    -0.002740
      f-3     :    -0.031302

  7 O s       :     4.158664  s :     4.158664
      pz      :     1.399964  p :     4.739569
      px      :     1.827148
      py      :     1.512457
      dz2     :     0.002145  d :     0.055888
      dxz     :     0.007199
      dyz     :     0.016509
      dx2y2   :     0.014162
      dxy     :     0.015873
      f0      :     0.000684  f :     0.005868
      f+1     :     0.000242
      f-1     :     0.000033
      f+2     :     0.000457
      f-2     :     0.001022
      f+3     :     0.000666
      f-3     :     0.002764

  8 C s       :     3.412101  s :     3.412101
      pz      :     1.118908  p :     3.110487
      px      :     1.033678
      py      :     0.957901
      dz2     :     0.005282  d :     0.060119
      dxz     :     0.014491
      dyz     :     0.020807
      dx2y2   :     0.004320
      dxy     :     0.015220
      f0      :    -0.000414  f :     0.006625
      f+1     :    -0.000430
      f-1     :    -0.001617
      f+2     :     0.000917
      f-2     :     0.001103
      f+3     :     0.004519
      f-3     :     0.002548

  9 H s       :     0.687762  s :     0.687762
      pz      :     0.009526  p :     0.041119
      px      :     0.011051
      py      :     0.020542
      dz2     :     0.002929  d :     0.008136
      dxz     :     0.001591
      dyz     :     0.000429
      dx2y2   :     0.002297
      dxy     :     0.000891

 10 H s       :     0.781003  s :     0.781003
      pz      :     0.016682  p :     0.039410
      px      :     0.013858
      py      :     0.008870
      dz2     :    -0.000122  d :     0.007480
      dxz     :     0.002946
      dyz     :     0.000750
      dx2y2   :     0.001764
      dxy     :     0.002142

 11 H s       :     0.688246  s :     0.688246
      pz      :     0.009550  p :     0.041248
      px      :     0.011099
      py      :     0.020599
      dz2     :     0.002960  d :     0.008140
      dxz     :     0.001548
      dyz     :     0.000418
      dx2y2   :     0.002327
      dxy     :     0.000887

 12 H s       :     0.912386  s :     0.912386
      pz      :     0.024483  p :     0.030930
      px      :    -0.005599
      py      :     0.012046
      dz2     :    -0.000393  d :     0.011082
      dxz     :     0.001122
      dyz     :     0.004129
      dx2y2   :     0.004286
      dxy     :     0.001938

 13 H s       :     0.535449  s :     0.535449
      pz      :     0.014646  p :    -0.007199
      px      :    -0.012915
      py      :    -0.008930
      dz2     :    -0.001115  d :     0.002034
      dxz     :     0.001023
      dyz     :     0.004090
      dx2y2   :    -0.001011
      dxy     :    -0.000953

 14 N s       :     3.384098  s :     3.384098
      pz      :     1.070118  p :     2.793416
      px      :     0.885893
      py      :     0.837406
      dz2     :    -0.024545  d :     0.029228
      dxz     :     0.034952
      dyz     :     0.021180
      dx2y2   :     0.047009
      dxy     :    -0.049368
      f0      :     0.000220  f :     0.005120
      f+1     :     0.000509
      f-1     :     0.000563
      f+2     :     0.004563
      f-2     :     0.003297
      f+3     :    -0.001770
      f-3     :    -0.002263

 15 O s       :     4.030895  s :     4.030895
      pz      :     1.466357  p :     4.586887
      px      :     1.803092
      py      :     1.317438
      dz2     :     0.004504  d :     0.057311
      dxz     :     0.006306
      dyz     :     0.018116
      dx2y2   :     0.013266
      dxy     :     0.015119
      f0      :     0.000844  f :     0.007084
      f+1     :     0.000309
      f-1     :     0.000211
      f+2     :     0.000646
      f-2     :     0.001030
      f+3     :     0.002001
      f-3     :     0.002043

 16 O s       :     4.030510  s :     4.030510
      pz      :     1.465484  p :     4.587444
      px      :     1.797449
      py      :     1.324511
      dz2     :     0.004573  d :     0.057862
      dxz     :     0.006418
      dyz     :     0.018003
      dx2y2   :     0.013549
      dxy     :     0.015319
      f0      :     0.000843  f :     0.007120
      f+1     :     0.000317
      f-1     :     0.000211
      f+2     :     0.000625
      f-2     :     0.001055
      f+3     :     0.001994
      f-3     :     0.002075

 17 H s       :     0.489218  s :     0.489218
      pz      :     0.013499  p :    -0.014449
      px      :    -0.010645
      py      :    -0.017302
      dz2     :    -0.001214  d :     0.001875
      dxz     :     0.001091
      dyz     :     0.004019
      dx2y2   :    -0.000587
      dxy     :    -0.001434

 18 H s       :     0.898677  s :     0.898677
      pz      :     0.022566  p :     0.020191
      px      :    -0.018544
      py      :     0.016168
      dz2     :    -0.000460  d :     0.006465
      dxz     :     0.001505
      dyz     :     0.003978
      dx2y2   :     0.001608
      dxy     :    -0.000167



                     *******************************
                     * LOEWDIN POPULATION ANALYSIS *
                     *******************************

----------------------
LOEWDIN ATOMIC CHARGES
----------------------
   0 C :    0.218699
   1 C :    0.223963
   2 C :   -0.226289
   3 C :    0.227010
   4 C :    0.233999
   5 C :   -0.111408
   6 C :   -0.533531
   7 O :    0.494752
   8 C :    0.578336
   9 H :   -0.154499
  10 H :   -0.173862
  11 H :   -0.154613
  12 H :   -0.166115
  13 H :   -0.182689
  14 N :   -0.748654
  15 O :    0.418795
  16 O :    0.419007
  17 H :   -0.183591
  18 H :   -0.179311

-------------------------------
LOEWDIN REDUCED ORBITAL CHARGES
-------------------------------
  0 C s       :     2.482268  s :     2.482268
      pz      :     0.573834  p :     2.255084
      px      :     0.845774
      py      :     0.835476
      dz2     :     0.069953  d :     0.695568
      dxz     :     0.099305
      dyz     :     0.058284
      dx2y2   :     0.213785
      dxy     :     0.254240
      f0      :     0.021420  f :     0.348381
      f+1     :     0.029761
      f-1     :     0.022567
      f+2     :     0.045422
      f-2     :     0.026512
      f+3     :     0.063769
      f-3     :     0.138930

  1 C s       :     2.487124  s :     2.487124
      pz      :     0.580776  p :     2.264078
      px      :     0.849507
      py      :     0.833796
      dz2     :     0.069496  d :     0.681412
      dxz     :     0.096777
      dyz     :     0.063267
      dx2y2   :     0.202391
      dxy     :     0.249482
      f0      :     0.021724  f :     0.343423
      f+1     :     0.029561
      f-1     :     0.022930
      f+2     :     0.048185
      f-2     :     0.026836
      f+3     :     0.064397
      f-3     :     0.129791

  2 C s       :     2.470955  s :     2.470955
      pz      :     0.644777  p :     2.237752
      px      :     0.704607
      py      :     0.888369
      dz2     :     0.099356  d :     0.959824
      dxz     :     0.106157
      dyz     :     0.138535
      dx2y2   :     0.344613
      dxy     :     0.271163
      f0      :     0.034384  f :     0.557759
      f+1     :     0.044789
      f-1     :     0.036546
      f+2     :     0.048884
      f-2     :     0.073940
      f+3     :     0.093968
      f-3     :     0.225247

  3 C s       :     2.486020  s :     2.486020
      pz      :     0.579791  p :     2.261351
      px      :     0.846519
      py      :     0.835041
      dz2     :     0.069638  d :     0.680925
      dxz     :     0.098174
      dyz     :     0.062729
      dx2y2   :     0.202703
      dxy     :     0.247681
      f0      :     0.021834  f :     0.344693
      f+1     :     0.029800
      f-1     :     0.022942
      f+2     :     0.047922
      f-2     :     0.027605
      f+3     :     0.064476
      f-3     :     0.130113

  4 C s       :     2.479195  s :     2.479195
      pz      :     0.579018  p :     2.254122
      px      :     0.839939
      py      :     0.835166
      dz2     :     0.068848  d :     0.690883
      dxz     :     0.099375
      dyz     :     0.059118
      dx2y2   :     0.212549
      dxy     :     0.250992
      f0      :     0.021140  f :     0.341801
      f+1     :     0.028361
      f-1     :     0.022640
      f+2     :     0.045544
      f-2     :     0.025822
      f+3     :     0.061607
      f-3     :     0.136686

  5 C s       :     2.473687  s :     2.473687
      pz      :     0.600499  p :     2.270963
      px      :     0.815939
      py      :     0.854526
      dz2     :     0.090408  d :     0.883000
      dxz     :     0.097748
      dyz     :     0.122868
      dx2y2   :     0.313202
      dxy     :     0.258774
      f0      :     0.029882  f :     0.483758
      f+1     :     0.036287
      f-1     :     0.034379
      f+2     :     0.031250
      f-2     :     0.068516
      f+3     :     0.078427
      f-3     :     0.205018

  6 C s       :     2.495204  s :     2.495204
      pz      :     0.514650  p :     2.189533
      px      :     0.820874
      py      :     0.854009
      dz2     :     0.101592  d :     1.215252
      dxz     :     0.125247
      dyz     :     0.199020
      dx2y2   :     0.404149
      dxy     :     0.385245
      f0      :     0.042136  f :     0.633542
      f+1     :     0.035032
      f-1     :     0.042565
      f+2     :     0.064064
      f-2     :     0.068428
      f+3     :     0.126132
      f-3     :     0.255186

  7 O s       :     3.180970  s :     3.180970
      pz      :     1.134631  p :     4.015447
      px      :     1.452727
      py      :     1.428088
      dz2     :     0.027812  d :     0.230354
      dxz     :     0.010893
      dyz     :     0.025834
      dx2y2   :     0.087605
      dxy     :     0.078210
      f0      :     0.005057  f :     0.078477
      f+1     :     0.004028
      f-1     :     0.008775
      f+2     :     0.003916
      f-2     :     0.007433
      f+3     :     0.017201
      f-3     :     0.032068

  8 C s       :     2.460963  s :     2.460963
      pz      :     0.773705  p :     2.305119
      px      :     0.770321
      py      :     0.761093
      dz2     :     0.084186  d :     0.474944
      dxz     :     0.026962
      dyz     :     0.116789
      dx2y2   :     0.144129
      dxy     :     0.102879
      f0      :     0.012229  f :     0.180636
      f+1     :     0.015872
      f-1     :     0.030064
      f+2     :     0.017054
      f-2     :     0.018227
      f+3     :     0.030611
      f-3     :     0.056579

  9 H s       :     0.610118  s :     0.610118
      pz      :     0.127575  p :     0.317299
      px      :     0.091939
      py      :     0.097785
      dz2     :     0.077865  d :     0.227082
      dxz     :     0.042055
      dyz     :     0.046775
      dx2y2   :     0.030142
      dxy     :     0.030245

 10 H s       :     0.629700  s :     0.629700
      pz      :     0.085933  p :     0.313365
      px      :     0.139659
      py      :     0.087773
      dz2     :     0.016509  d :     0.230797
      dxz     :     0.071427
      dyz     :     0.013850
      dx2y2   :     0.049465
      dxy     :     0.079547

 11 H s       :     0.610141  s :     0.610141
      pz      :     0.127340  p :     0.317355
      px      :     0.092105
      py      :     0.097910
      dz2     :     0.077940  d :     0.227117
      dxz     :     0.041708
      dyz     :     0.046559
      dx2y2   :     0.030444
      dxy     :     0.030466

 12 H s       :     0.632466  s :     0.632466
      pz      :     0.075166  p :     0.309854
      px      :     0.110870
      py      :     0.123819
      dz2     :     0.024245  d :     0.223795
      dxz     :     0.019312
      dyz     :     0.044875
      dx2y2   :     0.079754
      dxy     :     0.055608

 13 H s       :     0.643353  s :     0.643353
      pz      :     0.073416  p :     0.309639
      px      :     0.113209
      py      :     0.123013
      dz2     :     0.026866  d :     0.229697
      dxz     :     0.019914
      dyz     :     0.043286
      dx2y2   :     0.081219
      dxy     :     0.058413

 14 N s       :     2.678931  s :     2.678931
      pz      :     0.813053  p :     2.859491
      px      :     1.009453
      py      :     1.036985
      dz2     :     0.119243  d :     1.528832
      dxz     :     0.128391
      dyz     :     0.316839
      dx2y2   :     0.497484
      dxy     :     0.466875
      f0      :     0.026817  f :     0.681400
      f+1     :     0.028028
      f-1     :     0.051536
      f+2     :     0.050876
      f-2     :     0.103149
      f+3     :     0.135445
      f-3     :     0.285549

 15 O s       :     3.224001  s :     3.224001
      pz      :     1.195985  p :     3.950019
      px      :     1.453452
      py      :     1.300582
      dz2     :     0.036645  d :     0.292777
      dxz     :     0.014002
      dyz     :     0.059020
      dx2y2   :     0.093709
      dxy     :     0.089401
      f0      :     0.011125  f :     0.114408
      f+1     :     0.005053
      f-1     :     0.011636
      f+2     :     0.010980
      f-2     :     0.012742
      f+3     :     0.022360
      f-3     :     0.040512

 16 O s       :     3.223990  s :     3.223990
      pz      :     1.195132  p :     3.949687
      px      :     1.451732
      py      :     1.302824
      dz2     :     0.036616  d :     0.292821
      dxz     :     0.014385
      dyz     :     0.058612
      dx2y2   :     0.093880
      dxy     :     0.089328
      f0      :     0.011130  f :     0.114494
      f+1     :     0.005140
      f-1     :     0.011556
      f+2     :     0.010586
      f-2     :     0.013154
      f+3     :     0.022190
      f-3     :     0.040739

 17 H s       :     0.644786  s :     0.644786
      pz      :     0.073494  p :     0.309615
      px      :     0.113614
      py      :     0.122508
      dz2     :     0.026732  d :     0.229190
      dxz     :     0.020434
      dyz     :     0.042687
      dx2y2   :     0.081110
      dxy     :     0.058227

 18 H s       :     0.640389  s :     0.640389
      pz      :     0.072650  p :     0.310622
      px      :     0.114757
      py      :     0.123216
      dz2     :     0.026955  d :     0.228300
      dxz     :     0.020314
      dyz     :     0.042257
      dx2y2   :     0.081152
      dxy     :     0.057624



                      *****************************
                      * MAYER POPULATION ANALYSIS *
                      *****************************

  NA   - Mulliken gross atomic population
  ZA   - Total nuclear charge
  QA   - Mulliken gross atomic charge
  VA   - Mayer's total valence
  BVA  - Mayer's bonded valence
  FA   - Mayer's free valence

  ATOM       NA         ZA         QA         VA         BVA        FA
  0 C      6.9131     6.0000    -0.9131     2.3048     2.3048    -0.0000
  1 C      6.3344     6.0000    -0.3344     2.1808     2.1808    -0.0000
  2 C      5.4942     6.0000     0.5058     3.2046     3.2046    -0.0000
  3 C      6.5850     6.0000    -0.5850     1.9068     1.9068    -0.0000
  4 C      6.3593     6.0000    -0.3593     2.0698     2.0698     0.0000
  5 C      4.7812     6.0000     1.2188     1.6222     1.6222    -0.0000
  6 C      5.2172     6.0000     0.7828     2.5984     2.5984     0.0000
  7 O      8.9600     8.0000    -0.9600     1.1172     1.1172    -0.0000
  8 C      6.5893     6.0000    -0.5893     3.8447     3.8447    -0.0000
  9 H      0.7370     1.0000     0.2630     0.9305     0.9305     0.0000
 10 H      0.8279     1.0000     0.1721     1.0205     1.0205    -0.0000
 11 H      0.7376     1.0000     0.2624     0.9312     0.9312    -0.0000
 12 H      0.9544     1.0000     0.0456     1.1428     1.1428     0.0000
 13 H      0.5303     1.0000     0.4697     0.5814     0.5814     0.0000
 14 N      6.2119     7.0000     0.7881     2.7728     2.7728    -0.0000
 15 O      8.6822     8.0000    -0.6822     1.2264     1.2264    -0.0000
 16 O      8.6829     8.0000    -0.6829     1.2339     1.2339     0.0000
 17 H      0.4766     1.0000     0.5234     0.4676     0.4676     0.0000
 18 H      0.9253     1.0000     0.0747     1.1890     1.1890     0.0000

  Mayer bond orders larger than 0.100000
B(  0-C ,  1-C ) :   1.2507 B(  0-C ,  2-C ) :  -0.3566 B(  0-C ,  4-C ) :  -0.3542 
B(  0-C ,  5-C ) :   0.2930 B(  0-C ,  6-C ) :   0.2582 B(  0-C , 18-H ) :   1.1771 
B(  1-C ,  2-C ) :   0.9161 B(  1-C ,  4-C ) :  -0.1372 B(  1-C ,  5-C ) :   0.1811 
B(  1-C , 14-N ) :  -0.1419 B(  1-C , 17-H ) :   0.4050 B(  2-C ,  3-C ) :   0.7588 
B(  2-C ,  4-C ) :  -0.2793 B(  2-C , 14-N ) :   1.1811 B(  2-C , 15-O ) :   0.4040 
B(  2-C , 16-O ) :   0.4059 B(  3-C ,  4-C ) :   0.8274 B(  3-C ,  5-C ) :   0.2196 
B(  3-C , 13-H ) :   0.4733 B(  3-C , 14-N ) :  -0.2156 B(  4-C ,  5-C ) :   0.5532 
B(  4-C ,  6-C ) :   0.1221 B(  4-C , 12-H ) :   1.3345 B(  5-C ,  6-C ) :   0.3310 
B(  5-C ,  7-O ) :   0.1992 B(  5-C , 12-H ) :  -0.1795 B(  5-C , 18-H ) :  -0.1351 
B(  6-C ,  7-O ) :   0.8413 B(  6-C ,  8-C ) :   0.9341 B(  7-O , 18-H ) :   0.1524 
B(  8-C ,  9-H ) :   0.9504 B(  8-C , 10-H ) :   0.9557 B(  8-C , 11-H ) :   0.9512 
B( 14-N , 15-O ) :   0.9433 B( 14-N , 16-O ) :   0.9447 B( 15-O , 16-O ) :   0.1789 


-------
TIMINGS
-------

Total SCF time: 0 days 0 hours 6 min 6 sec 

Total time                  ....     366.676 sec
Sum of individual times     ....     366.094 sec  ( 99.8%)

SCF preparation             ....       1.074 sec  (  0.3%)
Fock matrix formation       ....     354.033 sec  ( 96.6%)
  Startup                   ....       0.772 sec  (  0.2% of F)
  Split-RI-J                ....      20.820 sec  (  5.9% of F)
  Chain of spheres X        ....     210.632 sec  ( 59.5% of F)
  XC integration            ....     111.298 sec  ( 31.4% of F)
    XC Preparation          ....       0.000 sec  (  0.0% of XC)
    Basis function eval.    ....      10.839 sec  (  9.7% of XC)
    Density eval.           ....      33.261 sec  ( 29.9% of XC)
    XC-Functional eval.     ....       1.573 sec  (  1.4% of XC)
    XC-Potential eval.      ....      62.157 sec  ( 55.8% of XC)
  CPCM terms                ....       8.390 sec  (  2.4% of F)
Diagonalization             ....       0.000 sec  (  0.0%)
Density matrix formation    ....       1.641 sec  (  0.4%)
Total Energy calculation    ....       0.866 sec  (  0.2%)
Population analysis         ....       0.279 sec  (  0.1%)
Orbital Transformation      ....       0.586 sec  (  0.2%)
Orbital Orthonormalization  ....       0.000 sec  (  0.0%)
DIIS solution               ....       6.546 sec  (  1.8%)
SOSCF solution              ....       1.068 sec  (  0.3%)
Finished LeanSCF after 366.9 sec

Maximum memory used throughout the entire LEANSCF-calculation: 113.0 MB


-------------------------------------------------------------------------------
                          DFT DISPERSION CORRECTION                            
                                                                               
                              DFTD3 V3.1  Rev 1                                
                          USING Becke-Johnson damping                          
-------------------------------------------------------------------------------
The R2SCANh functional is recognized
Active option DFTDOPT                   ...         4   

molecular C6(AA) [au] = 4373.834927 


            DFT-D V3
 parameters
 s6 scaling factor         :     1.0000 
 a1 scaling factor         :     0.4709 
 s8 scaling factor         :     1.1236 
 a2 scaling factor         :     5.9157 
 ad hoc parameters k1-k3   :    16.0000     1.3333    -4.0000 

 Edisp/kcal,au: -4.132401133581  -0.006585399685 
 E6   /kcal   :  -2.972903403 
 E8   /kcal   :  -1.159497731 
 % E8         :  28.058692592 

-------------------------   ----------------
Dispersion correction           -0.006585400
-------------------------   ----------------


-------------------------   --------------------
FINAL SINGLE POINT ENERGY      -589.297713949192
-------------------------   --------------------



           ************************************************************
           *        Program running with 4 parallel MPI-processes     *
           *              working on a common directory               *
           ************************************************************

------------------------------------------------------------------------------
                              ORCA PROPERTY CALCULATIONS
------------------------------------------------------------------------------

GBWName                                 ... cs_rporg_150_ox_solv_04.gbw
Number of atoms                         ...     19
Number of basis functions               ...    785
Max core memory                         ...   3000 MB

Electric properties:
Dipole moment                           ... YES
Quadrupole moment                       ...  NO
Static polarizability (Dipole/Dipole)   ...  NO
Static polarizability (Dipole/Quad.)    ...  NO
Static polarizability (Quad./Quad.)     ...  NO
Static polarizability (Velocity)        ...  NO

Atomic electric properties:
Dipole moment                           ...  NO
Quadrupole moment                       ...  NO
Static polarizability                   ...  NO

Choice of electric origin               ... Center of mass
Position of electric origin             ...    -0.012445    -0.002909    -0.001293

General magnetic properties:
Magnetizability                         ...  NO

EPR properties:
g-Tensor (aka g-matrix)                 ...  NO
Zero-Field splitting spin-orbit         ...  NO
Zero-field splitting spin-spin          ...  NO
Hyperfine couplings                     ...  NO (   0 nuclei)
Quadrupole couplings                    ...  NO (   0 nuclei)
Contact density                         ...  NO (   0 nuclei)

NMR properties:
Chemical shifts                         ...  NO (   0 nuclei)
Spin-rotation constants                 ...  NO (   0 nuclei)
Spin-spin couplings                     ...  NO (   0 nuclei,    0 pairs)

Choice of magnetic origin               ... GIAO
Position of magnetic origin             ...     0.000000     0.000000     0.000000

Properties with geometric perturbations:
SCF Hessian                             ...  NO
IR spectrum                             ...  NO
VCD spectrum                            ...  NO
X-ray spectroscopy properties:
SCF XES/XAS/RIXS spectra                ...  NO


-------------
DIPOLE MOMENT
-------------

Method             : SCF
Type of density    : Electron Density
Multiplicity       :   1
Irrep              :   0
Energy             :  -589.2911285495073344 Eh
Relativity type    : 
Basis              : AO
                                X                 Y                 Z
Electronic contribution:     -9.518766368      -2.970324831       0.006438028
Nuclear contribution   :     10.904698351       4.303144091      -0.007859468
                        -----------------------------------------
Total Dipole Moment    :      1.385931984       1.332819261      -0.001421440
                        -----------------------------------------
Magnitude (a.u.)       :      1.922814777
Magnitude (Debye)      :      4.887406753



--------------------
Rotational spectrum 
--------------------
 
Rotational constants in cm-1:             0.096505             0.015902             0.013688 
Rotational constants in MHz :          2893.160990           476.718240           410.340998 

Dipole components along the rotational axes: 
x,y,z [a.u.] :    -1.388703     1.329933    -0.000955 
x,y,z [Debye]:    -3.529802     3.380420    -0.002426 

 

Dipole moment calculation done in   0.1 sec 

Maximum memory used throughout the entire PROP-calculation: 67.3 MB

--------------------------------
SUGGESTED CITATIONS FOR THIS RUN
--------------------------------

Below you find a list of papers that are relevant to this ORCA run
We neither can nor want to force you to cite these papers, but we appreciate if you do
You receive ORCA, which is the product of decades of hard work by many enthusiastic individuals, for free
The only thing we kindly ask in return is that you cite our papers,
We deeply appreciate it, if you show your appreciation for ORCA by not just citing the generic ORCA reference.

Please note that relegating all ORCA citations to the supporting information does *not* help us.
SI sections are not indexed - citations you put there will not count into any citation statistics
But we need these citations in order to attract the funding resources that allow us to do what we are doing

Therefore, if you are a happy ORCA user, please consider citing a few of the papers listed below in the main body of your paper

In addition to the list printed below, the program has created the file cs_rporg_150_ox_solv_04.bibtex that contains the list in bibtex format
You can import this file easily into all common literature databanks and citation aid programs


List of essential papers. We consider these as the minimum necessary citations

  1. Neese,F.
     Software update: the ORCA program system, version 5.0
     WIRES Comput. Molec. Sci., 2022 12(1)e1606
     doi.org/10.1002/wcms.1606

List of papers to cite with high priority. The work reported in these papers was absolutely
necessary for this run to complete.
Our perspective: the developers of density functionals and basis sets usually get cited in chemistry papers
Good! But without the algorithms to do something with them, the functionals or basis sets would not do anything.
Hence, in our opinion, the algorithm design and method developments papers are equally worthy of getting cited

  1. Neese,F.
     An improvement of the resolution of the identity approximation for the formation of the Coulomb matrix
     J. Comp. Chem., 2003 24(14)1740-1747
     doi.org/10.1002/jcc.10318
  2. Neese,F.; Wennmohs,F.; Hansen,A.; Becker,U.
     Efficient, approximate and parallel Hartree-Fock and hybrid DFT calculations. A 'chain-of-spheres' algorithm for the Hartree-Fock exchange
     Chem. Phys., 2009 356(1-3)98-109
     doi.org/10.1016/j.chemphys.2008.10.036
  3. Garcia-Rates,M.; Neese,F.
     Effect of the Solute Cavity on the Solvation Energy and its Derivatives within the Framework of the Gaussian Charge Scheme
     J. Comput. Chem., 2020 41 922-939
     doi.org/10.1002/jcc.26139
  4. Helmich-Paris,B.; de Souza,B.; Neese,F.; Izsák,R.
     An improved chain of spheres for exchange algorithm
     J. Chem. Phys., 2021 155 104109
     doi.org/doi: 10.1063/5.0058766.
  5. Neese,F.
     The SHARK Integral Generation and Digestion System
     J. Comp. Chem., 2022  1-16
     doi.org/10.1002/jcc.26942
  6. Lehtola,S.; Steigemann,C.; Oliveira,M.; Marques,M.
     Recent developments in Libxc - A comprehensive library of functionals for density functional theory
     Software X, 2018 7 
     doi.org/10.1016/j.softx.2017.11.002
  7. Grimme,S.; Antony,J.; Ehrlich,S.; Krieg,H.
     A consistent and accurate ab initio parametrization of density functional dispersion correction (DFT-D) for the 94 elements H-Pu
     J. Chem. Phys., 2010 132 154104-XXXX
     doi.org/10.1063/1.3382344
  8. Grimme,S.; Ehrlich,S.; Goerigk,L.
     Effect of the damping function in dispersion corrected density functional theory
     J. Comput. Chem., 2011 32(7)1456-1465
     doi.org/10.1002/jcc.21759
  9. Bursch,M.; Neugebauer,H.; Ehlert,S.; Grimme,S.
     Dispersion corrected r2SCAN based global hybrid functionals: r2SCANh, r2SCAN0, and r2SCAN50
     J. Phys. Chem., 2022 156(13)134105
     doi.org/10.1063/5.0086040

List of suggested additional citations. These are papers that are important in the 'surrounding' of 
of this run, or papers that preceded the highly important papers. If you like your results we are grateful for a citation.

  1. Izsak,R.; Neese,F.
     An overlap fitted chain of spheres exchange method
     J. Chem. Phys., 2011 135 144105
     doi.org/10.1063/1.3646921
  2. Izsak,R.; Hansen,A.; Neese,F.
     The resolution of identity and chain of spheres approximations for the LPNO-CCSD singles Fock term
     Molec. Phys., 2012 110 2413-2417
     doi.org/10.1080/00268976.2012.687466
  3. Neese,F.
     The ORCA program system
     WIRES Comput. Molec. Sci., 2012 2(1)73-78
     doi.org/10.1002/wcms.81
  4. Izsak,R.; Neese,F.; Klopper,W.
     Robust fitting techniques in the chain of spheres approximation to the Fock exchange: The role of the complementary space
     J. Chem. Phys., 2013 139 
     doi.org/10.1063/1.4819264
  5. Neese,F.
     Software update: the ORCA program system, version 4.0
     WIRES Comput. Molec. Sci., 2018 8(1)1-6
     doi.org/10.1002/wcms.1327
  6. Neese,F.; Wennmohs,F.; Becker,U.; Riplinger,C.
     The ORCA quantum chemistry program package
     J. Chem. Phys., 2020 152 Art. No. L224108
     doi.org/10.1063/5.0004608
  7. Wittmann,L.; Neugebauer,H.; Grimme,S.; Bursch,M.
     Dispersion-corrected r2SCAN based double-hybrid functionals
     J. Chem. Phys., 2023 159(22)224103
     doi.org/10.1063/5.0174988

List of optional additional citations

  1. Neese,F.
     Approximate second-order SCF convergence for spin unrestricted wavefunctions
     Chem. Phys. Lett., 2000 325(1-3)93-98
     doi.org/10.1016/s0009-2614(00)00662-x

Timings for individual modules:

Sum of individual times          ...      385.381 sec (=   6.423 min)
Startup calculation              ...       11.232 sec (=   0.187 min)   2.9 %
SCF iterations                   ...      372.336 sec (=   6.206 min)  96.6 %
Property calculations            ...        1.812 sec (=   0.030 min)   0.5 %
                             ****ORCA TERMINATED NORMALLY****
TOTAL RUN TIME: 0 days 0 hours 6 minutes 27 seconds 967 msec
