
                                 *****************
                                 * O   R   C   A *
                                 *****************

                                            #,                                       
                                            ###                                      
                                            ####                                     
                                            #####                                    
                                            ######                                   
                                           ########,                                 
                                     ,,################,,,,,                         
                               ,,#################################,,                 
                          ,,##########################################,,             
                       ,#########################################, ''#####,          
                    ,#############################################,,   '####,        
                  ,##################################################,,,,####,       
                ,###########''''           ''''###############################       
              ,#####''   ,,,,##########,,,,          '''####'''          '####       
            ,##' ,,,,###########################,,,                        '##       
           ' ,,###''''                  '''############,,,                           
         ,,##''                                '''############,,,,        ,,,,,,###''
      ,#''                                            '''#######################'''  
     '                                                          ''''####''''         
             ,#######,   #######,   ,#######,      ##                                
            ,#'     '#,  ##    ##  ,#'     '#,    #''#        ,####,   ,####,        
            ##       ##  ##   ,#'  ##            #'  '#       #'       #'  '#        
            ##       ##  #######   ##           ,######,      #####,   #    #        
            '#,     ,#'  ##    ##  '#,     ,#' ,#      #,     #,   #   #,  ,#        
             '#######'   ##     ##  '#######'  #'      '#     '####' # '####'        



                #########################################################
                #                        -***-                          #
                #          Department of theory and spectroscopy        #
                #                                                       #
                #                      Frank Neese                      #
                #                                                       #
                #     Directorship, Architecture, Infrastructure        #
                #                    SHARK, DRIVERS                     #
                #        Core code/Algorithms in most modules           #
                #                                                       #
                #        Max Planck Institute fuer Kohlenforschung      #
                #                Kaiser Wilhelm Platz 1                 #
                #                 D-45470 Muelheim/Ruhr                 #
                #                      Germany                          #
                #                                                       #
                #                  All rights reserved                  #
                #                        -***-                          #
                #########################################################


                         Program Version 6.0.0  -   RELEASE  -


 With contributions from (in alphabetic order):
   Daniel Aravena         : Magnetic Suceptibility
   Michael Atanasov       : Ab Initio Ligand Field Theory (pilot matlab implementation)
   Alexander A. Auer      : GIAO ZORA, VPT2 properties, NMR spectrum
   Ute Becker             : All parallelization in ORCA, NUMFREQ, NUMCALC
   Giovanni Bistoni       : ED, misc. LED, open-shell LED, HFLD
   Martin Brehm           : Molecular dynamics
   Dmytro Bykov           : pre 5.0 version of the SCF Hessian
   Marcos Casanova-Páez   : Triplet and SCS-CIS(D). UHF-(DLPNO)-IP/EA/STEOM-CCSD. UHF-CVS-IP/STEOM-CCSD
   Vijay G. Chilkuri      : MRCI spin determinant printing, contributions to CSF-ICE
   Pauline Colinet        : FMM embedding
   Dipayan Datta          : RHF DLPNO-CCSD density
   Achintya Kumar Dutta   : EOM-CC, STEOM-CC
   Nicolas Foglia         : Exact transition moments, OPA infrastructure, MCD improvements
   Dmitry Ganyushin       : Spin-Orbit,Spin-Spin,Magnetic field MRCI
   Miquel Garcia          : C-PCM and meta-GGA Hessian, CCSD/C-PCM, Gaussian charge scheme
   Tiago L. C. Gouveia    : GS-ROHF, GS-ROCIS
   Yang Guo               : DLPNO-NEVPT2, F12-NEVPT2, CIM, IAO-localization
   Andreas Hansen         : Spin unrestricted coupled pair/coupled cluster methods
   Ingolf Harden          : AUTO-CI MPn and infrastructure 
   Benjamin Helmich-Paris : MC-RPA, TRAH-(SCF,CASSCF), AVAS, COSX integrals, SCF dyn. polar.
   Lee Huntington         : MR-EOM, pCC
   Robert Izsak           : Overlap fitted RIJCOSX, COSX-SCS-MP3, EOM
   Riya Kayal             : Wick's Theorem for AUTO-CI, AUTO-CI UHF-CCSDT
   Emily Kempfer          : AUTO-CI, RHF CISDT and CCSDT
   Christian Kollmar      : KDIIS, OOCD, Brueckner-CCSD(T), CCSD density, CASPT2, CASPT2-K, improved NEVPT2
   Axel Koslowski         : Symmetry handling
   Simone Kossmann        : Meta GGA functionals, TD-DFT gradient, OOMP2, (MP2 Hessian; deprecated post 5.0)
   Lucas Lang             : DCDCAS
   Marvin Lechner         : AUTO-CI (C++ implementation), FIC-MRCC
   Spencer Leger          : CASSCF response
   Dagmar Lenk            : GEPOL surface, SMD, ORCA-2-JSON
   Dimitrios Liakos       : Extrapolation schemes; Compound Job, initial MDCI parallelization
   Dimitrios Manganas     : Further ROCIS development; embedding schemes. LFT, Crystal Embedding
   Dimitrios Pantazis     : SARC Basis sets
   Anastasios Papadopoulos: AUTO-CI, single reference methods and gradients
   Taras Petrenko         : pre 6.0 DFT Hessian and TD-DFT gradient, (ASA, deprecated), ECA, 1-Electron XAS/XES, NRVS
   Peter Pinski           : DLPNO-MP2, DLPNO-MP2 Gradient
   Christoph Reimann      : Effective Core Potentials
   Marius Retegan         : Local ZFS, SOC
   Christoph Riplinger    : Optimizer, TS searches, QM/MM, DLPNO-CCSD(T), (RO)-DLPNO pert. Triples
   Michael Roemelt        : Original ROCIS implementation
   Masaaki Saitow         : Open-shell DLPNO-CCSD energy and density
   Barbara Sandhoefer     : DKH picture change effects
   Kantharuban Sivalingam : CASSCF convergence/infrastructure, NEVPT2 and variants, FIC-MRCI
   Bernardo de Souza      : ESD, SOC TD-DFT
   Georgi Stoychev        : AutoAux, RI-MP2 NMR, DLPNO-MP2 response, X2C
   Van Anh Tran           : RI-MP2 g-tensors
   Willem Van den Heuvel  : Paramagnetic NMR
   Zikuan Wang            : NOTCH, Electric field optimization 
   Frank Wennmohs         : Technical directorship and infrastructure
   Hang Xu                : AUTO-CI-Response properties 


 We gratefully acknowledge several colleagues who have allowed us to
 interface, adapt or use parts of their codes:
   Stefan Grimme, W. Hujo, H. Kruse, P. Pracht,  : VdW corrections, initial TS optimization,
                  C. Bannwarth, S. Ehlert,         DFT functionals, gCP, sTDA/sTD-DF
                  L. Wittmann, M. Mueller
   Ed Valeev, F. Pavosevic, A. Kumar             : LibInt (2-el integral package), F12 methods
   Garnet Chan, S. Sharma, J. Yang, R. Olivares  : DMRG
   Ulf Ekstrom                                   : XCFun DFT Library
   Mihaly Kallay                                 : mrcc  (arbitrary order and MRCC methods)
   Frank Weinhold                                : gennbo (NPA and NBO analysis)
   Simon Mueller                                 : openCOSMO-RS
   Christopher J. Cramer and Donald G. Truhlar   : smd solvation model
   Lars Goerigk                                  : TD-DFT with DH, B97 family of functionals
   V. Asgeirsson, H. Jonsson                     : NEB implementation
   FAccTs GmbH                                   : IRC, NEB, NEB-TS, DLPNO-Multilevel, CI-OPT
                                                   MM, QMMM, 2- and 3-layer-ONIOM, Crystal-QMMM,
                                                   LR-CPCM, SF, NACMEs, symmetry and pop. for TD-DFT,
                                                   nearIR, NL-DFT gradient (VV10), updates on ESD,
                                                   ML-optimized integration grids, MBIS, APM,
                                                   GOAT, DOCKER, SOLVATOR, interface openCOSMO-RS
   S Lehtola, MJT Oliveira, MAL Marques          : LibXC Library
   Liviu Ungur et al                             : ANISO software


 Your calculation uses the libint2 library for the computation of 2-el integrals
 For citations please refer to: http://libint.valeyev.net

 Your ORCA version has been built with support for libXC version: 6.2.2
 For citations please refer to: https://libxc.gitlab.io

 This ORCA versions uses:
   CBLAS   interface :  Fast vector & matrix operations
   LAPACKE interface :  Fast linear algebra routines
   SCALAPACK package :  Parallel linear algebra routines
   Shared memory     :  Shared parallel matrices
   BLAS/LAPACK       :  OpenBLAS 0.3.27  USE64BITINT DYNAMIC_ARCH NO_AFFINITY Sandybridge SINGLE_THREADED
        Core in use  :  Sandybridge
   Copyright (c) 2011-2014, The OpenBLAS Project


NOTE: MaxCore=5000 MB was set to SCF,MP2,MDCI,CIPSI,MRCI and CIS
      => If you want to overwrite this, your respective input block should be placed after the MaxCore statement
Your calculation utilizes the atom-pairwise dispersion correction
with the Becke-Johnson damping scheme (D3BJ)


Your calculation utilizes the SMD solvation module
Please cite in your paper:
A.V. Marenich, C.J. Cramer, D.G. Truhlar J. Phys. Chem. B, 113, (2009), 6378 

Warning: RI is on but no J-basis has been assigned. Assigning Def2/J (nothing to worry about!)
================================================================================

----- Orbital basis set information -----
Your calculation utilizes the basis: aug-cc-pVTZ 
    H, B-Ne : Obtained from the ccRepo (grant-hill.group.shef.ac.uk/ccrepo) Feb. 2017
              R. A. Kendall, T. H. Dunning, Jr., R. J. Harrison, J. Chem. Phys. 96, 6796 (1992)
         He : Obtained from the ccRepo (grant-hill.group.shef.ac.uk/ccrepo) Feb. 2017
              D. E. Woon, T. H. Dunning, Jr., J. Chem. Phys. 100, 2975 (1994)
  Li-Be, Na : Obtained from the ccRepo (grant-hill.group.shef.ac.uk/ccrepo) Feb. 2017
              B. P. Prascher, D. E. Woon, K. A. Peterson, T. H. Dunning, Jr., A. K. Wilson, Theor. Chem. Acc. 128, 69 (2011)
         Mg : Obtained from the Peterson Research Group Website (tyr0.chem.wsu.edu/~kipeters) Feb. 2017
              B. P. Prascher, D. E. Woon, K. A. Peterson, T. H. Dunning, Jr., A. K. Wilson, Theor. Chem. Acc. 128, 69 (2011)
      Al-Ar : Obtained from the ccRepo (grant-hill.group.shef.ac.uk/ccrepo) Feb. 2017
              D. E. Woon, T. H. Dunning, Jr., J. Chem. Phys. 98, 1358 (1993)
      Sc-Zn : Obtained from the ccRepo (grant-hill.group.shef.ac.uk/ccrepo) Feb. 2017
              N. B. Balabanov, K. A. Peterson, J. Chem. Phys. 123, 064107 (2005)
              N. B. Balabanov, K. A. Peterson, J. Chem. Phys. 125, 074110 (2006)
      Ga-Kr : Obtained from the ccRepo (grant-hill.group.shef.ac.uk/ccrepo) Feb. 2017
              A. K. Wilson, D. E. Woon, K. A. Peterson, T. H. Dunning, Jr., J. Chem. Phys. 110, 7667 (1999)
     Ag, Au : Obtained from the Peterson Research Group Website (tyr0.chem.wsu.edu/~kipeters) Feb. 2017
              K. A. Peterson, C. Puzzarini, Theor. Chem. Acc. 114, 283 (2005)

----- AuxJ basis set information -----
Your calculation utilizes the auxiliary basis: def2/J
   F. Weigend, Phys. Chem. Chem. Phys. 8, 1057 (2006).

================================================================================
                                        WARNINGS
                       Please study these warnings very carefully!
================================================================================


================================================================================
                                       INPUT FILE
================================================================================
NAME = cs_rporg_075_red_freq_04.inp
|  1> !PBE0 freq aug-cc-pVTZ d3 TightSCF SlowConv RIJCOSX defgrid2
|  2> 
|  3> %pal
|  4> nprocs 12
|  5> end
|  6> 
|  7> %scf
|  8> MaxIter 1500
|  9> end
| 10> 
| 11> %maxcore 5000
| 12> 
| 13> !CPCM
| 14> %cpcm smd true
| 15> SMDsolvent "MeCN"
| 16> surfacetype gepol_ses
| 17> rsolv 2.19
| 18> end 
| 19> 
| 20> * xyz 0 1
| 21> C          -0.22983211321702     -1.20194257603856      0.00351352012413
| 22> C           1.15543552951121     -1.19585651940848      0.00045961987021
| 23> C           1.86305968046567     -0.00003049952250      0.00007644300944
| 24> C           1.15546534479285      1.19581293104285      0.00046174705532
| 25> C          -0.22980188668804      1.20193455065085      0.00350388702629
| 26> C          -0.94559301604926      0.00000462894661      0.00621485448622
| 27> N          -2.32621482223375      0.00001895339373      0.06731393986084
| 28> H          -2.77700799581236      0.83683156335856     -0.26732606695235
| 29> H          -2.77702539154728     -0.83677747687214     -0.26734569558773
| 30> H          -0.77055034504545      2.14217483039747      0.00344221671250
| 31> H           1.68721875648181      2.14048334391505     -0.00399828902379
| 32> H           2.94585190028097     -0.00004371163066     -0.00364313978631
| 33> H           1.68716382779197     -2.14054174861579     -0.00400836037890
| 34> H          -0.77059986873133     -2.14216926961698      0.00345902358411
| 35> *
| 36> 
| 37>                          ****END OF INPUT****
================================================================================

                       ****************************
                       * Single Point Calculation *
                       ****************************

---------------------------------
CARTESIAN COORDINATES (ANGSTROEM)
---------------------------------
  C     -0.229832   -1.201943    0.003514
  C      1.155436   -1.195857    0.000460
  C      1.863060   -0.000030    0.000076
  C      1.155465    1.195813    0.000462
  C     -0.229802    1.201935    0.003504
  C     -0.945593    0.000005    0.006215
  N     -2.326215    0.000019    0.067314
  H     -2.777008    0.836832   -0.267326
  H     -2.777025   -0.836777   -0.267346
  H     -0.770550    2.142175    0.003442
  H      1.687219    2.140483   -0.003998
  H      2.945852   -0.000044   -0.003643
  H      1.687164   -2.140542   -0.004008
  H     -0.770600   -2.142169    0.003459

----------------------------
CARTESIAN COORDINATES (A.U.)
----------------------------
  NO LB      ZA    FRAG     MASS         X           Y           Z
   0 C     6.0000    0    12.011   -0.434320   -2.271342    0.006640
   1 C     6.0000    0    12.011    2.183457   -2.259841    0.000869
   2 C     6.0000    0    12.011    3.520673   -0.000058    0.000144
   3 C     6.0000    0    12.011    2.183513    2.259759    0.000873
   4 C     6.0000    0    12.011   -0.434263    2.271327    0.006621
   5 C     6.0000    0    12.011   -1.786912    0.000009    0.011744
   6 N     7.0000    0    14.007   -4.395909    0.000036    0.127205
   7 H     1.0000    0     1.008   -5.247785    1.581382   -0.505173
   8 H     1.0000    0     1.008   -5.247817   -1.581280   -0.505210
   9 H     1.0000    0     1.008   -1.456129    4.048124    0.006505
  10 H     1.0000    0     1.008    3.188381    4.044927   -0.007556
  11 H     1.0000    0     1.008    5.566853   -0.000083   -0.006885
  12 H     1.0000    0     1.008    3.188278   -4.045038   -0.007575
  13 H     1.0000    0     1.008   -1.456223   -4.048113    0.006537

--------------------------------
INTERNAL COORDINATES (ANGSTROEM)
--------------------------------
 C      0   0   0     0.000000000000     0.00000000     0.00000000
 C      1   0   0     1.385284378163     0.00000000     0.00000000
 C      2   1   0     1.389507810584   120.86639425     0.00000000
 C      3   2   1     1.389507611624   118.77198500   359.88909326
 C      4   3   2     1.385284097742   120.86644224     0.11033964
 C      1   2   3     1.398927464453   120.52226123     0.00000000
 N      6   1   2     1.381973107608   120.74671054   182.80144338
 H      7   6   1     1.007697257961   115.60974138   201.56464721
 H      7   6   1     1.007698122807   115.60966507   335.67483343
 H      5   4   3     1.084647722847   120.15705769   180.02017820
 H      4   3   2     1.084058933694   120.01126288   180.25465255
 H      3   2   1     1.082798608589   120.61387825   180.08163862
 H      2   1   3     1.084059559398   119.12207220   180.14286475
 H      1   2   3     1.084645565930   120.15682850   179.98037092

---------------------------
INTERNAL COORDINATES (A.U.)
---------------------------
 C      0   0   0     0.000000000000     0.00000000     0.00000000
 C      1   0   0     2.617808092327     0.00000000     0.00000000
 C      2   1   0     2.625789222949   120.86639425     0.00000000
 C      3   2   1     2.625788846969   118.77198500   359.88909326
 C      4   3   2     2.617807562409   120.86644224     0.11033964
 C      1   2   3     2.643589789038   120.52226123     0.00000000
 N      6   1   2     2.611550697823   120.74671054   182.80144338
 H      7   6   1     1.904271843449   115.60974138   201.56464721
 H      7   6   1     1.904273477772   115.60966507   335.67483343
 H      5   4   3     2.049687147962   120.15705769   180.02017820
 H      4   3   2     2.048574497712   120.01126288   180.25465255
 H      3   2   1     2.046192828425   120.61387825   180.08163862
 H      2   1   3     2.048575680122   119.12207220   180.14286475
 H      1   2   3     2.049683071979   120.15682850   179.98037092

---------------------
BASIS SET INFORMATION
---------------------
There are 3 groups of distinct atoms

 Group   1 Type C   : 19s6p3d2f contracted to 5s4p3d2f pattern {88111/3111/111/11}
 Group   2 Type N   : 19s6p3d2f contracted to 5s4p3d2f pattern {88111/3111/111/11}
 Group   3 Type H   : 6s3p2d contracted to 4s3p2d pattern {3111/111/11}

Atom   0C    basis set group =>   1
Atom   1C    basis set group =>   1
Atom   2C    basis set group =>   1
Atom   3C    basis set group =>   1
Atom   4C    basis set group =>   1
Atom   5C    basis set group =>   1
Atom   6N    basis set group =>   2
Atom   7H    basis set group =>   3
Atom   8H    basis set group =>   3
Atom   9H    basis set group =>   3
Atom  10H    basis set group =>   3
Atom  11H    basis set group =>   3
Atom  12H    basis set group =>   3
Atom  13H    basis set group =>   3
---------------------------------
AUXILIARY/J BASIS SET INFORMATION
---------------------------------
There are 3 groups of distinct atoms

 Group   1 Type C   : 12s5p4d2f1g contracted to 6s4p3d1f1g pattern {711111/2111/211/2/1}
 Group   2 Type N   : 12s5p4d2f1g contracted to 6s4p3d1f1g pattern {711111/2111/211/2/1}
 Group   3 Type H   : 5s2p1d contracted to 3s1p1d pattern {311/2/1}

Atom   0C    basis set group =>   1
Atom   1C    basis set group =>   1
Atom   2C    basis set group =>   1
Atom   3C    basis set group =>   1
Atom   4C    basis set group =>   1
Atom   5C    basis set group =>   1
Atom   6N    basis set group =>   2
Atom   7H    basis set group =>   3
Atom   8H    basis set group =>   3
Atom   9H    basis set group =>   3
Atom  10H    basis set group =>   3
Atom  11H    basis set group =>   3
Atom  12H    basis set group =>   3
Atom  13H    basis set group =>   3


           ************************************************************
           *        Program running with 12 parallel MPI-processes    *
           *              working on a common directory               *
           ************************************************************
------------------------------------------------------------------------------
                             ORCA STARTUP CALCULATIONS
                           -- RI-GTO INTEGRALS CHOSEN --
------------------------------------------------------------------------------
------------------------------------------------------------------------------
                   ___                                                        
                  /   \      - P O W E R E D   B Y -                         
                 /     \                                                     
                 |  |  |   _    _      __       _____    __    __             
                 |  |  |  | |  | |    /  \     |  _  \  |  |  /  |          
                  \  \/   | |  | |   /    \    | | | |  |  | /  /          
                 / \  \   | |__| |  /  /\  \   | |_| |  |  |/  /          
                |  |  |   |  __  | /  /__\  \  |    /   |      \           
                |  |  |   | |  | | |   __   |  |    \   |  |\   \          
                \     /   | |  | | |  |  |  |  | |\  \  |  | \   \       
                 \___/    |_|  |_| |__|  |__|  |_| \__\ |__|  \__/        
                                                                              
                      - O R C A' S   B I G   F R I E N D -                    
                                      &                                       
                       - I N T E G R A L  F E E D E R -                       
                                                                              
 v1 FN, 2020, v2 2021, v3 2022-2024                                           
------------------------------------------------------------------------------


----------------------
SHARK INTEGRAL PACKAGE
----------------------

Number of atoms                             ...     14
Number of basis functions                   ...    525
Number of shells                            ...    203
Maximum angular momentum                    ...      3
Integral batch strategy                     ... SHARK/LIBINT Hybrid
RI-J (if used) integral strategy            ... SPLIT-RIJ (Revised 2003 algorithm where possible)
Printlevel                                  ...      1
Contraction scheme used                     ... PARTIAL GENERAL contraction
Prescreening option                         ... SCHWARTZ
   Thresh                                   ... 2.500e-11
   Tcut                                     ... 2.500e-12
   Tpresel                                  ... 2.500e-12 
Coulomb Range Separation                    ... NOT USED
Exchange Range Separation                   ... NOT USED
Multipole approximations                    ... NOT USED
Finite Nucleus Model                        ... NOT USED
CABS basis                                  ... NOT available
Auxiliary Coulomb fitting basis             ... AVAILABLE
   # of basis functions in Aux-J            ...    420
   # of shells in Aux-J                     ...    140
   Maximum angular momentum in Aux-J        ...      4
Auxiliary J/K fitting basis                 ... NOT available
Auxiliary Correlation fitting basis         ... NOT available
Auxiliary 'external' fitting basis          ... NOT available

Checking pre-screening integrals            ... done (  0.9 sec) Dimension = 203
Save PGC pre-screening integrals            ... done (  1.0 sec) Dimension = 203
Calculate PGC overlap integrals             ... done (  1.1 sec) Dimension = 161
Calculating pre-screening integrals (ORCA)  ... done (  1.2 sec) Dimension = 161
Check shell pair data                       ... done (  0.7 sec)
Shell pair information
Shell pair cut-off parameter TPreSel        ...   2.5e-12
Total number of shell pairs                 ...     20706
Shell pairs after pre-screening             ...     18510
Total number of primitive shell pairs       ...     26838
Primitive shell pairs kept                  ...     22510
          la=0 lb=0:   4282 shell pairs
          la=1 lb=0:   4722 shell pairs
          la=1 lb=1:   1184 shell pairs
          la=2 lb=0:   3364 shell pairs
          la=2 lb=1:   1657 shell pairs
          la=2 lb=2:    610 shell pairs
          la=3 lb=0:   1423 shell pairs
          la=3 lb=1:    678 shell pairs
          la=3 lb=2:    485 shell pairs
          la=3 lb=3:    105 shell pairs

Calculating one electron integrals          ... done (  0.0 sec)
Calculating RI/J V-Matrix + Cholesky decomp.... done (  0.2 sec)
Calculating Nuclear repulsion               ... done (  0.0 sec) ENN=    272.505725514965 Eh

Diagonalization of the overlap matrix:
Smallest eigenvalue                        ... 6.644e-07
Time for diagonalization                   ...    0.074 sec
Threshold for overlap eigenvalues          ... 1.000e-07
Number of eigenvalues below threshold      ... 0

IMPORTANT:
Smallest eigenvalue of S below the DiffSThresh (1.000e-06) while
Thresh>1e-12 and/or TCut>1e-13! In order to avoid SCF convergence issues,
Thresh will be set to at least 1e-12 and TCut to at least 1e-13.
This can be turned off by adding %SCF DiffSThresh -1 END to the input.

Time for construction of square roots      ...    0.106 sec
Total time needed                          ...    0.833 sec

-------------------
DFT GRID GENERATION
-------------------

General Integration Accuracy     IntAcc      ... 4.388
Radial Grid Type                 RadialGrid  ... OptM3 with GC (2021)
Angular Grid (max. ang.)         AngularGrid ... 4 (Lebedev-302)
Angular grid pruning method      GridPruning ... 4 (adaptive)
Weight generation scheme         WeightScheme... mBecke (2022)
Basis function cutoff            BFCut       ... 1.0000e-11
Integration weight cutoff        WCut        ... 1.0000e-14
Partially contracted basis set               ... off
Rotationally invariant grid construction     ... off
Angular grids for H and He will be reduced by one unit
Diffuse basis detected: some atoms will have their outermost
                        angular grid increased by 1.

Total number of grid points                  ...    67924
Total number of batches                      ...     1067
Average number of points per batch           ...       63
Average number of grid points per atom       ...     4852

---------------------
SHARK GRID GENERATION
---------------------

General Integration Accuracy     IntAcc      ... 4.388
Radial Grid Type                 RadialGrid  ... OptM3 with GC (2021)
Angular Grid (max. ang.)         AngularGrid ... 4 (Lebedev-302)
Angular grid pruning method      GridPruning ... 4 (adaptive)
Weight generation scheme         WeightScheme... mBecke (2022)
Basis function cutoff            BFCut       ... 1.0000e-11
Integration weight cutoff        WCut        ... 1.0000e-14
Partially contracted basis set               ... off
Rotationally invariant grid construction     ... off
Angular grids for H and He will be reduced by one unit
Diffuse basis detected: some atoms will have their outermost
                        angular grid increased by 1.
Steep s-basis detected: some atoms will have their radial
                        grid points doubled.

Total number of grid points                  ...   112226
Total number of batches                      ...     1762
Average number of points per batch           ...       63
Average number of grid points per atom       ...     8016

--------------------
COSX GRID GENERATION
--------------------

GRIDX 1
-------
General Integration Accuracy     IntAcc      ... 3.816
Radial Grid Type                 RadialGrid  ... OptM3 with GC (2021)
Angular Grid (max. ang.)         AngularGrid ... 1 (Lebedev-50)
Angular grid pruning method      GridPruning ... 4 (adaptive)
Weight generation scheme         WeightScheme... mBecke (2022)
Basis function cutoff            BFCut       ... 1.0000e-11
Integration weight cutoff        WCut        ... 1.0000e-14
Partially contracted basis set               ... on
Rotationally invariant grid construction     ... off
Angular grids for H and He will be reduced by one unit
Diffuse basis detected: some atoms will have their outermost
                        angular grid increased by 1.

Total number of grid points                  ...     8542
Total number of batches                      ...       72
Average number of points per batch           ...      118
Average number of grid points per atom       ...      610
UseSFitting                                  ... on

GRIDX 2
-------
General Integration Accuracy     IntAcc      ... 4.020
Radial Grid Type                 RadialGrid  ... OptM3 with GC (2021)
Angular Grid (max. ang.)         AngularGrid ... 2 (Lebedev-110)
Angular grid pruning method      GridPruning ... 4 (adaptive)
Weight generation scheme         WeightScheme... mBecke (2022)
Basis function cutoff            BFCut       ... 1.0000e-11
Integration weight cutoff        WCut        ... 1.0000e-14
Partially contracted basis set               ... on
Rotationally invariant grid construction     ... off
Angular grids for H and He will be reduced by one unit
Diffuse basis detected: some atoms will have their outermost
                        angular grid increased by 1.

Total number of grid points                  ...    20747
Total number of batches                      ...      171
Average number of points per batch           ...      121
Average number of grid points per atom       ...     1482
UseSFitting                                  ... on

GRIDX 3
-------
General Integration Accuracy     IntAcc      ... 4.338
Radial Grid Type                 RadialGrid  ... OptM3 with GC (2021)
Angular Grid (max. ang.)         AngularGrid ... 3 (Lebedev-194)
Angular grid pruning method      GridPruning ... 4 (adaptive)
Weight generation scheme         WeightScheme... mBecke (2022)
Basis function cutoff            BFCut       ... 1.0000e-11
Integration weight cutoff        WCut        ... 1.0000e-14
Partially contracted basis set               ... on
Rotationally invariant grid construction     ... off
Angular grids for H and He will be reduced by one unit
Diffuse basis detected: some atoms will have their outermost
                        angular grid increased by 1.

Total number of grid points                  ...    46390
Total number of batches                      ...      369
Average number of points per batch           ...      125
Average number of grid points per atom       ...     3314
UseSFitting                                  ... on
Initializing property integral containers    ... done (  1.9 sec)

SHARK setup successfully completed in  18.2 seconds

Maximum memory used throughout the entire STARTUP-calculation: 45.0 MB


           ************************************************************
           *        Program running with 12 parallel MPI-processes    *
           *              working on a common directory               *
           ************************************************************
-------------------------------------------------------------------------------
                                 ORCA GUESS
                   Start orbitals & Density for SCF / CASSCF
-------------------------------------------------------------------------------

------------
SCF SETTINGS
------------
Hamiltonian:
 Density Functional     Method          .... DFT(GTOs)
 Exchange Functional    Exchange        .... PBE
   PBE kappa parameter   XKappa         ....  0.804000
   PBE mue parameter    XMuePBE         ....  0.219520
 Correlation Functional Correlation     .... PBE
   PBE beta parameter  CBetaPBE         ....  0.066725
 LDA part of GGA corr.  LDAOpt          .... PW91-LDA
 Gradients option       PostSCFGGA      .... off
 Hybrid DFT is turned on
   Fraction HF Exchange ScalHFX         ....  0.250000
   Scaling of DF-GGA-X  ScalDFX         ....  0.750000
   Scaling of DF-GGA-C  ScalDFC         ....  1.000000
   Scaling of DF-LDA-C  ScalLDAC        ....  1.000000
   Perturbative correction              ....  0.000000
   NL short-range parameter             ....  6.900000
 RI-approximation to the Coulomb term is turned on
   Number of AuxJ basis functions       .... 420
   RIJ-COSX (HFX calculated with COS-X)).... on


General Settings:
 Integral files         IntName         .... cs_rporg_075_red_freq_04
 Hartree-Fock type      HFTyp           .... RHF
 Total Charge           Charge          ....    0
 Multiplicity           Mult            ....    1
 Number of Electrons    NEL             ....   50
 Basis Dimension        Dim             ....  483
 Nuclear Repulsion      ENuc            ....    272.5057255150 Eh

Convergence Acceleration:
 AO-DIIS                CNVDIIS         .... on
   Start iteration      DIISMaxIt       ....     0
   Startup error        DIISStart       ....  0.200000
   # of expansion vecs  DIISMaxEq       ....     5
   Bias factor          DIISBfac        ....   1.050
   Max. coefficient     DIISMaxC        ....  10.000
 MO-DIIS                CNVKDIIS        .... off
 Trust-Rad. Augm. Hess. CNVTRAH         .... auto
   Auto Start mean grad. ratio tolernc. ....  1.125000
   Auto Start start iteration           ....    50
   Auto Start num. interpolation iter.  ....    10
   Max. Number of Micro iterations      ....    24
   Max. Number of Macro iterations      .... Maxiter - #DIIS iter
   Number of Davidson start vectors     ....     2
   Converg. threshold    (grad. norm)   ....   1.000e-05
   Grad. Scal. Fac. for Micro threshold ....   0.100
   Minimum threshold for Micro iter.    ....   1.000e-02
   NR start threshold (gradient norm)   ....   1.000e-04
   Initial trust radius                 ....   0.400
   Minimum AH scaling param. (alpha)    ....   1.000
   Maximum AH scaling param. (alpha)    .... 1000.000
   Quad. conv. algorithm                .... NR
   White noise on init. David. guess    .... on
   Maximum white noise                  ....   0.010
   Pseudo random numbers                .... off
   Inactive MOs                         .... canonical
   Orbital update algorithm             .... Taylor
   Preconditioner                       .... Diag
   Full preconditioner red. dimension   ....   250
 SOSCF                  CNVSOSCF        .... on
   Start iteration      SOSCFMaxIt      ....   150
   Startup grad/error   SOSCFStart      ....  0.001000
   Hessian update       SOSCFHessUp     .... L-BFGS
 Level Shifting         CNVShift        .... on
   Level shift para.    LevelShift      ....    0.2500
   Turn off err/grad.   ShiftErr        ....    0.0000
 Zerner damping         CNVZerner       .... off
 Static damping         CNVDamp         .... on
   Fraction old density DampFac         ....    0.8500
   Max. Damping (<1)    DampMax         ....    0.9800
   Min. Damping (>=0)   DampMin         ....    0.0000
   Turn off err/grad.   DampErr         ....    0.0300

SCF Procedure:
 Maximum # iterations   MaxIter         ....  1500
 SCF integral mode      SCFMode         .... Direct
   Integral package                     .... SHARK and LIBINT hybrid scheme
 Reset frequency        DirectResetFreq ....    20
 Integral Threshold     Thresh          ....  1.000e-12 Eh
 Primitive CutOff       TCut            ....  1.000e-13 Eh

Convergence Tolerance:
 Convergence Check Mode ConvCheckMode   .... Total+1el-Energy
 Convergence forced     ConvForced      .... 0
 Energy Change          TolE            ....  1.000e-08 Eh
 1-El. energy change                    ....  1.000e-05 Eh
 Orbital Gradient       TolG            ....  1.000e-05
 Orbital Rotation angle TolX            ....  1.000e-05
 DIIS Error             TolErr          ....  5.000e-07

------------------------------
INITIAL GUESS: MODEL POTENTIAL
------------------------------
Loading Hartree-Fock densities                     ... done
Calculating cut-offs                               ... done
Initializing the effective Hamiltonian             ... done
Setting up the integral package (SHARK)            ... done
Starting the Coulomb interaction                   ... done (   1.4 sec)
Making the grid                                    ... done (   1.1 sec)
Mapping shells                                     ... done
Starting the XC term evaluation                    ... done (   0.3 sec)
  promolecular density results
     # of electrons  =     49.996286142
     EX              =    -39.302338874
     EC              =     -1.646223649
     EX+EC           =    -40.948562523
Transforming the Hamiltonian                       ... done (   0.7 sec)
Diagonalizing the Hamiltonian                      ... done (   0.1 sec)
Back transforming the eigenvectors                 ... done (   0.7 sec)
Now organizing SCF variables                       ... done
                      ------------------
                      INITIAL GUESS DONE (   8.6 sec)
                      ------------------
             **** ENERGY FILE WAS UPDATED (cs_rporg_075_red_freq_04.en.tmp) ****
Finished Guess after  15.6 sec
Maximum memory used throughout the entire GUESS-calculation: 31.0 MB


           ************************************************************
           *        Program running with 12 parallel MPI-processes    *
           *              working on a common directory               *
           ************************************************************

-------------------------------------------------------------------------------------------
                                      ORCA LEAN-SCF
                              memory conserving SCF solver
-------------------------------------------------------------------------------------------

--------------------
CPCM SOLVATION MODEL
--------------------
CPCM parameters:
  Epsilon                                         ...      35.6880
  Refrac                                          ...       1.3442
  Rsolv                                           ...       2.1900
  Surface type                                    ...    GEPOL SES
  Discretization scheme                           ... Constant num. charges
  Epsilon function type                           ...         CPCM
Solvent:                                          ... ACETONITRILE
SMD-CDS solvent descriptors:
  Soln                                            ...       1.3442
  Soln25                                          ...       1.3416
  Sola                                            ...       0.0700
  Solb                                            ...       0.3200
  Solg                                            ...      41.2500
  Solc                                            ...       0.0000
  Solh                                            ...       0.0000
Radii:
  Scheme                                          ... Element-dependent radii
  Radius for C  used is    3.4960 Bohr (=   1.8500 Ang.)
  Radius for N  used is    3.5716 Bohr (=   1.8900 Ang.)
  Radius for H  used is    2.2677 Bohr (=   1.2000 Ang.)
Calculating surface                               ...        done! (  0.1s)
Cavity surface points                             ...          454
Cavity Volume                                     ...     745.4462
Cavity Surface-area                               ...     455.4388
Calculating surface distance matrix               ...        done! (  0.0s)
Performing Cholesky decomposition & store         ...        done! (  0.0s)
Overall time for CPCM initialization              ...                 0.1s

----------------------------------------D-I-I-S--------------------------------------------
Iteration    Energy (Eh)           Delta-E    RMSDP     MaxDP     DIISErr   Damp  Time(sec)
-------------------------------------------------------------------------------------------
               ***  Starting incremental Fock matrix formation  ***
    1    -287.1794877139409436     0.00e+00  7.74e-04  2.87e-02  2.60e-01  0.850  26.8
    2    -287.2282721037487363    -4.88e-02  7.42e-04  2.68e-02  1.95e-01  0.850  26.8
                               ***Turning on AO-DIIS***
    3    -287.2622423014292963    -3.40e-02  5.24e-04  2.01e-02  1.35e-01  0.850  25.6
    4    -287.2848443143128634    -2.26e-02  4.16e-04  1.62e-02  1.09e-01  0.850  25.9
    5    -287.3014152047484231    -1.66e-02  3.44e-04  1.35e-02  9.22e-02  0.850  26.4
    6    -287.3144353520498271    -1.30e-02  2.90e-04  1.16e-02  7.85e-02  0.850  26.7
    7    -287.3250400501071908    -1.06e-02  2.46e-04  9.93e-03  6.61e-02  0.850  27.5
    8    -287.3337685255964971    -8.73e-03  2.09e-04  8.35e-03  5.51e-02  0.850  28.4
    9    -287.3409520290006185    -7.18e-03  1.77e-04  7.00e-03  4.62e-02  0.850  27.9
   10    -287.3468797744668564    -5.93e-03  1.51e-04  5.91e-03  3.89e-02  0.850  27.5
   11    -287.3517924841803506    -4.91e-03  1.28e-04  5.02e-03  3.28e-02  0.850  27.0
   12    -287.3558807690292269    -4.09e-03  1.09e-04  4.26e-03  2.75e-02  0.850  26.7
   13    -287.3592942222337570    -3.41e-03  6.14e-04  2.41e-02  2.31e-02  0.000  25.8
   14    -287.3776456725551043    -1.84e-02  1.79e-05  8.87e-04  1.81e-03  0.000  27.7
                              *** Initializing SOSCF ***
---------------------------------------S-O-S-C-F--------------------------------------
Iteration    Energy (Eh)           Delta-E    RMSDP     MaxDP     MaxGrad    Time(sec)
--------------------------------------------------------------------------------------
   15    -287.3776535619832657    -7.89e-06  6.64e-06  3.47e-04  1.73e-04    30.3
               *** Restarting incremental Fock matrix formation ***
   16    -287.3776592685492233    -5.71e-06  1.69e-04  5.35e-03  2.60e-05    22.5
   17    -287.3776593123978955    -4.38e-08  3.25e-05  1.03e-03  3.56e-05    22.3
   18    -287.3776593829632020    -7.06e-08  3.40e-05  1.08e-03  4.70e-06    23.3
   19    -287.3776593836172424    -6.54e-10  1.19e-06  3.90e-05  2.94e-06    24.7
                 **** Energy Check signals convergence ****

               *****************************************************
               *                     SUCCESS                       *
               *           SCF CONVERGED AFTER  19 CYCLES          *
               *****************************************************

Recomputing exchange energy using gridx3       ... done (    7.548 sec)
Old exchange energy                            :    -10.057449688 Eh
New exchange energy                            :    -10.057508365 Eh
Exchange energy change after final integration :     -0.000058677 Eh
Total energy after final integration           :   -287.377718060 Eh

SMD CDS free energy correction energy :                -0.88942     Kcal/mol
Total Energy after SMD CDS correction =              -287.379135444 Eh
             **** ENERGY FILE WAS UPDATED (cs_rporg_075_red_freq_04.en.tmp) ****

----------------
TOTAL SCF ENERGY
----------------

Total Energy       :       -287.37913544411560 Eh           -7819.98384 eV

Components:
Nuclear Repulsion  :        272.50572551496543 Eh            7415.25778 eV
Electronic Energy  :       -559.86862736577029 Eh          -15234.79987 eV
One Electron Energy:       -927.10491732230639 Eh          -25227.80736 eV
Two Electron Energy:        367.23628995653610 Eh            9993.00748 eV
CPCM Dielectric    :         -0.01475753281238 Eh              -0.40157 eV
SMD CDS (Gcds)     :         -0.00141738396457 Eh              -0.03857 eV

Virial components:
Potential Energy   :       -573.05458042397538 Eh          -15593.60790 eV
Kinetic Energy     :        285.67544497985978 Eh            7773.62406 eV
Virial Ratio       :          2.00596372734932

DFT components:
N(Alpha)           :       24.999984546073 electrons
N(Beta)            :       24.999984546073 electrons
N(Total)           :       49.999969092146 electrons
E(X)               :      -30.077526099223 Eh       
E(C)               :       -1.656293997504 Eh       
E(XC)              :      -31.733820096728 Eh       

CPCM Solvation Model Properties:
Surface-charge          :         -0.04142843333178
Corrected charge        :         -0.00000000000000
Outlying charge corr.   :          0.00014098067721 Eh               0.00384 eV
Free-energy (cav+disp)  :         -0.00141738396457 Eh              -0.03857 eV

---------------
SCF CONVERGENCE
---------------

  Last Energy change         ...    6.5404e-10  Tolerance :   1.0000e-08
  Last MAX-Density change    ...    3.8971e-05  Tolerance :   1.0000e-07
  Last RMS-Density change    ...    1.1909e-06  Tolerance :   5.0000e-09
  Last DIIS Error            ...    1.7274e-04  Tolerance :   5.0000e-07
  Last Orbital Gradient      ...    2.9399e-06  Tolerance :   1.0000e-05
  Last Orbital Rotation      ...    8.6494e-06  Tolerance :   1.0000e-05


----------------
ORBITAL ENERGIES
----------------

  NO   OCC          E(Eh)            E(eV) 
   0   2.0000     -14.383465      -391.3940 
   1   2.0000     -10.267040      -279.3804 
   2   2.0000     -10.225271      -278.2438 
   3   2.0000     -10.225248      -278.2431 
   4   2.0000     -10.218787      -278.0673 
   5   2.0000     -10.218779      -278.0671 
   6   2.0000     -10.214957      -277.9631 
   7   2.0000      -0.946111       -25.7450 
   8   2.0000      -0.864226       -23.5168 
   9   2.0000      -0.767896       -20.8955 
  10   2.0000      -0.746929       -20.3250 
  11   2.0000      -0.629297       -17.1240 
  12   2.0000      -0.614854       -16.7310 
  13   2.0000      -0.539461       -14.6795 
  14   2.0000      -0.517887       -14.0924 
  15   2.0000      -0.488189       -13.2843 
  16   2.0000      -0.441894       -12.0245 
  17   2.0000      -0.438145       -11.9225 
  18   2.0000      -0.426522       -11.6063 
  19   2.0000      -0.405226       -11.0268 
  20   2.0000      -0.366124        -9.9627 
  21   2.0000      -0.346355        -9.4248 
  22   2.0000      -0.330556        -8.9949 
  23   2.0000      -0.267811        -7.2875 
  24   2.0000      -0.219875        -5.9831 
  25   0.0000      -0.008015        -0.2181 
  26   0.0000       0.002273         0.0618 
  27   0.0000       0.006255         0.1702 
  28   0.0000       0.015174         0.4129 
  29   0.0000       0.019264         0.5242 
  30   0.0000       0.036051         0.9810 
  31   0.0000       0.038325         1.0429 
  32   0.0000       0.046692         1.2706 
  33   0.0000       0.053108         1.4451 
  34   0.0000       0.062901         1.7116 
  35   0.0000       0.067167         1.8277 
*Only the first 10 virtual orbitals were printed.

                    ********************************
                    * MULLIKEN POPULATION ANALYSIS *
                    ********************************

-----------------------
MULLIKEN ATOMIC CHARGES
-----------------------
   0 C :   -0.915537
   1 C :   -0.452943
   2 C :   -0.662659
   3 C :   -0.454783
   4 C :   -0.914543
   5 C :    1.079791
   6 N :   -0.585277
   7 H :    0.063937
   8 H :    0.063704
   9 H :    0.608714
  10 H :    0.473652
  11 H :    0.612412
  12 H :    0.474910
  13 H :    0.608623
Sum of atomic charges:    0.0000000

--------------------------------
MULLIKEN REDUCED ORBITAL CHARGES
--------------------------------
  0 C s       :     3.935315  s :     3.935315
      pz      :     1.012161  p :     2.806679
      px      :     0.795511
      py      :     0.999007
      dz2     :     0.001863  d :     0.192932
      dxz     :     0.010740
      dyz     :     0.007592
      dx2y2   :     0.062316
      dxy     :     0.110421
      f0      :     0.000934  f :    -0.019388
      f+1     :     0.000685
      f-1     :     0.000375
      f+2     :     0.000980
      f-2     :    -0.000897
      f+3     :    -0.002170
      f-3     :    -0.019295

  1 C s       :     3.491177  s :     3.491177
      pz      :     0.950106  p :     2.894252
      px      :     1.017017
      py      :     0.927130
      dz2     :    -0.015004  d :     0.076934
      dxz     :     0.029488
      dyz     :     0.011687
      dx2y2   :     0.013577
      dxy     :     0.037186
      f0      :     0.001149  f :    -0.009421
      f+1     :     0.000993
      f-1     :     0.000436
      f+2     :     0.000528
      f-2     :     0.000201
      f+3     :    -0.002426
      f-3     :    -0.010301

  2 C s       :     3.600135  s :     3.600135
      pz      :     1.014616  p :     2.925423
      px      :     0.985949
      py      :     0.924858
      dz2     :    -0.002768  d :     0.147051
      dxz     :     0.004219
      dyz     :     0.025184
      dx2y2   :     0.122568
      dxy     :    -0.002152
      f0      :     0.001018  f :    -0.009949
      f+1     :     0.000895
      f-1     :     0.000887
      f+2     :     0.000292
      f-2     :     0.000216
      f+3     :    -0.002292
      f-3     :    -0.010966

  3 C s       :     3.491867  s :     3.491867
      pz      :     0.950107  p :     2.894710
      px      :     1.017257
      py      :     0.927346
      dz2     :    -0.014989  d :     0.077657
      dxz     :     0.029492
      dyz     :     0.011671
      dx2y2   :     0.013571
      dxy     :     0.037913
      f0      :     0.001148  f :    -0.009451
      f+1     :     0.000994
      f-1     :     0.000433
      f+2     :     0.000525
      f-2     :     0.000200
      f+3     :    -0.002463
      f-3     :    -0.010288

  4 C s       :     3.933945  s :     3.933945
      pz      :     1.012138  p :     2.806603
      px      :     0.795465
      py      :     0.999001
      dz2     :     0.001807  d :     0.193361
      dxz     :     0.010717
      dyz     :     0.007604
      dx2y2   :     0.062099
      dxy     :     0.111133
      f0      :     0.000935  f :    -0.019367
      f+1     :     0.000678
      f-1     :     0.000371
      f+2     :     0.000980
      f-2     :    -0.000897
      f+3     :    -0.002176
      f-3     :    -0.019257

  5 C s       :     2.973933  s :     2.973933
      pz      :     0.882128  p :     2.067833
      px      :     0.302124
      py      :     0.883581
      dz2     :    -0.029375  d :    -0.070545
      dxz     :     0.070165
      dyz     :     0.004843
      dx2y2   :    -0.018628
      dxy     :    -0.097551
      f0      :     0.002634  f :    -0.051012
      f+1     :    -0.002741
      f-1     :     0.000229
      f+2     :     0.004126
      f-2     :     0.001955
      f+3     :    -0.014002
      f-3     :    -0.043212

  6 N s       :     3.873053  s :     3.873053
      pz      :     1.529214  p :     3.656075
      px      :     1.057805
      py      :     1.069056
      dz2     :    -0.001060  d :     0.050101
      dxz     :     0.030460
      dyz     :    -0.000465
      dx2y2   :     0.008598
      dxy     :     0.012568
      f0      :     0.000838  f :     0.006048
      f+1     :     0.000551
      f-1     :    -0.000238
      f+2     :     0.001431
      f-2     :     0.000330
      f+3     :     0.000197
      f-3     :     0.002938

  7 H s       :     0.826181  s :     0.826181
      pz      :     0.040348  p :     0.085287
      px      :     0.040507
      py      :     0.004433
      dz2     :     0.003396  d :     0.024594
      dxz     :     0.001825
      dyz     :     0.006669
      dx2y2   :     0.006151
      dxy     :     0.006553

  8 H s       :     0.826353  s :     0.826353
      pz      :     0.040368  p :     0.085346
      px      :     0.040492
      py      :     0.004486
      dz2     :     0.003394  d :     0.024597
      dxz     :     0.001825
      dyz     :     0.006671
      dx2y2   :     0.006154
      dxy     :     0.006553

  9 H s       :     0.423440  s :     0.423440
      pz      :     0.015240  p :    -0.036898
      px      :    -0.012096
      py      :    -0.040042
      dz2     :    -0.000340  d :     0.004744
      dxz     :     0.001473
      dyz     :     0.002977
      dx2y2   :     0.000604
      dxy     :     0.000030

 10 H s       :     0.500496  s :     0.500496
      pz      :     0.015167  p :     0.020024
      px      :     0.003107
      py      :     0.001750
      dz2     :    -0.000484  d :     0.005829
      dxz     :     0.000842
      dyz     :     0.003043
      dx2y2   :     0.001090
      dxy     :     0.001337

 11 H s       :     0.408135  s :     0.408135
      pz      :     0.017144  p :    -0.026571
      px      :    -0.037752
      py      :    -0.005963
      dz2     :    -0.000375  d :     0.006023
      dxz     :     0.004397
      dyz     :    -0.000254
      dx2y2   :     0.000775
      dxy     :     0.001480

 12 H s       :     0.499525  s :     0.499525
      pz      :     0.015171  p :     0.019737
      px      :     0.003065
      py      :     0.001500
      dz2     :    -0.000483  d :     0.005828
      dxz     :     0.000843
      dyz     :     0.003044
      dx2y2   :     0.001088
      dxy     :     0.001336

 13 H s       :     0.423509  s :     0.423509
      pz      :     0.015243  p :    -0.036874
      px      :    -0.012070
      py      :    -0.040047
      dz2     :    -0.000341  d :     0.004742
      dxz     :     0.001472
      dyz     :     0.002977
      dx2y2   :     0.000604
      dxy     :     0.000030



                     *******************************
                     * LOEWDIN POPULATION ANALYSIS *
                     *******************************

----------------------
LOEWDIN ATOMIC CHARGES
----------------------
   0 C :    0.200283
   1 C :    0.162137
   2 C :    0.163606
   3 C :    0.162135
   4 C :    0.200285
   5 C :   -0.275096
   6 N :    0.860679
   7 H :   -0.291812
   8 H :   -0.291812
   9 H :   -0.173280
  10 H :   -0.177950
  11 H :   -0.187944
  12 H :   -0.177948
  13 H :   -0.173282

-------------------------------
LOEWDIN REDUCED ORBITAL CHARGES
-------------------------------
  0 C s       :     2.479360  s :     2.479360
      pz      :     0.632657  p :     2.299355
      px      :     0.842663
      py      :     0.824035
      dz2     :     0.067963  d :     0.680936
      dxz     :     0.105225
      dyz     :     0.058280
      dx2y2   :     0.201827
      dxy     :     0.247641
      f0      :     0.020472  f :     0.340067
      f+1     :     0.029157
      f-1     :     0.022678
      f+2     :     0.049017
      f-2     :     0.026558
      f+3     :     0.060935
      f-3     :     0.131250

  1 C s       :     2.488033  s :     2.488033
      pz      :     0.595547  p :     2.288376
      px      :     0.851100
      py      :     0.841729
      dz2     :     0.067834  d :     0.720923
      dxz     :     0.123152
      dyz     :     0.064759
      dx2y2   :     0.204101
      dxy     :     0.261078
      f0      :     0.019154  f :     0.340530
      f+1     :     0.028098
      f-1     :     0.022592
      f+2     :     0.050493
      f-2     :     0.025482
      f+3     :     0.057055
      f-3     :     0.137657

  2 C s       :     2.487517  s :     2.487517
      pz      :     0.630662  p :     2.316483
      px      :     0.833270
      py      :     0.852551
      dz2     :     0.067437  d :     0.699005
      dxz     :     0.044233
      dyz     :     0.121686
      dx2y2   :     0.292362
      dxy     :     0.173287
      f0      :     0.019553  f :     0.333389
      f+1     :     0.020006
      f-1     :     0.030705
      f+2     :     0.010738
      f-2     :     0.058877
      f+3     :     0.054904
      f-3     :     0.138606

  3 C s       :     2.488033  s :     2.488033
      pz      :     0.595547  p :     2.288376
      px      :     0.851099
      py      :     0.841730
      dz2     :     0.067833  d :     0.720924
      dxz     :     0.123150
      dyz     :     0.064762
      dx2y2   :     0.204096
      dxy     :     0.261084
      f0      :     0.019154  f :     0.340531
      f+1     :     0.028098
      f-1     :     0.022592
      f+2     :     0.050495
      f-2     :     0.025480
      f+3     :     0.057055
      f-3     :     0.137657

  4 C s       :     2.479358  s :     2.479358
      pz      :     0.632658  p :     2.299355
      px      :     0.842663
      py      :     0.824034
      dz2     :     0.067963  d :     0.680935
      dxz     :     0.105227
      dyz     :     0.058278
      dx2y2   :     0.201829
      dxy     :     0.247637
      f0      :     0.020472  f :     0.340067
      f+1     :     0.029158
      f-1     :     0.022677
      f+2     :     0.049015
      f-2     :     0.026560
      f+3     :     0.060935
      f-3     :     0.131250

  5 C s       :     2.451128  s :     2.451128
      pz      :     0.589216  p :     2.213235
      px      :     0.762903
      py      :     0.861116
      dz2     :     0.092240  d :     1.036418
      dxz     :     0.214429
      dyz     :     0.123905
      dx2y2   :     0.328645
      dxy     :     0.277199
      f0      :     0.033356  f :     0.574315
      f+1     :     0.040499
      f-1     :     0.034945
      f+2     :     0.086237
      f-2     :     0.061573
      f+3     :     0.079529
      f-3     :     0.238178

  6 N s       :     2.644647  s :     2.644647
      pz      :     1.080806  p :     2.985810
      px      :     0.951672
      py      :     0.953333
      dz2     :     0.034598  d :     0.384376
      dxz     :     0.083827
      dyz     :     0.021475
      dx2y2   :     0.090791
      dxy     :     0.153685
      f0      :     0.011601  f :     0.124487
      f+1     :     0.013048
      f-1     :     0.003221
      f+2     :     0.021384
      f-2     :     0.008142
      f+3     :     0.022704
      f-3     :     0.044388

  7 H s       :     0.581289  s :     0.581289
      pz      :     0.149639  p :     0.418274
      px      :     0.109830
      py      :     0.158805
      dz2     :     0.046250  d :     0.292249
      dxz     :     0.025444
      dyz     :     0.069430
      dx2y2   :     0.087074
      dxy     :     0.064051

  8 H s       :     0.581289  s :     0.581289
      pz      :     0.149641  p :     0.418275
      px      :     0.109831
      py      :     0.158803
      dz2     :     0.046252  d :     0.292248
      dxz     :     0.025446
      dyz     :     0.069427
      dx2y2   :     0.087074
      dxy     :     0.064049

  9 H s       :     0.652703  s :     0.652703
      pz      :     0.085441  p :     0.302987
      px      :     0.095811
      py      :     0.121735
      dz2     :     0.023293  d :     0.217590
      dxz     :     0.020074
      dyz     :     0.046103
      dx2y2   :     0.073125
      dxy     :     0.054995

 10 H s       :     0.661291  s :     0.661291
      pz      :     0.082437  p :     0.302117
      px      :     0.093600
      py      :     0.126080
      dz2     :     0.022868  d :     0.214541
      dxz     :     0.018112
      dyz     :     0.045630
      dx2y2   :     0.073119
      dxy     :     0.054814

 11 H s       :     0.665523  s :     0.665523
      pz      :     0.091059  p :     0.307860
      px      :     0.139701
      py      :     0.077101
      dz2     :     0.022569  d :     0.214561
      dxz     :     0.062535
      dyz     :     0.003393
      dx2y2   :     0.044281
      dxy     :     0.081783

 12 H s       :     0.661291  s :     0.661291
      pz      :     0.082437  p :     0.302116
      px      :     0.093598
      py      :     0.126081
      dz2     :     0.022868  d :     0.214541
      dxz     :     0.018111
      dyz     :     0.045631
      dx2y2   :     0.073117
      dxy     :     0.054815

 13 H s       :     0.652704  s :     0.652704
      pz      :     0.085442  p :     0.302988
      px      :     0.095812
      py      :     0.121734
      dz2     :     0.023293  d :     0.217591
      dxz     :     0.020075
      dyz     :     0.046102
      dx2y2   :     0.073127
      dxy     :     0.054994



                      *****************************
                      * MAYER POPULATION ANALYSIS *
                      *****************************

  NA   - Mulliken gross atomic population
  ZA   - Total nuclear charge
  QA   - Mulliken gross atomic charge
  VA   - Mayer's total valence
  BVA  - Mayer's bonded valence
  FA   - Mayer's free valence

  ATOM       NA         ZA         QA         VA         BVA        FA
  0 C      6.9155     6.0000    -0.9155     2.9872     2.9872     0.0000
  1 C      6.4529     6.0000    -0.4529     2.9901     2.9901    -0.0000
  2 C      6.6627     6.0000    -0.6627     3.3439     3.3439     0.0000
  3 C      6.4548     6.0000    -0.4548     2.9917     2.9917     0.0000
  4 C      6.9145     6.0000    -0.9145     2.9915     2.9915     0.0000
  5 C      4.9202     6.0000     1.0798     1.9134     1.9134    -0.0000
  6 N      7.5853     7.0000    -0.5853     2.7410     2.7410    -0.0000
  7 H      0.9361     1.0000     0.0639     1.0796     1.0796    -0.0000
  8 H      0.9363     1.0000     0.0637     1.0798     1.0798     0.0000
  9 H      0.3913     1.0000     0.6087     0.3564     0.3564    -0.0000
 10 H      0.5263     1.0000     0.4737     0.7673     0.7673     0.0000
 11 H      0.3876     1.0000     0.6124     0.4111     0.4111    -0.0000
 12 H      0.5251     1.0000     0.4749     0.7649     0.7649    -0.0000
 13 H      0.3914     1.0000     0.6086     0.3565     0.3565    -0.0000

  Mayer bond orders larger than 0.100000
B(  0-C ,  1-C ) :   1.3449 B(  0-C ,  2-C ) :   0.2443 B(  0-C ,  4-C ) :   0.4163 
B(  0-C ,  5-C ) :   0.8427 B(  0-C , 13-H ) :   0.2053 B(  1-C ,  2-C ) :   1.2666 
B(  1-C ,  3-C ) :  -0.1068 B(  1-C ,  5-C ) :  -0.2604 B(  1-C , 12-H ) :   0.6728 
B(  2-C ,  3-C ) :   1.2669 B(  2-C ,  4-C ) :   0.2437 B(  2-C , 11-H ) :   0.3803 
B(  3-C ,  4-C ) :   1.3455 B(  3-C ,  5-C ) :  -0.2601 B(  3-C , 10-H ) :   0.6743 
B(  4-C ,  5-C ) :   0.8458 B(  4-C ,  9-H ) :   0.2048 B(  5-C ,  6-N ) :   0.5518 
B(  5-C ,  9-H ) :   0.1139 B(  5-C , 13-H ) :   0.1135 B(  6-N ,  7-H ) :   1.0717 
B(  6-N ,  8-H ) :   1.0723 

-------
TIMINGS
-------

Total SCF time: 0 days 0 hours 8 min 48 sec 

Total time                  ....     528.213 sec
Sum of individual times     ....     513.292 sec  ( 97.2%)

SCF preparation             ....       6.862 sec  (  1.3%)
Fock matrix formation       ....     297.157 sec  ( 56.3%)
  Startup                   ....      39.105 sec  ( 13.2% of F)
  Split-RI-J                ....      61.620 sec  ( 20.7% of F)
  Chain of spheres X        ....      94.176 sec  ( 31.7% of F)
  XC integration            ....      38.736 sec  ( 13.0% of F)
    XC Preparation          ....       0.000 sec  (  0.0% of XC)
    Basis function eval.    ....       1.982 sec  (  5.1% of XC)
    Density eval.           ....       2.929 sec  (  7.6% of XC)
    XC-Functional eval.     ....       0.123 sec  (  0.3% of XC)
    XC-Potential eval.      ....       5.204 sec  ( 13.4% of XC)
  CPCM terms                ....      21.118 sec  (  7.1% of F)
Diagonalization             ....       0.000 sec  (  0.0%)
Density matrix formation    ....      62.155 sec  ( 11.8%)
Total Energy calculation    ....      37.462 sec  (  7.1%)
Population analysis         ....       5.992 sec  (  1.1%)
Orbital Transformation      ....       4.586 sec  (  0.9%)
Orbital Orthonormalization  ....       0.000 sec  (  0.0%)
DIIS solution               ....      88.191 sec  ( 16.7%)
SOSCF solution              ....      10.887 sec  (  2.1%)
Finished LeanSCF after 532.0 sec

Maximum memory used throughout the entire LEANSCF-calculation: 55.5 MB


           ************************************************************
           *        Program running with 12 parallel MPI-processes    *
           *              working on a common directory               *
           ************************************************************

------------------------------------------------------------------------------
                         ORCA PROPERTY INTEGRAL CALCULATIONS
------------------------------------------------------------------------------

GBWName                                   ... cs_rporg_075_red_freq_04.gbw
Number of atoms                           ...     14
Number of basis functions                 ...    525
Max core memory                           ...   5000 MB

Dipole integrals                          ... YES
Quadrupole integrals                      ...  NO
Linear momentum integrals                 ...  NO
Angular momentum integrals                ...  NO
Higher moments length integrals           ...  NO
Higher moments velocity integrals         ...  NO
Kinetic energy integrals                  ...  NO
GIAO right hand sides                     ...  NO
GIAO dipole derivative integrals          ...  NO
SOC integrals                             ...  NO
EPR diamagnetic integrals (GIAO)          ...  NO
EPR gauge integrals                       ...  NO
Field gradient integrals                  ...  NO (   0 nuclei)
Spin-dipole/Fermi contact integrals       ...  NO (   0 nuclei)
Contact density integrals                 ...  NO (   0 nuclei)
Nucleus-orbit integrals                   ...  NO (   0 nuclei)
Geometric perturbations                   ... YES (  14 nuclei)

Choice of electric origin   ... Center of mass
Position of electric origin ... ( -0.0022, -0.0000,  0.0116) 
Choice of magnetic origin   ... GIAO
Position of magnetic origin ... (  0.0000,  0.0000,  0.0000) 

Calculating integrals                     ... Electric Dipole (Length)     done (  0.7 sec)
Calculating integrals                     ... Geometrical perturbation right hand sides

-----------------------
GEOMETRIC PERTURBATIONS (14 nuclei)
-----------------------

MaxCore                            ...   5000 MB
Number of batches                  ...      1

BATCH   0: Atoms    0 -   13 ( 42 perturbations)
   => H(core) and overlap derivative integrals     ... done (     0.7 sec)
   => Making and storing internal U-coefficients   ... done (     0.5 sec)
   => RI-J derivative integrals                    ... done (    51.8 sec)
   => RI-J response operators                      ... done (     3.6 sec)
   => Chain of spheres derivative integrals        ... done (    18.1 sec)
   => Chain of spheres response operator           ... done (    34.3 sec)
   => XC derivative integrals                      ... done (    99.1 sec)
   => XC response operators                        ... done (    23.9 sec)
   => CPCM derivative integrals                    ... done (     8.7 sec)
   => CPCM response operators                      ... done (    12.9 sec)
   => Completing and storing right hand sides      ... done (     1.2 sec)
   => Total time for right hand sides = 256.8 sec

  geometrical perturbations done (259.0 sec)

Property integrals calculated in 259.9 sec

Maximum memory used throughout the entire PROPINT-calculation: 920.7 MB


-------------------------------------------------------------------------------
                          DFT DISPERSION CORRECTION                            
                                                                               
                              DFTD3 V3.1  Rev 1                                
                          USING Becke-Johnson damping                          
-------------------------------------------------------------------------------
The PBE0 functional is recognized
Active option DFTDOPT                   ...         4   

molecular C6(AA) [au] = 2149.009044 


            DFT-D V3
 parameters
 s6 scaling factor         :     1.0000 
 a1 scaling factor         :     0.4145 
 s8 scaling factor         :     1.2177 
 a2 scaling factor         :     4.8593 
 ad hoc parameters k1-k3   :    16.0000     1.3333    -4.0000 

 Edisp/kcal,au: -7.198969494879  -0.011472286913 
 E6   /kcal   :  -4.503412213 
 E8   /kcal   :  -2.695557282 
 % E8         :  37.443654732 

-------------------------   ----------------
Dispersion correction           -0.011472287
-------------------------   ----------------


-------------------------   --------------------
FINAL SINGLE POINT ENERGY      -287.390607731028
-------------------------   --------------------



           ************************************************************
           *        Program running with 12 parallel MPI-processes    *
           *              working on a common directory               *
           ************************************************************
------------------------------------------------------------------------------
                            ORCA SCF RESPONSE CALCULATION
------------------------------------------------------------------------------

GBWName                                 ... cs_rporg_075_red_freq_04.gbw
Number of atoms                         ...     14
Number of basis functions               ...    525
Max core memory                         ...   5000 MB

Electric field perturbation             ...  NO
Quadrupolar field perturbation          ...  NO
Magnetic field perturbation (no GIAO)   ...  NO
Magnetic field perturbation (with GIAO) ...  NO
Linear momentum (velocity) perturbation ...  NO
Spin-orbit coupling perturbation        ...  NO
Choice of electric origin               ... Center of mass
Position of electric origin             ...    -0.002215    -0.000014     0.011567
Choice of magnetic origin               ... GIAO
Position of magnetic origin             ...     0.000000     0.000000     0.000000
Nuclear geometric perturbations         ... YES (  42 perturbations)
Nucleus-orbit perturbations             ...  NO (   0 perturbations)
Spin-dipole/Fermi contact perturbations ...  NO (   0 perturbations)

Total number of real perturbations      ...     42
Total number of imaginary perturbations ...      0
Total number of triplet perturbations   ...      0
Total number of SOC perturbations       ...      0

Using XC Grid                  ... (cs_rporg_075_red_freq_04.grid_cpscf.tmp) 
Recalculating density on grid  ... (cs_rporg_075_red_freq_04.grho_cpscf0.tmp) done
Calculating the xc-kernel      ... (cs_rporg_075_red_freq_04.fxc_cpscf0.tmp) done

                                **********************
                                * REAL PERTURBATIONS *
                                **********************



-------------------
SHARK CP-SCF DRIVER
-------------------

Dimension of the orbital basis          ...    483
Dimension of the CPSCF-problem          ...  11450
Number of operators                     ...      1
Max. number of iterations               ...    128
Max. DIIS space dimension               ...     20
Convergence Tolerance                   ... 1.0e-04
Number of perturbations                 ...     42
Perturbation type                       ... REAL

--------------------
DIIS EQUATION SOLVER
--------------------

  ITERATION   0:   ||err||_max =   2.9226e-01 ( 100.3 sec   0/ 42 done)
  ITERATION   1:   ||err||_max =   2.3003e-01 (  96.3 sec   0/ 42 done)
  ITERATION   2:   ||err||_max =   1.2191e-02 (  94.2 sec   0/ 42 done)
  ITERATION   3:   ||err||_max =   6.5909e-03 ( 100.3 sec   0/ 42 done)
  ITERATION   4:   ||err||_max =   3.3623e-03 ( 101.6 sec   0/ 42 done)
  ITERATION   5:   ||err||_max =   1.3153e-03 ( 101.1 sec   1/ 42 done)
  ITERATION   6:   ||err||_max =   4.9645e-04 ( 123.7 sec  18/ 42 done)
  ITERATION   7:   ||err||_max =   2.2402e-04 (  76.3 sec  28/ 42 done)
  ITERATION   8:   ||err||_max =   7.7016e-05 (  45.9 sec  42/ 42 done)

CP-SCF equations solved in 877.7 sec
Response densities calculated in   1.7 sec

Maximum memory used throughout the entire SCFRESP-calculation: 884.9 MB


           ************************************************************
           *        Program running with 12 parallel MPI-processes    *
           *              working on a common directory               *
           ************************************************************

------------------------------------------------------------------------------
                              ORCA PROPERTY CALCULATIONS
------------------------------------------------------------------------------

GBWName                                 ... cs_rporg_075_red_freq_04.gbw
Number of atoms                         ...     14
Number of basis functions               ...    525
Max core memory                         ...   5000 MB

Electric properties:
Dipole moment                           ... YES
Quadrupole moment                       ...  NO
Static polarizability (Dipole/Dipole)   ...  NO
Static polarizability (Dipole/Quad.)    ...  NO
Static polarizability (Quad./Quad.)     ...  NO
Static polarizability (Velocity)        ...  NO

Atomic electric properties:
Dipole moment                           ...  NO
Quadrupole moment                       ...  NO
Static polarizability                   ...  NO

Choice of electric origin               ... Center of mass
Position of electric origin             ...    -0.002215    -0.000014     0.011567

General magnetic properties:
Magnetizability                         ...  NO

EPR properties:
g-Tensor (aka g-matrix)                 ...  NO
Zero-Field splitting spin-orbit         ...  NO
Zero-field splitting spin-spin          ...  NO
Hyperfine couplings                     ...  NO (   0 nuclei)
Quadrupole couplings                    ...  NO (   0 nuclei)
Contact density                         ...  NO (   0 nuclei)

NMR properties:
Chemical shifts                         ...  NO (   0 nuclei)
Spin-rotation constants                 ...  NO (   0 nuclei)
Spin-spin couplings                     ...  NO (   0 nuclei,    0 pairs)

Choice of magnetic origin               ... GIAO
Position of magnetic origin             ...     0.000000     0.000000     0.000000

Properties with geometric perturbations:
SCF Hessian                             ... YES
IR spectrum                             ... YES
VCD spectrum                            ...  NO
X-ray spectroscopy properties:
SCF XES/XAS/RIXS spectra                ...  NO


-------------
DIPOLE MOMENT
-------------

Method             : SCF
Type of density    : Electron Density
Multiplicity       :   1
Irrep              :   0
Energy             :  -287.3791354441156045 Eh
Relativity type    : 
Basis              : AO
                                X                 Y                 Z
Electronic contribution:     -0.047111403       0.000001306       0.049484998
Nuclear contribution   :     -0.732142991       0.000010229      -0.545932877
                        -----------------------------------------
Total Dipole Moment    :     -0.779254395       0.000011535      -0.496447879
                        -----------------------------------------
Magnitude (a.u.)       :      0.923957742
Magnitude (Debye)      :      2.348513940



--------------------
Rotational spectrum 
--------------------
 
Rotational constants in cm-1:             0.189078             0.087345             0.059831 
Rotational constants in MHz :          5668.430665          2618.543736          1793.690874 

Dipole components along the rotational axes: 
x,y,z [a.u.] :    -0.777182    -0.000003    -0.499685 
x,y,z [Debye]:    -1.975441    -0.000008    -1.270099 

 

Dipole moment calculation done in   2.4 sec 

-----------
SCF HESSIAN
-----------

Occupied/Occupied contributions to the Hessian:
   => Occupied/Occupied contributions              ... done (  5.6 sec)
Perturbed density contributions to the Hessian:
   => Perturbed density contributions              ... done (  1.4 sec)
Explicit contributions to the Hessian:
   => Nuclear repulsion Hessian                    ... done (  0.0 sec)
   => HCore and overlap Hessian                    ... done (  4.7 sec)
   => RI-J Hessian                                 ... done ( 57.4 sec)
   => COSX Hessian                                 ... done (441.4 sec)
   => XC-Hessian                                   ... done ( 28.9 sec)
   => CPCM-Hessian                                 ... done (  5.9 sec)
   => Van der Waals-Hessian                        ... done (  0.5 sec)
   => SMD-Hessian                                  ... done (  3.2 sec)
   => Explicit contributions done
Dipole derivatives                                 ... done (  1.3 sec)
Mass weighting the Hessian           ... done
Calculating normal modes             ... done
Scaling frequencies                  ... done

-----------------------
VIBRATIONAL FREQUENCIES
-----------------------

Scaling factor for frequencies =  1.000000000  (already applied!)

     0:       0.00 cm**-1
     1:       0.00 cm**-1
     2:       0.00 cm**-1
     3:       0.00 cm**-1
     4:       0.00 cm**-1
     5:       0.00 cm**-1
     6:     216.45 cm**-1
     7:     295.47 cm**-1
     8:     375.07 cm**-1
     9:     418.09 cm**-1
    10:     484.09 cm**-1
    11:     529.71 cm**-1
    12:     548.10 cm**-1
    13:     621.31 cm**-1
    14:     703.85 cm**-1
    15:     769.81 cm**-1
    16:     837.09 cm**-1
    17:     840.41 cm**-1
    18:     899.71 cm**-1
    19:     987.59 cm**-1
    20:    1000.60 cm**-1
    21:    1010.58 cm**-1
    22:    1044.14 cm**-1
    23:    1059.96 cm**-1
    24:    1126.06 cm**-1
    25:    1154.65 cm**-1
    26:    1180.85 cm**-1
    27:    1314.06 cm**-1
    28:    1350.13 cm**-1
    29:    1372.29 cm**-1
    30:    1498.89 cm**-1
    31:    1529.00 cm**-1
    32:    1621.40 cm**-1
    33:    1642.06 cm**-1
    34:    1661.09 cm**-1
    35:    3173.64 cm**-1
    36:    3176.33 cm**-1
    37:    3188.40 cm**-1
    38:    3193.37 cm**-1
    39:    3209.36 cm**-1
    40:    3580.67 cm**-1
    41:    3679.66 cm**-1


------------
NORMAL MODES
------------

These modes are the Cartesian displacements weighted by the diagonal matrix
M(i,i)=1/sqrt(m[i]) where m[i] is the mass of the displaced atom
Thus, these vectors are normalized but *not* orthogonal

                  0          1          2          3          4          5    
      0       0.000000   0.000000   0.000000   0.000000   0.000000   0.000000
      1       0.000000   0.000000   0.000000   0.000000   0.000000   0.000000
      2       0.000000   0.000000   0.000000   0.000000   0.000000   0.000000
      3       0.000000   0.000000   0.000000   0.000000   0.000000   0.000000
      4       0.000000   0.000000   0.000000   0.000000   0.000000   0.000000
      5       0.000000   0.000000   0.000000   0.000000   0.000000   0.000000
      6       0.000000   0.000000   0.000000   0.000000   0.000000   0.000000
      7       0.000000   0.000000   0.000000   0.000000   0.000000   0.000000
      8       0.000000   0.000000   0.000000   0.000000   0.000000   0.000000
      9       0.000000   0.000000   0.000000   0.000000   0.000000   0.000000
     10       0.000000   0.000000   0.000000   0.000000   0.000000   0.000000
     11       0.000000   0.000000   0.000000   0.000000   0.000000   0.000000
     12       0.000000   0.000000   0.000000   0.000000   0.000000   0.000000
     13       0.000000   0.000000   0.000000   0.000000   0.000000   0.000000
     14       0.000000   0.000000   0.000000   0.000000   0.000000   0.000000
     15       0.000000   0.000000   0.000000   0.000000   0.000000   0.000000
     16       0.000000   0.000000   0.000000   0.000000   0.000000   0.000000
     17       0.000000   0.000000   0.000000   0.000000   0.000000   0.000000
     18       0.000000   0.000000   0.000000   0.000000   0.000000   0.000000
     19       0.000000   0.000000   0.000000   0.000000   0.000000   0.000000
     20       0.000000   0.000000   0.000000   0.000000   0.000000   0.000000
     21       0.000000   0.000000   0.000000   0.000000   0.000000   0.000000
     22       0.000000   0.000000   0.000000   0.000000   0.000000   0.000000
     23       0.000000   0.000000   0.000000   0.000000   0.000000   0.000000
     24       0.000000   0.000000   0.000000   0.000000   0.000000   0.000000
[...]
     39      -0.193448  -0.400049  -0.015843  -0.253614   0.247832   0.253284
     40       0.240135   0.145906   0.016247  -0.026306  -0.244837   0.448920
     41       0.000942  -0.000239  -0.001554   0.000868  -0.001297  -0.000039
                 36         37         38         39         40         41    
      0       0.025565   0.020583  -0.017621   0.007649   0.000769   0.000074
      1       0.046072   0.035184  -0.026568   0.010194  -0.000311  -0.000421
      2      -0.000012  -0.000007   0.000017  -0.000003   0.000038  -0.000132
      3       0.013268  -0.018721   0.027898  -0.015880  -0.000273   0.000061
      4      -0.026527   0.027710  -0.046447   0.032750   0.000103   0.000032
      5      -0.000111   0.000131  -0.000206   0.000133   0.000155  -0.000043
      6      -0.000062   0.044794   0.000018  -0.072325   0.000292   0.000000
      7       0.000990   0.000000   0.003963   0.000002   0.000000  -0.000054
      8       0.000000  -0.000126  -0.000000   0.000202  -0.000005  -0.000000
      9      -0.013169  -0.018741  -0.027908  -0.015893  -0.000274  -0.000062
     10      -0.026345  -0.027746  -0.046463  -0.032772  -0.000103   0.000032
     11       0.000110   0.000131   0.000205   0.000133   0.000155   0.000043
     12      -0.025509   0.020547   0.017604   0.007645   0.000769  -0.000074
     13       0.045968  -0.035120  -0.026536  -0.010185   0.000311  -0.000421
     14       0.000011  -0.000007  -0.000017  -0.000003   0.000038   0.000132
     15       0.000002   0.003074  -0.000001   0.001082   0.001159  -0.000000
     16      -0.002751  -0.000002   0.002602  -0.000000  -0.000000   0.000929
     17       0.000000   0.000027  -0.000000   0.000025  -0.001395  -0.000000
     18       0.000000  -0.000376   0.000000  -0.000152  -0.046946  -0.000002
     19       0.000262   0.000000  -0.000340  -0.000000  -0.000004   0.084023
     20      -0.000000   0.000068   0.000000  -0.000002  -0.029854  -0.000001
     21       0.001375  -0.003158  -0.000263  -0.000942   0.312535   0.317549
     22      -0.000236   0.000019   0.000136   0.000016  -0.595302  -0.584459
     23       0.000474  -0.000801  -0.000316  -0.000093   0.215228   0.232590
     24      -0.001380  -0.003160   0.000265  -0.000942   0.312583  -0.317521
     25      -0.000230  -0.000020   0.000135  -0.000017   0.595362  -0.584374
     26      -0.000471  -0.000802   0.000315  -0.000093   0.215269  -0.232575
     27       0.300934  -0.226036  -0.174735  -0.068136  -0.001144  -0.001640
     28      -0.530463   0.397885   0.303285   0.115879  -0.000100   0.000178
     29      -0.000154   0.000196   0.000114   0.000003  -0.001345  -0.000748
     30       0.170706   0.189845   0.301263   0.190643   0.000512   0.000038
     31       0.305812   0.332214   0.531730   0.343500   0.001008  -0.000097
     32      -0.001396  -0.001548  -0.002432  -0.001570  -0.000163   0.000015
     33       0.000759  -0.529500  -0.000208   0.804462  -0.000603   0.000000
     34      -0.000529   0.000005  -0.004135  -0.000008  -0.000000  -0.000034
     35      -0.000002   0.001587   0.000001  -0.002455  -0.000545   0.000000
     36      -0.171900   0.189598  -0.301139   0.190494   0.000513  -0.000038
     37       0.307959  -0.331799   0.531547  -0.343255  -0.001007  -0.000096
     38       0.001408  -0.001548   0.002435  -0.001571  -0.000163  -0.000015
     39      -0.301645  -0.226465   0.174946  -0.068190  -0.001145   0.001641
     40      -0.531698  -0.398613   0.303645  -0.115973   0.000099   0.000179
     41       0.000157   0.000199  -0.000117   0.000005  -0.001345   0.000748


-----------
IR SPECTRUM
-----------

 Mode   freq       eps      Int      T**2         TX        TY        TZ
       cm**-1   L/(mol*cm) km/mol    a.u.
----------------------------------------------------------------------------
  6:    216.45   0.002782   14.06  0.004011  (-0.037141 -0.000001  0.051294)
  7:    295.47   0.007612   38.47  0.008040  (-0.000002 -0.089664 -0.000014)
  8:    375.07   0.000079    0.40  0.000066  (-0.000016  0.008112  0.000011)
  9:    418.09   0.000008    0.04  0.000006  (-0.000004 -0.002426  0.000005)
 10:    484.09   0.078669  397.56  0.050713  (-0.155603 -0.000003  0.162790)
 11:    529.71   0.004072   20.58  0.002399  (-0.047837 -0.000001  0.010516)
 12:    548.10   0.040478  204.56  0.023046  (-0.139517 -0.000002  0.059843)
 13:    621.31   0.000206    1.04  0.000104  (-0.000002  0.010174  0.000006)
 14:    703.85   0.011746   59.36  0.005208  (-0.008374  0.000002 -0.071676)
 15:    769.81   0.024650  124.57  0.009993  (-0.016202 -0.000000  0.098641)
 16:    837.09   0.002100   10.61  0.000783  (-0.026045  0.000000 -0.010228)
 17:    840.41   0.000012    0.06  0.000004  (-0.000005 -0.002112  0.000005)
 18:    899.71   0.003511   17.74  0.001218  ( 0.003984  0.000000 -0.034666)
 19:    987.59   0.000000    0.00  0.000000  ( 0.000001  0.000251 -0.000001)
 20:   1000.60   0.000055    0.28  0.000017  (-0.000761  0.000000  0.004055)
 21:   1010.58   0.000610    3.08  0.000188  (-0.012943 -0.000007 -0.004565)
 22:   1044.14   0.003178   16.06  0.000950  ( 0.030817 -0.000016 -0.000203)
 23:   1059.96   0.001125    5.69  0.000331  (-0.000008 -0.018200  0.000001)
 24:   1126.06   0.002946   14.89  0.000817  (-0.000009 -0.028575  0.000002)
 25:   1154.65   0.000816    4.12  0.000221  ( 0.000006  0.014851 -0.000000)
 26:   1180.85   0.003900   19.71  0.001031  ( 0.032078 -0.000004  0.001249)
 27:   1314.06   0.027640  139.68  0.006564  (-0.081006  0.000003 -0.001379)
 28:   1350.13   0.000368    1.86  0.000085  ( 0.000032  0.009221  0.000000)
 29:   1372.29   0.003897   19.70  0.000886  (-0.000012 -0.029771 -0.000000)
 30:   1498.89   0.000220    1.11  0.000046  (-0.000039  0.006761  0.000002)
 31:   1529.00   0.033187  167.71  0.006773  (-0.082276  0.000005  0.002025)
 32:   1621.40   0.016543   83.60  0.003184  ( 0.051959  0.000002  0.022005)
 33:   1642.06   0.003061   15.47  0.000582  (-0.000107  0.024120 -0.000008)
 34:   1661.09   0.056659  286.33  0.010644  ( 0.103117  0.000024  0.003373)
 35:   3173.64   0.004148   20.96  0.000408  (-0.020194  0.000019  0.000208)
 36:   3176.33   0.000184    0.93  0.000018  ( 0.000035  0.004249 -0.000000)
 37:   3188.40   0.001716    8.67  0.000168  ( 0.012960  0.000003 -0.000039)
 38:   3193.37   0.008329   42.09  0.000814  (-0.000005 -0.028530 -0.000000)
 39:   3209.36   0.003025   15.29  0.000294  (-0.017151 -0.000003 -0.000114)
 40:   3580.67   0.014181   71.67  0.001236  ( 0.033733  0.000002  0.009901)
 41:   3679.66   0.011301   57.11  0.000958  ( 0.000001 -0.030958 -0.000000)

* The epsilon (eps) is given for a Dirac delta lineshape.
** The dipole moment derivative (T) already includes vibrational overlap.

The first frequency considered to be a vibration is 6
The total number of vibrations considered is 36


--------------------------
THERMOCHEMISTRY AT 298.15K
--------------------------

Temperature         ...   298.15 K
Pressure            ...     1.00 atm
Total Mass          ...    93.13 AMU
Quasi RRHO          ...     True
Cut-Off Frequency   ...     1.00 cm^-1

Throughout the following assumptions are being made:
  (1) The electronic state is orbitally nondegenerate
  (2) There are no thermally accessible electronically excited states
  (3) Hindered rotations indicated by low frequency modes are not
      treated as such but are treated as vibrations and this may
      cause some error
  (4) All equations used are the standard statistical mechanics
      equations for an ideal gas
  (5) All vibrations are strictly harmonic

freq.     216.45  E(vib)   ...       0.34 
freq.     295.47  E(vib)   ...       0.27 
freq.     375.07  E(vib)   ...       0.21 
freq.     418.09  E(vib)   ...       0.18 
freq.     484.09  E(vib)   ...       0.15 
freq.     529.71  E(vib)   ...       0.13 
freq.     548.10  E(vib)   ...       0.12 
freq.     621.31  E(vib)   ...       0.09 
freq.     703.85  E(vib)   ...       0.07 
freq.     769.81  E(vib)   ...       0.05 
freq.     837.09  E(vib)   ...       0.04 
freq.     840.41  E(vib)   ...       0.04 
freq.     899.71  E(vib)   ...       0.03 
freq.     987.59  E(vib)   ...       0.02 
freq.    1000.60  E(vib)   ...       0.02 
freq.    1010.58  E(vib)   ...       0.02 
freq.    1044.14  E(vib)   ...       0.02 
freq.    1059.96  E(vib)   ...       0.02 
freq.    1126.06  E(vib)   ...       0.01 
freq.    1154.65  E(vib)   ...       0.01 
freq.    1180.85  E(vib)   ...       0.01 
freq.    1314.06  E(vib)   ...       0.01 
freq.    1350.13  E(vib)   ...       0.01 
freq.    1372.29  E(vib)   ...       0.01 
freq.    1498.89  E(vib)   ...       0.00 
freq.    1529.00  E(vib)   ...       0.00 
freq.    1621.40  E(vib)   ...       0.00 
freq.    1642.06  E(vib)   ...       0.00 
freq.    1661.09  E(vib)   ...       0.00 
freq.    3173.64  E(vib)   ...       0.00 
freq.    3176.33  E(vib)   ...       0.00 
freq.    3188.40  E(vib)   ...       0.00 
freq.    3193.37  E(vib)   ...       0.00 
freq.    3209.36  E(vib)   ...       0.00 
freq.    3580.67  E(vib)   ...       0.00 
freq.    3679.66  E(vib)   ...       0.00 

------------
INNER ENERGY
------------

The inner energy is: U= E(el) + E(ZPE) + E(vib) + E(rot) + E(trans)
    E(el)   - is the total energy from the electronic structure calculation
              = E(kin-el) + E(nuc-el) + E(el-el) + E(nuc-nuc)
    E(ZPE)  - the the zero temperature vibrational energy from the frequency calculation
    E(vib)  - the the finite temperature correction to E(ZPE) due to population
              of excited vibrational states
    E(rot)  - is the rotational thermal energy
    E(trans)- is the translational thermal energy

Summary of contributions to the inner energy U:
Electronic energy                ...   -287.39060773 Eh
Zero point energy                ...      0.11685620 Eh      73.33 kcal/mol
Thermal vibrational correction   ...      0.00303247 Eh       1.90 kcal/mol
Thermal rotational correction    ...      0.00141627 Eh       0.89 kcal/mol
Thermal translational correction ...      0.00141627 Eh       0.89 kcal/mol
-----------------------------------------------------------------------
Total thermal energy                   -287.26788651 Eh


Summary of corrections to the electronic energy:
(perhaps to be used in another calculation)
Total thermal correction                  0.00586502 Eh       3.68 kcal/mol
Non-thermal (ZPE) correction              0.11685620 Eh      73.33 kcal/mol
-----------------------------------------------------------------------
Total correction                          0.12272122 Eh      77.01 kcal/mol


--------
ENTHALPY
--------

The enthalpy is H = U + kB*T
                kB is Boltzmann's constant
Total thermal energy              ...   -287.26788651 Eh 
Thermal Enthalpy correction       ...      0.00094421 Eh       0.59 kcal/mol
-----------------------------------------------------------------------
Total Enthalpy                    ...   -287.26694231 Eh


Note: Rotational entropy computed according to Herzberg 
Infrared and Raman Spectra, Chapter V,1, Van Nostrand Reinhold, 1945 
Point Group:  Cs, Symmetry Number:   1  
Rotational constants in cm-1:     0.189078     0.087345     0.059831 

Vibrational entropy computed according to the QRRHO of S. Grimme
Chem.Eur.J. 2012 18 9955 using a reference frequency of 100.0 cm-1


-------
ENTROPY
-------

The entropy contributions are T*S = T*(S(el)+S(vib)+S(rot)+S(trans))
     S(el)   - electronic entropy
     S(vib)  - vibrational entropy
     S(rot)  - rotational entropy
     S(trans)- translational entropy
The entropies will be listed as multiplied by the temperature to get
units of energy

Electronic entropy                ...      0.00000000 Eh      0.00 kcal/mol
Vibrational entropy               ...      0.00445632 Eh      2.80 kcal/mol
Rotational entropy                ...      0.01277754 Eh      8.02 kcal/mol
Translational entropy             ...      0.01877043 Eh     11.78 kcal/mol
-----------------------------------------------------------------------
Final entropy term                ...      0.03600429 Eh     22.59 kcal/mol

In case the symmetry of your molecule has not been determined correctly
or in case you have a reason to use a different symmetry number we print 
out the resulting rotational entropy values for sn=1,12:

 non-linear molecules -----------------------------------
|  sn= 1 | S(rot)=       0.01277754 Eh      8.02 kcal/mol|
|  sn= 2 | S(rot)=       0.01212308 Eh      7.61 kcal/mol|
|  sn= 3 | S(rot)=       0.01174025 Eh      7.37 kcal/mol|
|  sn= 4 | S(rot)=       0.01146863 Eh      7.20 kcal/mol|
|  sn= 5 | S(rot)=       0.01125794 Eh      7.06 kcal/mol|
|  sn= 6 | S(rot)=       0.01108579 Eh      6.96 kcal/mol|
|  sn= 7 | S(rot)=       0.01094025 Eh      6.87 kcal/mol|
|  sn= 8 | S(rot)=       0.01081417 Eh      6.79 kcal/mol|
|  sn= 9 | S(rot)=       0.01070296 Eh      6.72 kcal/mol|
|  sn=10 | S(rot)=       0.01060348 Eh      6.65 kcal/mol|
|  sn=11 | S(rot)=       0.01051349 Eh      6.60 kcal/mol|
|  sn=12 | S(rot)=       0.01043134 Eh      6.55 kcal/mol|
 linear molecules ---------------------------------------
|  Dinfh | S(rot)=       0.00798484 Eh      5.01 kcal/mol|
|  Cinfv | S(rot)=       0.00863929 Eh      5.42 kcal/mol|
 --------------------------------------------------------


-------------------
GIBBS FREE ENERGY
-------------------

The Gibbs free energy is G = H - T*S

Total enthalpy                    ...   -287.26694231 Eh 
Total entropy correction          ...     -0.03600429 Eh    -22.59 kcal/mol
-----------------------------------------------------------------------
Final Gibbs free energy         ...   -287.30294659 Eh

For completeness - the Gibbs free energy minus the electronic energy
G-E(el)                           ...      0.08766114 Eh     55.01 kcal/mol


Maximum memory used throughout the entire PROP-calculation: 142.1 MB

--------------------------------
SUGGESTED CITATIONS FOR THIS RUN
--------------------------------

Below you find a list of papers that are relevant to this ORCA run
We neither can nor want to force you to cite these papers, but we appreciate if you do
You receive ORCA, which is the product of decades of hard work by many enthusiastic individuals, for free
The only thing we kindly ask in return is that you cite our papers,
We deeply appreciate it, if you show your appreciation for ORCA by not just citing the generic ORCA reference.

Please note that relegating all ORCA citations to the supporting information does *not* help us.
SI sections are not indexed - citations you put there will not count into any citation statistics
But we need these citations in order to attract the funding resources that allow us to do what we are doing

Therefore, if you are a happy ORCA user, please consider citing a few of the papers listed below in the main body of your paper

In addition to the list printed below, the program has created the file cs_rporg_075_red_freq_04.bibtex that contains the list in bibtex format
You can import this file easily into all common literature databanks and citation aid programs


List of essential papers. We consider these as the minimum necessary citations

  1. Neese,F.
     Software update: the ORCA program system, version 5.0
     WIRES Comput. Molec. Sci., 2022 12(1)e1606
     doi.org/10.1002/wcms.1606

List of papers to cite with high priority. The work reported in these papers was absolutely
necessary for this run to complete.
Our perspective: the developers of density functionals and basis sets usually get cited in chemistry papers
Good! But without the algorithms to do something with them, the functionals or basis sets would not do anything.
Hence, in our opinion, the algorithm design and method developments papers are equally worthy of getting cited

  1. Neese,F.
     An improvement of the resolution of the identity approximation for the formation of the Coulomb matrix
     J. Comp. Chem., 2003 24(14)1740-1747
     doi.org/10.1002/jcc.10318
  2. Neese,F.; Wennmohs,F.; Hansen,A.; Becker,U.
     Efficient, approximate and parallel Hartree-Fock and hybrid DFT calculations. A 'chain-of-spheres' algorithm for the Hartree-Fock exchange
     Chem. Phys., 2009 356(1-3)98-109
     doi.org/10.1016/j.chemphys.2008.10.036
  3. Bykov,D.; Petrenko,T.; Izsak,R.; Kossmann,S.; Becker,U.; Valeev,E.; Neese,F.
     Efficient implementation of the analytic second derivatives of Hartree-Fock and hybrid DFT energies: a detailed analysis of different approximations
     Molec. Phys., 2015 113 1961-1977
     doi.org/10.1080/00268976.2015.1025114
  4. Garcia-Rates,M.; Neese,F.
     Efficient implementation of the analytical second derivatives of hartree-fock and hybrid DFT energies within the framework of the conductor-like polarizable continuum model
     J. Comput. Chem., 2019 40 1816-1828
     doi.org/10.1002/jcc.25833
  5. Garcia-Rates,M.; Neese,F.
     Effect of the Solute Cavity on the Solvation Energy and its Derivatives within the Framework of the Gaussian Charge Scheme
     J. Comput. Chem., 2020 41 922-939
     doi.org/10.1002/jcc.26139
  6. Helmich-Paris,B.; de Souza,B.; Neese,F.; Izsák,R.
     An improved chain of spheres for exchange algorithm
     J. Chem. Phys., 2021 155 104109
     doi.org/doi: 10.1063/5.0058766.
  7. Neese,F.
     The SHARK Integral Generation and Digestion System
     J. Comp. Chem., 2022  1-16
     doi.org/10.1002/jcc.26942
  8. Grimme,S.; Antony,J.; Ehrlich,S.; Krieg,H.
     A consistent and accurate ab initio parametrization of density functional dispersion correction (DFT-D) for the 94 elements H-Pu
     J. Chem. Phys., 2010 132 154104-XXXX
     doi.org/10.1063/1.3382344
  9. Grimme,S.; Ehrlich,S.; Goerigk,L.
     Effect of the damping function in dispersion corrected density functional theory
     J. Comput. Chem., 2011 32(7)1456-1465
     doi.org/10.1002/jcc.21759

List of suggested additional citations. These are papers that are important in the 'surrounding' of 
of this run, or papers that preceded the highly important papers. If you like your results we are grateful for a citation.

  1. Izsak,R.; Neese,F.
     An overlap fitted chain of spheres exchange method
     J. Chem. Phys., 2011 135 144105
     doi.org/10.1063/1.3646921
  2. Izsak,R.; Hansen,A.; Neese,F.
     The resolution of identity and chain of spheres approximations for the LPNO-CCSD singles Fock term
     Molec. Phys., 2012 110 2413-2417
     doi.org/10.1080/00268976.2012.687466
  3. Neese,F.
     The ORCA program system
     WIRES Comput. Molec. Sci., 2012 2(1)73-78
     doi.org/10.1002/wcms.81
  4. Izsak,R.; Neese,F.; Klopper,W.
     Robust fitting techniques in the chain of spheres approximation to the Fock exchange: The role of the complementary space
     J. Chem. Phys., 2013 139 
     doi.org/10.1063/1.4819264
  5. Neese,F.
     Software update: the ORCA program system, version 4.0
     WIRES Comput. Molec. Sci., 2018 8(1)1-6
     doi.org/10.1002/wcms.1327
  6. Neese,F.; Wennmohs,F.; Becker,U.; Riplinger,C.
     The ORCA quantum chemistry program package
     J. Chem. Phys., 2020 152 Art. No. L224108
     doi.org/10.1063/5.0004608

List of optional additional citations

  1. Neese,F.
     Approximate second-order SCF convergence for spin unrestricted wavefunctions
     Chem. Phys. Lett., 2000 325(1-3)93-98
     doi.org/10.1016/s0009-2614(00)00662-x

Timings for individual modules:

Sum of individual times          ...     2288.233 sec (=  38.137 min)
Startup calculation              ...       20.253 sec (=   0.338 min)   0.9 %
SCF iterations                   ...      550.421 sec (=   9.174 min)  24.1 %
Property integrals               ...      263.936 sec (=   4.399 min)  11.5 %
SCF Response                     ...      893.653 sec (=  14.894 min)  39.1 %
Property calculations            ...      559.969 sec (=   9.333 min)  24.5 %
                             ****ORCA TERMINATED NORMALLY****
TOTAL RUN TIME: 0 days 0 hours 38 minutes 21 seconds 853 msec
