
                                 *****************
                                 * O   R   C   A *
                                 *****************

                                            #,                                       
                                            ###                                      
                                            ####                                     
                                            #####                                    
                                            ######                                   
                                           ########,                                 
                                     ,,################,,,,,                         
                               ,,#################################,,                 
                          ,,##########################################,,             
                       ,#########################################, ''#####,          
                    ,#############################################,,   '####,        
                  ,##################################################,,,,####,       
                ,###########''''           ''''###############################       
              ,#####''   ,,,,##########,,,,          '''####'''          '####       
            ,##' ,,,,###########################,,,                        '##       
           ' ,,###''''                  '''############,,,                           
         ,,##''                                '''############,,,,        ,,,,,,###''
      ,#''                                            '''#######################'''  
     '                                                          ''''####''''         
             ,#######,   #######,   ,#######,      ##                                
            ,#'     '#,  ##    ##  ,#'     '#,    #''#        ,####,   ,####,        
            ##       ##  ##   ,#'  ##            #'  '#       #'       #'  '#        
            ##       ##  #######   ##           ,######,      #####,   #    #        
            '#,     ,#'  ##    ##  '#,     ,#' ,#      #,     #,   #   #,  ,#        
             '#######'   ##     ##  '#######'  #'      '#     '####' # '####'        



                #########################################################
                #                        -***-                          #
                #          Department of theory and spectroscopy        #
                #                                                       #
                #                      Frank Neese                      #
                #                                                       #
                #     Directorship, Architecture, Infrastructure        #
                #                    SHARK, DRIVERS                     #
                #        Core code/Algorithms in most modules           #
                #                                                       #
                #        Max Planck Institute fuer Kohlenforschung      #
                #                Kaiser Wilhelm Platz 1                 #
                #                 D-45470 Muelheim/Ruhr                 #
                #                      Germany                          #
                #                                                       #
                #                  All rights reserved                  #
                #                        -***-                          #
                #########################################################


                         Program Version 6.0.0  -   RELEASE  -


 With contributions from (in alphabetic order):
   Daniel Aravena         : Magnetic Suceptibility
   Michael Atanasov       : Ab Initio Ligand Field Theory (pilot matlab implementation)
   Alexander A. Auer      : GIAO ZORA, VPT2 properties, NMR spectrum
   Ute Becker             : All parallelization in ORCA, NUMFREQ, NUMCALC
   Giovanni Bistoni       : ED, misc. LED, open-shell LED, HFLD
   Martin Brehm           : Molecular dynamics
   Dmytro Bykov           : pre 5.0 version of the SCF Hessian
   Marcos Casanova-Páez   : Triplet and SCS-CIS(D). UHF-(DLPNO)-IP/EA/STEOM-CCSD. UHF-CVS-IP/STEOM-CCSD
   Vijay G. Chilkuri      : MRCI spin determinant printing, contributions to CSF-ICE
   Pauline Colinet        : FMM embedding
   Dipayan Datta          : RHF DLPNO-CCSD density
   Achintya Kumar Dutta   : EOM-CC, STEOM-CC
   Nicolas Foglia         : Exact transition moments, OPA infrastructure, MCD improvements
   Dmitry Ganyushin       : Spin-Orbit,Spin-Spin,Magnetic field MRCI
   Miquel Garcia          : C-PCM and meta-GGA Hessian, CCSD/C-PCM, Gaussian charge scheme
   Tiago L. C. Gouveia    : GS-ROHF, GS-ROCIS
   Yang Guo               : DLPNO-NEVPT2, F12-NEVPT2, CIM, IAO-localization
   Andreas Hansen         : Spin unrestricted coupled pair/coupled cluster methods
   Ingolf Harden          : AUTO-CI MPn and infrastructure 
   Benjamin Helmich-Paris : MC-RPA, TRAH-(SCF,CASSCF), AVAS, COSX integrals, SCF dyn. polar.
   Lee Huntington         : MR-EOM, pCC
   Robert Izsak           : Overlap fitted RIJCOSX, COSX-SCS-MP3, EOM
   Riya Kayal             : Wick's Theorem for AUTO-CI, AUTO-CI UHF-CCSDT
   Emily Kempfer          : AUTO-CI, RHF CISDT and CCSDT
   Christian Kollmar      : KDIIS, OOCD, Brueckner-CCSD(T), CCSD density, CASPT2, CASPT2-K, improved NEVPT2
   Axel Koslowski         : Symmetry handling
   Simone Kossmann        : Meta GGA functionals, TD-DFT gradient, OOMP2, (MP2 Hessian; deprecated post 5.0)
   Lucas Lang             : DCDCAS
   Marvin Lechner         : AUTO-CI (C++ implementation), FIC-MRCC
   Spencer Leger          : CASSCF response
   Dagmar Lenk            : GEPOL surface, SMD, ORCA-2-JSON
   Dimitrios Liakos       : Extrapolation schemes; Compound Job, initial MDCI parallelization
   Dimitrios Manganas     : Further ROCIS development; embedding schemes. LFT, Crystal Embedding
   Dimitrios Pantazis     : SARC Basis sets
   Anastasios Papadopoulos: AUTO-CI, single reference methods and gradients
   Taras Petrenko         : pre 6.0 DFT Hessian and TD-DFT gradient, (ASA, deprecated), ECA, 1-Electron XAS/XES, NRVS
   Peter Pinski           : DLPNO-MP2, DLPNO-MP2 Gradient
   Christoph Reimann      : Effective Core Potentials
   Marius Retegan         : Local ZFS, SOC
   Christoph Riplinger    : Optimizer, TS searches, QM/MM, DLPNO-CCSD(T), (RO)-DLPNO pert. Triples
   Michael Roemelt        : Original ROCIS implementation
   Masaaki Saitow         : Open-shell DLPNO-CCSD energy and density
   Barbara Sandhoefer     : DKH picture change effects
   Kantharuban Sivalingam : CASSCF convergence/infrastructure, NEVPT2 and variants, FIC-MRCI
   Bernardo de Souza      : ESD, SOC TD-DFT
   Georgi Stoychev        : AutoAux, RI-MP2 NMR, DLPNO-MP2 response, X2C
   Van Anh Tran           : RI-MP2 g-tensors
   Willem Van den Heuvel  : Paramagnetic NMR
   Zikuan Wang            : NOTCH, Electric field optimization 
   Frank Wennmohs         : Technical directorship and infrastructure
   Hang Xu                : AUTO-CI-Response properties 


 We gratefully acknowledge several colleagues who have allowed us to
 interface, adapt or use parts of their codes:
   Stefan Grimme, W. Hujo, H. Kruse, P. Pracht,  : VdW corrections, initial TS optimization,
                  C. Bannwarth, S. Ehlert,         DFT functionals, gCP, sTDA/sTD-DF
                  L. Wittmann, M. Mueller
   Ed Valeev, F. Pavosevic, A. Kumar             : LibInt (2-el integral package), F12 methods
   Garnet Chan, S. Sharma, J. Yang, R. Olivares  : DMRG
   Ulf Ekstrom                                   : XCFun DFT Library
   Mihaly Kallay                                 : mrcc  (arbitrary order and MRCC methods)
   Frank Weinhold                                : gennbo (NPA and NBO analysis)
   Simon Mueller                                 : openCOSMO-RS
   Christopher J. Cramer and Donald G. Truhlar   : smd solvation model
   Lars Goerigk                                  : TD-DFT with DH, B97 family of functionals
   V. Asgeirsson, H. Jonsson                     : NEB implementation
   FAccTs GmbH                                   : IRC, NEB, NEB-TS, DLPNO-Multilevel, CI-OPT
                                                   MM, QMMM, 2- and 3-layer-ONIOM, Crystal-QMMM,
                                                   LR-CPCM, SF, NACMEs, symmetry and pop. for TD-DFT,
                                                   nearIR, NL-DFT gradient (VV10), updates on ESD,
                                                   ML-optimized integration grids, MBIS, APM,
                                                   GOAT, DOCKER, SOLVATOR, interface openCOSMO-RS
   S Lehtola, MJT Oliveira, MAL Marques          : LibXC Library
   Liviu Ungur et al                             : ANISO software


 Your calculation uses the libint2 library for the computation of 2-el integrals
 For citations please refer to: http://libint.valeyev.net

 Your ORCA version has been built with support for libXC version: 6.2.2
 For citations please refer to: https://libxc.gitlab.io

 This ORCA versions uses:
   CBLAS   interface :  Fast vector & matrix operations
   LAPACKE interface :  Fast linear algebra routines
   SCALAPACK package :  Parallel linear algebra routines
   Shared memory     :  Shared parallel matrices
   BLAS/LAPACK       :  OpenBLAS 0.3.27  USE64BITINT DYNAMIC_ARCH NO_AFFINITY Sandybridge SINGLE_THREADED
        Core in use  :  Sandybridge
   Copyright (c) 2011-2014, The OpenBLAS Project


NOTE: MaxCore=3000 MB was set to SCF,MP2,MDCI,CIPSI,MRCI and CIS
      => If you want to overwrite this, your respective input block should be placed after the MaxCore statement
Your calculation utilizes the atom-pairwise dispersion correction
with the Becke-Johnson damping scheme (D3BJ)


Warning: RI is on but no J-basis has been assigned. Assigning Def2/J (nothing to worry about!)
================================================================================

----- Orbital basis set information -----
Your calculation utilizes the basis: def2-SV(P)
   F. Weigend and R. Ahlrichs, Phys. Chem. Chem. Phys. 7, 3297 (2005).

----- AuxJ basis set information -----
Your calculation utilizes the auxiliary basis: def2/J
   F. Weigend, Phys. Chem. Chem. Phys. 8, 1057 (2006).

================================================================================
                                        WARNINGS
                       Please study these warnings very carefully!
================================================================================


WARNING: Geometry Optimization
  ===> : Switching off AutoStart
         For restart on a previous wavefunction, please use MOREAD

================================================================================
                                       INPUT FILE
================================================================================
NAME = cs_rporg_163_ox_opt_01.inp
|  1> !PBE0 def2-SV(p) Opt Freq d3 TightSCF SlowConv RIJCOSX defgrid2
|  2>  
|  3> %pal
|  4> nprocs 4
|  5> end
|  6>  
|  7> %scf
|  8> MaxIter 1500
|  9> end
| 10>  
| 11> %maxcore 3000
| 12>  
| 13> 
| 14>  
| 15> * xyz 0 1
| 16> C     0.2283743   -1.3186107    0.0002769 
| 17> C     1.6040066   -1.2148018    0.0003584 
| 18> C     2.1968211    0.0504047    0.0000033 
| 19> C     1.4066246    1.2027757   -0.0004616 
| 20> C     0.0309360    1.0896774   -0.0005105 
| 21> C    -0.5642277   -0.1712015   -0.0001373 
| 22> C    -2.0421656   -0.3349252   -0.0001762 
| 23> O    -2.6039735   -1.4092677   -0.0005067 
| 24> O    -2.6867744    0.8303385    0.0004160 
| 25> C    -4.1109533    0.7807621    0.0006188 
| 26> H    -4.4695663    0.2581602   -0.8879704 
| 27> H    -4.4433124    1.8148367    0.0025828 
| 28> H    -4.4692153    0.2548649    0.8874024 
| 29> H    -0.5890537    1.9714997   -0.0008496 
| 30> H     1.8789109    2.1734161   -0.0008034 
| 31> C     3.6065575    0.1654930   -0.0001045 
| 32> N     4.7499646    0.2593217    0.0003660 
| 33> H     2.2244312   -2.0980244    0.0006519 
| 34> H    -0.2561441   -2.2831278    0.0005177
| 35> *
| 36> 
| 37>                          ****END OF INPUT****
================================================================================

                       *****************************
                       * Geometry Optimization Run *
                       *****************************

Geometry optimization settings:
Update method            Update   .... BFGS
Choice of coordinates    CoordSys .... (2022) Redundant Internals
Initial Hessian          InHess   .... Almloef's Model
Max. no of cycles        MaxIter  .... 57

Convergence Tolerances:
Energy Change            TolE     ....  5.0000e-06 Eh
Max. Gradient            TolMAXG  ....  3.0000e-04 Eh/bohr
RMS Gradient             TolRMSG  ....  1.0000e-04 Eh/bohr
Max. Displacement        TolMAXD  ....  4.0000e-03 bohr
RMS Displacement         TolRMSD  ....  2.0000e-03 bohr
Strict Convergence                .... False

------------------------------------------------------------------------------
                        ORCA OPTIMIZATION COORDINATE SETUP
------------------------------------------------------------------------------

The optimization will be done in redundant internal coordinates (2022)
Making redundant internal coordinates   ...  (2022 redundants) done
Evaluating the initial hessian          ...  (Almloef) done
Evaluating the coordinates              ...  done
Calculating the B-matrix                .... done
Calculating the G-matrix                .... done
Diagonalizing the G-matrix              .... done
Small eigenvalue found = 1.236e-02
The first mode is                       ....   31
The number of degrees of freedom        ....   51

    -----------------------------------------------------------------
                    Redundant Internal Coordinates


    -----------------------------------------------------------------
         Definition                    Initial Value    Approx d2E/dq
    -----------------------------------------------------------------
      1. B(C   1,C   0)                  1.3795         0.649264   
      2. B(C   2,C   1)                  1.3972         0.608480   
      3. B(C   3,C   2)                  1.3973         0.608326   
      4. B(C   4,C   3)                  1.3803         0.647391   
      5. B(C   5,C   4)                  1.3943         0.615034   
      6. B(C   5,C   0)                  1.3945         0.614443   
      7. B(C   6,C   5)                  1.4870         0.437537   
      8. B(O   7,C   6)                  1.2124         1.074666   
      9. B(O   8,C   6)                  1.3317         0.693311   
     10. B(C   9,O   8)                  1.4250         0.492004   
     11. B(H  10,C   9)                  1.0915         0.358161   
     12. B(H  11,C   9)                  1.0862         0.365195   
     13. B(H  12,C   9)                  1.0915         0.358162   
     14. B(H  13,C   4)                  1.0780         0.376385   
     15. B(H  14,C   3)                  1.0794         0.374340   
     16. B(C  15,C   2)                  1.4144         0.571173   
     17. B(N  16,C  15)                  1.1473         1.365107   
     18. B(H  17,C   1)                  1.0794         0.374460   
     19. B(H  18,C   0)                  1.0794         0.374433   
     20. A(C   1,C   0,H  18)          120.9879         0.358044   
     21. A(C   5,C   0,H  18)          118.6919         0.354709   
     22. A(C   1,C   0,C   5)          120.3202         0.436977   
     23. A(C   0,C   1,C   2)          119.4210         0.436210   
     24. A(C   0,C   1,H  17)          120.7708         0.358049   
     25. A(C   2,C   1,H  17)          119.8082         0.354127   
     26. A(C   3,C   2,C  15)          119.7718         0.426265   
     27. A(C   1,C   2,C  15)          119.7727         0.426284   
     28. A(C   1,C   2,C   3)          120.4555         0.431129   
     29. A(C   2,C   3,C   4)          119.7391         0.435963   
     30. A(C   4,C   3,H  14)          120.6461         0.357854   
     31. A(C   2,C   3,H  14)          119.6148         0.354093   
     32. A(C   5,C   4,H  13)          119.6214         0.355079   
     33. A(C   3,C   4,C   5)          119.9682         0.436825   
     34. A(C   3,C   4,H  13)          120.4104         0.358185   
     35. A(C   0,C   5,C   6)          118.3144         0.407240   
     36. A(C   0,C   5,C   4)          120.0959         0.432737   
     37. A(C   4,C   5,C   6)          121.5897         0.407309   
     38. A(O   7,C   6,O   8)          123.4427         0.483257   
     39. A(C   5,C   6,O   8)          112.6294         0.413367   
     40. A(C   5,C   6,O   7)          123.9279         0.447195   
     41. A(C   6,O   8,C   9)          116.9571         0.419356   
     42. A(H  10,C   9,H  11)          110.9022         0.291235   
     43. A(O   8,C   9,H  11)          105.8241         0.338182   
     44. A(O   8,C   9,H  10)          110.1758         0.337088   
     45. A(H  11,C   9,H  12)          110.9042         0.291235   
     46. A(H  10,C   9,H  12)          108.8385         0.290347   
     47. A(O   8,C   9,H  12)          110.1768         0.337088   
     48. L(C   2,C  15,N  16,C   3, 2) 179.9441         0.490637   
     49. L(C   2,C  15,N  16,C   3, 1) 179.9760         0.490637   
     50. D(H  17,C   1,C   0,H  18)      0.0008         0.029346   
     51. D(C   2,C   1,C   0,H  18)    179.9983         0.029346   
     52. D(C   2,C   1,C   0,C   5)     -0.0009         0.029346   
     53. D(H  17,C   1,C   0,C   5)   -179.9984         0.029346   
     54. D(C  15,C   2,C   1,C   0)   -179.9912         0.025564   
     55. D(C   3,C   2,C   1,C   0)     -0.0015         0.025564   
     56. D(C  15,C   2,C   1,H  17)      0.0063         0.025564   
     57. D(C   3,C   2,C   1,H  17)    179.9961         0.025564   
     58. D(H  14,C   3,C   2,C  15)     -0.0059         0.025550   
     59. D(H  14,C   3,C   2,C   1)   -179.9957         0.025550   
     60. D(C   4,C   3,C   2,C  15)    179.9926         0.025550   
     61. D(C   4,C   3,C   2,C   1)      0.0029         0.025550   
     62. D(H  13,C   4,C   3,C   2)    179.9989         0.029165   
     63. D(C   5,C   4,C   3,H  14)    179.9966         0.029165   
     64. D(C   5,C   4,C   3,C   2)     -0.0019         0.029165   
     65. D(H  13,C   4,C   3,H  14)     -0.0026         0.029165   
     66. D(C   6,C   5,C   4,H  13)     -0.0008         0.026150   
     67. D(C   0,C   5,C   4,H  13)    179.9988         0.026150   
     68. D(C   0,C   5,C   4,C   3)     -0.0004         0.026150   
     69. D(C   6,C   5,C   0,H  18)      0.0022         0.026097   
     70. D(C   6,C   5,C   0,C   1)   -179.9986         0.026097   
     71. D(C   6,C   5,C   4,C   3)   -180.0000         0.026150   
     72. D(C   4,C   5,C   0,H  18)   -179.9974         0.026097   
     73. D(C   4,C   5,C   0,C   1)      0.0018         0.026097   
     74. D(O   8,C   6,C   5,C   4)     -0.0472         0.013066   
     75. D(O   8,C   6,C   5,C   0)    179.9532         0.013066   
     76. D(O   7,C   6,C   5,C   4)    179.9633         0.013066   
     77. D(O   7,C   6,C   5,C   0)     -0.0363         0.013066   
     78. D(C   9,O   8,C   6,O   7)     -0.0019         0.035931   
     79. D(C   9,O   8,C   6,C   5)   -179.9916         0.035931   
     80. D(H  10,C   9,O   8,C   6)    -60.1329         0.019119   
     81. D(H  12,C   9,O   8,C   6)     59.9682         0.019119   
     82. D(H  11,C   9,O   8,C   6)    179.9191         0.019119   
    -----------------------------------------------------------------

Number of atoms                         .... 19
Number of degrees of freedom            .... 82


         *************************************************************
         *                GEOMETRY OPTIMIZATION CYCLE   1            *
         *************************************************************
---------------------------------
CARTESIAN COORDINATES (ANGSTROEM)
---------------------------------
  C      0.228374   -1.318611    0.000277
  C      1.604007   -1.214802    0.000358
  C      2.196821    0.050405    0.000003
  C      1.406625    1.202776   -0.000462
  C      0.030936    1.089677   -0.000510
  C     -0.564228   -0.171202   -0.000137
  C     -2.042166   -0.334925   -0.000176
  O     -2.603973   -1.409268   -0.000507
  O     -2.686774    0.830338    0.000416
  C     -4.110953    0.780762    0.000619
  H     -4.469566    0.258160   -0.887970
  H     -4.443312    1.814837    0.002583
  H     -4.469215    0.254865    0.887402
  H     -0.589054    1.971500   -0.000850
  H      1.878911    2.173416   -0.000803
  C      3.606558    0.165493   -0.000105
  N      4.749965    0.259322    0.000366
  H      2.224431   -2.098024    0.000652
  H     -0.256144   -2.283128    0.000518

----------------------------
CARTESIAN COORDINATES (A.U.)
----------------------------
  NO LB      ZA    FRAG     MASS         X           Y           Z
   0 C     6.0000    0    12.011    0.431565   -2.491813    0.000523
   1 C     6.0000    0    12.011    3.031133   -2.295643    0.000677
   2 C     6.0000    0    12.011    4.151390    0.095251    0.000006
   3 C     6.0000    0    12.011    2.658135    2.272917   -0.000872
   4 C     6.0000    0    12.011    0.058461    2.059192   -0.000965
   5 C     6.0000    0    12.011   -1.066236   -0.323524   -0.000259
   6 C     6.0000    0    12.011   -3.859134   -0.632917   -0.000333
   7 O     8.0000    0    15.999   -4.920797   -2.663130   -0.000958
   8 O     8.0000    0    15.999   -5.077268    1.569112    0.000786
   9 C     6.0000    0    12.011   -7.768576    1.475427    0.001169
  10 H     1.0000    0     1.008   -8.446256    0.487852   -1.678021
  11 H     1.0000    0     1.008   -8.396644    3.429544    0.004881
  12 H     1.0000    0     1.008   -8.445593    0.481625    1.676948
  13 H     1.0000    0     1.008   -1.113150    3.725595   -0.001606
  14 H     1.0000    0     1.008    3.550627    4.107161   -0.001518
  15 C     6.0000    0    12.011    6.815406    0.312736   -0.000197
  16 N     7.0000    0    14.007    8.976132    0.490047    0.000692
  17 H     1.0000    0     1.008    4.203566   -3.964692    0.001232
  18 H     1.0000    0     1.008   -0.484042   -4.314486    0.000978

--------------------------------
INTERNAL COORDINATES (ANGSTROEM)
--------------------------------
 C      0   0   0     0.000000000000     0.00000000     0.00000000
 C      1   0   0     1.379543590890     0.00000000     0.00000000
 C      2   1   0     1.397203150994   119.42102502     0.00000000
 C      3   2   1     1.397272216279   120.45552560     0.00000000
 C      4   3   2     1.380329798282   119.73912362     0.00000000
 C      5   4   3     1.394286760154   119.96822015     0.00000000
 C      6   5   4     1.486978778501   121.58974579   180.00000475
 O      7   6   5     1.212369594241   123.92786421   179.96325852
 O      7   6   5     1.331675766197   112.62943320   359.95284481
 C      9   7   6     1.425041543173   116.95711125   180.00843471
 H     10   9   7     1.091470016083   110.17583012   299.86710101
 H     10   9   7     1.086175265330   105.82408111   179.91906773
 H     10   9   7     1.091469046213   110.17677219    59.96819290
 H      5   4   3     1.077960069702   120.41036224   179.99891229
 H      4   3   2     1.079443028653   119.61478926   180.00434923
 C      3   2   1     1.414426401727   119.77268587   180.00879869
 N     16   3   2     1.147250557919   179.96319611   229.22390151
 H      2   1   3     1.079355794712   120.77082116   180.00250952
 H      1   2   3     1.079375455583   120.98785701   179.99831643

---------------------------
INTERNAL COORDINATES (A.U.)
---------------------------
 C      0   0   0     0.000000000000     0.00000000     0.00000000
 C      1   0   0     2.606959576588     0.00000000     0.00000000
 C      2   1   0     2.640331308831   119.42102502     0.00000000
 C      3   2   1     2.640461823305   120.45552560     0.00000000
 C      4   3   2     2.608445293243   119.73912362     0.00000000
 C      5   4   3     2.634820128844   119.96822015     0.00000000
 C      6   5   4     2.809982658319   121.58974579   180.00000475
 O      7   6   5     2.291046506208   123.92786421   179.96325852
 O      7   6   5     2.516502497292   112.62943320   359.95284481
 C      9   7   6     2.692938246058   116.95711125   180.00843471
 H     10   9   7     2.062579413784   110.17583012   299.86710101
 H     10   9   7     2.052573784912   105.82408111   179.91906773
 H     10   9   7     2.062577580995   110.17677219    59.96819290
 H      5   4   3     2.037049315040   120.41036224   179.99891229
 H      4   3   2     2.039851701324   119.61478926   180.00434923
 C      3   2   1     2.672878535852   119.77268587   180.00879869
 N     16   3   2     2.167989361454   179.96319611   229.22390151
 H      2   1   3     2.039686853066   120.77082116   180.00250952
 H      1   2   3     2.039724006729   120.98785701   179.99831643

---------------------
BASIS SET INFORMATION
---------------------
There are 4 groups of distinct atoms

 Group   1 Type C   : 7s4p1d contracted to 3s2p1d pattern {511/31/1}
 Group   2 Type O   : 7s4p1d contracted to 3s2p1d pattern {511/31/1}
 Group   3 Type H   : 4s contracted to 2s pattern {31}
 Group   4 Type N   : 7s4p1d contracted to 3s2p1d pattern {511/31/1}

Atom   0C    basis set group =>   1
Atom   1C    basis set group =>   1
Atom   2C    basis set group =>   1
Atom   3C    basis set group =>   1
Atom   4C    basis set group =>   1
Atom   5C    basis set group =>   1
Atom   6C    basis set group =>   1
Atom   7O    basis set group =>   2
Atom   8O    basis set group =>   2
Atom   9C    basis set group =>   1
Atom  10H    basis set group =>   3
Atom  11H    basis set group =>   3
Atom  12H    basis set group =>   3
Atom  13H    basis set group =>   3
Atom  14H    basis set group =>   3
Atom  15C    basis set group =>   1
Atom  16N    basis set group =>   4
Atom  17H    basis set group =>   3
Atom  18H    basis set group =>   3
---------------------------------
AUXILIARY/J BASIS SET INFORMATION
---------------------------------
There are 4 groups of distinct atoms

 Group   1 Type C   : 12s5p4d2f1g contracted to 6s4p3d1f1g pattern {711111/2111/211/2/1}
 Group   2 Type O   : 12s5p4d2f1g contracted to 6s4p3d1f1g pattern {711111/2111/211/2/1}
 Group   3 Type H   : 5s2p1d contracted to 3s1p1d pattern {311/2/1}
 Group   4 Type N   : 12s5p4d2f1g contracted to 6s4p3d1f1g pattern {711111/2111/211/2/1}

Atom   0C    basis set group =>   1
Atom   1C    basis set group =>   1
Atom   2C    basis set group =>   1
Atom   3C    basis set group =>   1
Atom   4C    basis set group =>   1
Atom   5C    basis set group =>   1
Atom   6C    basis set group =>   1
Atom   7O    basis set group =>   2
Atom   8O    basis set group =>   2
Atom   9C    basis set group =>   1
Atom  10H    basis set group =>   3
Atom  11H    basis set group =>   3
Atom  12H    basis set group =>   3
Atom  13H    basis set group =>   3
Atom  14H    basis set group =>   3
Atom  15C    basis set group =>   1
Atom  16N    basis set group =>   4
Atom  17H    basis set group =>   3
Atom  18H    basis set group =>   3


           ************************************************************
           *        Program running with 4 parallel MPI-processes     *
           *              working on a common directory               *
           ************************************************************
------------------------------------------------------------------------------
                             ORCA STARTUP CALCULATIONS
                           -- RI-GTO INTEGRALS CHOSEN --
------------------------------------------------------------------------------
------------------------------------------------------------------------------
                   ___                                                        
                  /   \      - P O W E R E D   B Y -                         
                 /     \                                                     
                 |  |  |   _    _      __       _____    __    __             
                 |  |  |  | |  | |    /  \     |  _  \  |  |  /  |          
                  \  \/   | |  | |   /    \    | | | |  |  | /  /          
                 / \  \   | |__| |  /  /\  \   | |_| |  |  |/  /          
                |  |  |   |  __  | /  /__\  \  |    /   |      \           
                |  |  |   | |  | | |   __   |  |    \   |  |\   \          
                \     /   | |  | | |  |  |  |  | |\  \  |  | \   \       
                 \___/    |_|  |_| |__|  |__|  |_| \__\ |__|  \__/        
                                                                              
                      - O R C A' S   B I G   F R I E N D -                    
                                      &                                       
                       - I N T E G R A L  F E E D E R -                       
                                                                              
 v1 FN, 2020, v2 2021, v3 2022-2024                                           
------------------------------------------------------------------------------


----------------------
SHARK INTEGRAL PACKAGE
----------------------

Number of atoms                             ...     19
Number of basis functions                   ...    182
Number of shells                            ...     86
Maximum angular momentum                    ...      2
Integral batch strategy                     ... SHARK/LIBINT Hybrid
RI-J (if used) integral strategy            ... SPLIT-RIJ (Revised 2003 algorithm where possible)
Printlevel                                  ...      1
Contraction scheme used                     ... SEGMENTED contraction
Prescreening option                         ... SCHWARTZ
   Thresh                                   ... 2.500e-11
   Tcut                                     ... 2.500e-12
   Tpresel                                  ... 2.500e-12 
Coulomb Range Separation                    ... NOT USED
Exchange Range Separation                   ... NOT USED
Multipole approximations                    ... NOT USED
Finite Nucleus Model                        ... NOT USED
CABS basis                                  ... NOT available
Auxiliary Coulomb fitting basis             ... AVAILABLE
   # of basis functions in Aux-J            ...    665
   # of shells in Aux-J                     ...    215
   Maximum angular momentum in Aux-J        ...      4
Auxiliary J/K fitting basis                 ... NOT available
Auxiliary Correlation fitting basis         ... NOT available
Auxiliary 'external' fitting basis          ... NOT available

Checking pre-screening integrals            ... done (  0.0 sec) Dimension = 86
Check shell pair data                       ... done (  0.0 sec)
Shell pair information
Shell pair cut-off parameter TPreSel        ...   2.5e-12
Total number of shell pairs                 ...      3741
Shell pairs after pre-screening             ...      3225
Total number of primitive shell pairs       ...     15055
Primitive shell pairs kept                  ...      8898
          la=0 lb=0:   1080 shell pairs
          la=1 lb=0:   1077 shell pairs
          la=1 lb=1:    281 shell pairs
          la=2 lb=0:    478 shell pairs
          la=2 lb=1:    250 shell pairs
          la=2 lb=2:     59 shell pairs

Calculating one electron integrals          ... done (  0.0 sec)
Calculating RI/J V-Matrix + Cholesky decomp.... done (  0.1 sec)
Calculating Nuclear repulsion               ... done (  0.0 sec) ENN=    614.700122941576 Eh

Diagonalization of the overlap matrix:
Smallest eigenvalue                        ... 2.717e-04
Time for diagonalization                   ...    0.009 sec
Threshold for overlap eigenvalues          ... 1.000e-07
Number of eigenvalues below threshold      ... 0
Time for construction of square roots      ...    0.018 sec
Total time needed                          ...    0.050 sec

-------------------
DFT GRID GENERATION
-------------------

General Integration Accuracy     IntAcc      ... 4.388
Radial Grid Type                 RadialGrid  ... OptM3 with GC (2021)
Angular Grid (max. ang.)         AngularGrid ... 4 (Lebedev-302)
Angular grid pruning method      GridPruning ... 4 (adaptive)
Weight generation scheme         WeightScheme... mBecke (2022)
Basis function cutoff            BFCut       ... 1.0000e-11
Integration weight cutoff        WCut        ... 1.0000e-14
Partially contracted basis set               ... off
Rotationally invariant grid construction     ... off
Angular grids for H and He will be reduced by one unit

Total number of grid points                  ...    94803
Total number of batches                      ...     1487
Average number of points per batch           ...       63
Average number of grid points per atom       ...     4990

--------------------
COSX GRID GENERATION
--------------------

GRIDX 1
-------
General Integration Accuracy     IntAcc      ... 3.816
Radial Grid Type                 RadialGrid  ... OptM3 with GC (2021)
Angular Grid (max. ang.)         AngularGrid ... 1 (Lebedev-50)
Angular grid pruning method      GridPruning ... 4 (adaptive)
Weight generation scheme         WeightScheme... mBecke (2022)
Basis function cutoff            BFCut       ... 1.0000e-11
Integration weight cutoff        WCut        ... 1.0000e-14
Partially contracted basis set               ... on
Rotationally invariant grid construction     ... off
Angular grids for H and He will be reduced by one unit

Total number of grid points                  ...    12088
Total number of batches                      ...      104
Average number of points per batch           ...      116
Average number of grid points per atom       ...      636
UseSFitting                                  ... on

GRIDX 2
-------
General Integration Accuracy     IntAcc      ... 4.020
Radial Grid Type                 RadialGrid  ... OptM3 with GC (2021)
Angular Grid (max. ang.)         AngularGrid ... 2 (Lebedev-110)
Angular grid pruning method      GridPruning ... 4 (adaptive)
Weight generation scheme         WeightScheme... mBecke (2022)
Basis function cutoff            BFCut       ... 1.0000e-11
Integration weight cutoff        WCut        ... 1.0000e-14
Partially contracted basis set               ... on
Rotationally invariant grid construction     ... off
Angular grids for H and He will be reduced by one unit

Total number of grid points                  ...    26895
Total number of batches                      ...      220
Average number of points per batch           ...      122
Average number of grid points per atom       ...     1416
UseSFitting                                  ... on

GRIDX 3
-------
General Integration Accuracy     IntAcc      ... 4.338
Radial Grid Type                 RadialGrid  ... OptM3 with GC (2021)
Angular Grid (max. ang.)         AngularGrid ... 3 (Lebedev-194)
Angular grid pruning method      GridPruning ... 4 (adaptive)
Weight generation scheme         WeightScheme... mBecke (2022)
Basis function cutoff            BFCut       ... 1.0000e-11
Integration weight cutoff        WCut        ... 1.0000e-14
Partially contracted basis set               ... on
Rotationally invariant grid construction     ... off
Angular grids for H and He will be reduced by one unit

Total number of grid points                  ...    59224
Total number of batches                      ...      473
Average number of points per batch           ...      125
Average number of grid points per atom       ...     3117
UseSFitting                                  ... on
Initializing property integral containers    ... done (  0.1 sec)

SHARK setup successfully completed in   2.5 seconds

Maximum memory used throughout the entire STARTUP-calculation: 26.2 MB


           ************************************************************
           *        Program running with 4 parallel MPI-processes     *
           *              working on a common directory               *
           ************************************************************
-------------------------------------------------------------------------------
                                 ORCA GUESS
                   Start orbitals & Density for SCF / CASSCF
-------------------------------------------------------------------------------

------------
SCF SETTINGS
------------
Hamiltonian:
 Density Functional     Method          .... DFT(GTOs)
 Exchange Functional    Exchange        .... PBE
   PBE kappa parameter   XKappa         ....  0.804000
   PBE mue parameter    XMuePBE         ....  0.219520
 Correlation Functional Correlation     .... PBE
   PBE beta parameter  CBetaPBE         ....  0.066725
 LDA part of GGA corr.  LDAOpt          .... PW91-LDA
 Gradients option       PostSCFGGA      .... off
 Hybrid DFT is turned on
   Fraction HF Exchange ScalHFX         ....  0.250000
   Scaling of DF-GGA-X  ScalDFX         ....  0.750000
   Scaling of DF-GGA-C  ScalDFC         ....  1.000000
   Scaling of DF-LDA-C  ScalLDAC        ....  1.000000
   Perturbative correction              ....  0.000000
   NL short-range parameter             ....  6.900000
 RI-approximation to the Coulomb term is turned on
   Number of AuxJ basis functions       .... 665
   RIJ-COSX (HFX calculated with COS-X)).... on


General Settings:
 Integral files         IntName         .... cs_rporg_163_ox_opt_01
 Hartree-Fock type      HFTyp           .... RHF
 Total Charge           Charge          ....    0
 Multiplicity           Mult            ....    1
 Number of Electrons    NEL             ....   84
 Basis Dimension        Dim             ....  182
 Nuclear Repulsion      ENuc            ....    614.7001229416 Eh

Convergence Acceleration:
 AO-DIIS                CNVDIIS         .... on
   Start iteration      DIISMaxIt       ....     0
   Startup error        DIISStart       ....  0.200000
   # of expansion vecs  DIISMaxEq       ....     5
   Bias factor          DIISBfac        ....   1.050
   Max. coefficient     DIISMaxC        ....  10.000
 MO-DIIS                CNVKDIIS        .... off
 Trust-Rad. Augm. Hess. CNVTRAH         .... auto
   Auto Start mean grad. ratio tolernc. ....  1.125000
   Auto Start start iteration           ....    50
   Auto Start num. interpolation iter.  ....    10
   Max. Number of Micro iterations      ....    24
   Max. Number of Macro iterations      .... Maxiter - #DIIS iter
   Number of Davidson start vectors     ....     2
   Converg. threshold    (grad. norm)   ....   1.000e-05
   Grad. Scal. Fac. for Micro threshold ....   0.100
   Minimum threshold for Micro iter.    ....   1.000e-02
   NR start threshold (gradient norm)   ....   1.000e-04
   Initial trust radius                 ....   0.400
   Minimum AH scaling param. (alpha)    ....   1.000
   Maximum AH scaling param. (alpha)    .... 1000.000
   Quad. conv. algorithm                .... NR
   White noise on init. David. guess    .... on
   Maximum white noise                  ....   0.010
   Pseudo random numbers                .... off
   Inactive MOs                         .... canonical
   Orbital update algorithm             .... Taylor
   Preconditioner                       .... Diag
   Full preconditioner red. dimension   ....   250
 SOSCF                  CNVSOSCF        .... on
   Start iteration      SOSCFMaxIt      ....   150
   Startup grad/error   SOSCFStart      ....  0.001000
   Hessian update       SOSCFHessUp     .... L-BFGS
 Level Shifting         CNVShift        .... on
   Level shift para.    LevelShift      ....    0.2500
   Turn off err/grad.   ShiftErr        ....    0.0000
 Zerner damping         CNVZerner       .... off
 Static damping         CNVDamp         .... on
   Fraction old density DampFac         ....    0.8500
   Max. Damping (<1)    DampMax         ....    0.9800
   Min. Damping (>=0)   DampMin         ....    0.0000
   Turn off err/grad.   DampErr         ....    0.0300

SCF Procedure:
 Maximum # iterations   MaxIter         ....  1500
 SCF integral mode      SCFMode         .... Direct
   Integral package                     .... SHARK and LIBINT hybrid scheme
 Reset frequency        DirectResetFreq ....    20
 Integral Threshold     Thresh          ....  2.500e-11 Eh
 Primitive CutOff       TCut            ....  2.500e-12 Eh

Convergence Tolerance:
 Convergence Check Mode ConvCheckMode   .... Total+1el-Energy
 Convergence forced     ConvForced      .... 0
 Energy Change          TolE            ....  1.000e-08 Eh
 1-El. energy change                    ....  1.000e-05 Eh
 Orbital Gradient       TolG            ....  1.000e-05
 Orbital Rotation angle TolX            ....  1.000e-05
 DIIS Error             TolErr          ....  5.000e-07

------------------------------
INITIAL GUESS: MODEL POTENTIAL
------------------------------
Loading Hartree-Fock densities                     ... done
Calculating cut-offs                               ... done
Initializing the effective Hamiltonian             ... done
Setting up the integral package (SHARK)            ... done
Starting the Coulomb interaction                   ... done (   0.2 sec)
Making the grid                                    ... done (   0.3 sec)
Mapping shells                                     ... done
Starting the XC term evaluation                    ... done (   0.1 sec)
  promolecular density results
     # of electrons  =     83.993997334
     EX              =    -70.896918084
     EC              =     -2.798521175
     EX+EC           =    -73.695439259
Transforming the Hamiltonian                       ... done (   0.0 sec)
Diagonalizing the Hamiltonian                      ... done (   0.0 sec)
Back transforming the eigenvectors                 ... done (   0.0 sec)
Now organizing SCF variables                       ... done
                      ------------------
                      INITIAL GUESS DONE (   0.6 sec)
                      ------------------
             **** ENERGY FILE WAS UPDATED (cs_rporg_163_ox_opt_01.en.tmp) ****
Finished Guess after   1.1 sec
Maximum memory used throughout the entire GUESS-calculation: 14.3 MB


           ************************************************************
           *        Program running with 4 parallel MPI-processes     *
           *              working on a common directory               *
           ************************************************************

-------------------------------------------------------------------------------------------
                                      ORCA LEAN-SCF
                              memory conserving SCF solver
-------------------------------------------------------------------------------------------

----------------------------------------D-I-I-S--------------------------------------------
Iteration    Energy (Eh)           Delta-E    RMSDP     MaxDP     DIISErr   Damp  Time(sec)
-------------------------------------------------------------------------------------------
               ***  Starting incremental Fock matrix formation  ***
    1    -551.0646428329982882     0.00e+00  1.90e-03  4.64e-02  2.49e-01  0.850   2.6
    2    -551.1351882384062719    -7.05e-02  1.80e-03  4.28e-02  1.74e-01  0.850   1.6
                               ***Turning on AO-DIIS***
    3    -551.1780167825374974    -4.28e-02  1.06e-03  1.86e-02  1.10e-01  0.850   1.7
    4    -551.2051835431600466    -2.72e-02  7.47e-04  1.08e-02  8.63e-02  0.850   1.7
    5    -551.2247383478925258    -1.96e-02  5.67e-04  8.28e-03  7.30e-02  0.850   1.7
    6    -551.2402046418483224    -1.55e-02  4.58e-04  7.53e-03  6.26e-02  0.850   1.8
    7    -551.2529938559384846    -1.28e-02  3.88e-04  7.35e-03  5.30e-02  0.850   1.7
    8    -551.2636897561919795    -1.07e-02  3.34e-04  5.95e-03  4.36e-02  0.850   1.6
    9    -551.2724818668523312    -8.79e-03  2.86e-04  4.62e-03  3.61e-02  0.850   1.6
   10    -551.2797305645342476    -7.25e-03  2.42e-04  3.77e-03  3.04e-02  0.850   1.6
   11    -551.2857595869108991    -6.03e-03  2.03e-04  3.27e-03  2.57e-02  0.850   1.6
   12    -551.2908100224096870    -5.05e-03  1.14e-03  1.91e-02  2.17e-02  0.000   1.5
   13    -551.3180689304078896    -2.73e-02  7.16e-05  2.43e-03  3.32e-03  0.000   1.6
   14    -551.3180831885485986    -1.43e-05  2.78e-05  8.93e-04  2.14e-03  0.000   1.5
                              *** Initializing SOSCF ***
---------------------------------------S-O-S-C-F--------------------------------------
Iteration    Energy (Eh)           Delta-E    RMSDP     MaxDP     MaxGrad    Time(sec)
--------------------------------------------------------------------------------------
   15    -551.3180902747992604    -7.09e-06  7.15e-06  2.06e-04  4.46e-04     1.5
               *** Restarting incremental Fock matrix formation ***
   16    -551.3180612196199490     2.91e-05  2.15e-05  5.21e-04  6.04e-05     2.5
   17    -551.3180611800307815     3.96e-08  6.50e-06  1.36e-04  1.27e-04     1.8
   18    -551.3180613014790197    -1.21e-07  4.87e-06  8.41e-05  2.26e-05     1.7
   19    -551.3180612955566176     5.92e-09  1.61e-06  4.90e-05  3.03e-05     1.7
                 **** Energy Check signals convergence ****

               *****************************************************
               *                     SUCCESS                       *
               *           SCF CONVERGED AFTER  19 CYCLES          *
               *****************************************************

Recomputing exchange energy using gridx3       ... done (    3.238 sec)
Old exchange energy                            :    -18.020948438 Eh
New exchange energy                            :    -18.021009591 Eh
Exchange energy change after final integration :     -0.000061153 Eh
Total energy after final integration           :   -551.318122449 Eh
             **** ENERGY FILE WAS UPDATED (cs_rporg_163_ox_opt_01.en.tmp) ****

----------------
TOTAL SCF ENERGY
----------------

Total Energy       :       -551.31812244869013 Eh          -15002.12881 eV

Components:
Nuclear Repulsion  :        614.70012294157573 Eh           16726.84072 eV
Electronic Energy  :      -1166.01818423713235 Eh          -31728.96786 eV
One Electron Energy:      -1966.53747485253552 Eh          -53512.20520 eV
Two Electron Energy:        800.51929061540318 Eh           21783.23734 eV

Virial components:
Potential Energy   :      -1098.20360868021498 Eh          -29883.63945 eV
Kinetic Energy     :        546.88548623152496 Eh           14881.51064 eV
Virial Ratio       :          2.00810523652348

DFT components:
N(Alpha)           :       42.000030331886 electrons
N(Beta)            :       42.000030331886 electrons
N(Total)           :       84.000060663771 electrons
E(X)               :      -53.971632076801 Eh       
E(C)               :       -2.818690072788 Eh       
E(XC)              :      -56.790322149589 Eh       

---------------
SCF CONVERGENCE
---------------

  Last Energy change         ...   -5.9224e-09  Tolerance :   1.0000e-08
  Last MAX-Density change    ...    4.9007e-05  Tolerance :   1.0000e-07
  Last RMS-Density change    ...    1.6097e-06  Tolerance :   5.0000e-09
  Last DIIS Error            ...    4.4592e-04  Tolerance :   5.0000e-07
  Last Orbital Gradient      ...    3.0349e-05  Tolerance :   1.0000e-05
  Last Orbital Rotation      ...    1.4812e-05  Tolerance :   1.0000e-05


----------------
ORBITAL ENERGIES
----------------

  NO   OCC          E(Eh)            E(eV) 
   0   2.0000     -19.275134      -524.5031 
   1   2.0000     -19.210800      -522.7525 
   2   2.0000     -14.396633      -391.7523 
   3   2.0000     -10.376130      -282.3488 
   4   2.0000     -10.298012      -280.2232 
   5   2.0000     -10.293987      -280.1136 
   6   2.0000     -10.278311      -279.6871 
   7   2.0000     -10.277061      -279.6530 
   8   2.0000     -10.272641      -279.5328 
   9   2.0000     -10.272154      -279.5195 
  10   2.0000     -10.268167      -279.4110 
  11   2.0000     -10.266324      -279.3609 
  12   2.0000      -1.147241       -31.2180 
  13   2.0000      -1.048453       -28.5299 
  14   2.0000      -0.941582       -25.6218 
  15   2.0000      -0.915840       -24.9213 
  16   2.0000      -0.832734       -22.6599 
  17   2.0000      -0.803088       -21.8531 
  18   2.0000      -0.769365       -20.9355 
  19   2.0000      -0.696684       -18.9577 
  20   2.0000      -0.660615       -17.9763 
  21   2.0000      -0.607307       -16.5257 
  22   2.0000      -0.596975       -16.2445 
  23   2.0000      -0.564398       -15.3580 
  24   2.0000      -0.523859       -14.2549 
  25   2.0000      -0.521026       -14.1778 
  26   2.0000      -0.497976       -13.5506 
  27   2.0000      -0.483690       -13.1619 
  28   2.0000      -0.473463       -12.8836 
  29   2.0000      -0.464555       -12.6412 
  30   2.0000      -0.446966       -12.1626 
  31   2.0000      -0.425036       -11.5658 
  32   2.0000      -0.423241       -11.5170 
  33   2.0000      -0.400449       -10.8968 
  34   2.0000      -0.385226       -10.4825 
  35   2.0000      -0.379660       -10.3311 
  36   2.0000      -0.374373       -10.1872 
  37   2.0000      -0.358659        -9.7596 
  38   2.0000      -0.335126        -9.1193 
  39   2.0000      -0.307924        -8.3790 
  40   2.0000      -0.303423        -8.2566 
  41   2.0000      -0.292875        -7.9695 
  42   0.0000      -0.083109        -2.2615 
  43   0.0000      -0.033543        -0.9128 
  44   0.0000       0.018547         0.5047 
  45   0.0000       0.039568         1.0767 
  46   0.0000       0.064095         1.7441 
  47   0.0000       0.080575         2.1926 
  48   0.0000       0.100009         2.7214 
  49   0.0000       0.101510         2.7622 
  50   0.0000       0.114699         3.1211 
  51   0.0000       0.125252         3.4083 
  52   0.0000       0.137984         3.7547 
*Only the first 10 virtual orbitals were printed.

                    ********************************
                    * MULLIKEN POPULATION ANALYSIS *
                    ********************************

-----------------------
MULLIKEN ATOMIC CHARGES
-----------------------
   0 C :   -0.093252
   1 C :   -0.060705
   2 C :   -0.070611
   3 C :   -0.060783
   4 C :   -0.085525
   5 C :   -0.049874
   6 C :    0.296614
   7 O :   -0.246249
   8 O :   -0.324600
   9 C :   -0.133657
  10 H :    0.143874
  11 H :    0.145416
  12 H :    0.143909
  13 H :    0.112087
  14 H :    0.106819
  15 C :   -0.062824
  16 N :    0.012468
  17 H :    0.108758
  18 H :    0.118136
Sum of atomic charges:    0.0000000

--------------------------------
MULLIKEN REDUCED ORBITAL CHARGES
--------------------------------
  0 C s       :     3.264170  s :     3.264170
      pz      :     0.935792  p :     2.791940
      px      :     0.918333
      py      :     0.937815
      dz2     :     0.003455  d :     0.037142
      dxz     :     0.006005
      dyz     :     0.003124
      dx2y2   :     0.011252
      dxy     :     0.013307

  1 C s       :     3.245914  s :     3.245914
      pz      :     0.967208  p :     2.777469
      px      :     0.912645
      py      :     0.897617
      dz2     :     0.003539  d :     0.037321
      dxz     :     0.005328
      dyz     :     0.003709
      dx2y2   :     0.010236
      dxy     :     0.014510

  2 C s       :     2.976113  s :     2.976113
      pz      :     1.028116  p :     3.048372
      px      :     1.025875
      py      :     0.994381
      dz2     :     0.003323  d :     0.046126
      dxz     :     0.005573
      dyz     :     0.007391
      dx2y2   :     0.016516
      dxy     :     0.013323

  3 C s       :     3.242619  s :     3.242619
      pz      :     0.968347  p :     2.780892
      px      :     0.928600
      py      :     0.883945
      dz2     :     0.003543  d :     0.037273
      dxz     :     0.005948
      dyz     :     0.003101
      dx2y2   :     0.011013
      dxy     :     0.013667

  4 C s       :     3.255483  s :     3.255483
      pz      :     0.947589  p :     2.792800
      px      :     0.895278
      py      :     0.949934
      dz2     :     0.003468  d :     0.037242
      dxz     :     0.005443
      dyz     :     0.003692
      dx2y2   :     0.010556
      dxy     :     0.014083

  5 C s       :     3.059682  s :     3.059682
      pz      :     1.009851  p :     2.950035
      px      :     0.978735
      py      :     0.961449
      dz2     :     0.003168  d :     0.040157
      dxz     :     0.003828
      dyz     :     0.006923
      dx2y2   :     0.015039
      dxy     :     0.011200

  6 C s       :     2.985204  s :     2.985204
      pz      :     0.817298  p :     2.580055
      px      :     0.939585
      py      :     0.823172
      dz2     :     0.007384  d :     0.138127
      dxz     :     0.010183
      dyz     :     0.029752
      dx2y2   :     0.047636
      dxy     :     0.043173

  7 O s       :     3.749290  s :     3.749290
      pz      :     1.401877  p :     4.478327
      px      :     1.669130
      py      :     1.407320
      dz2     :     0.002056  d :     0.018632
      dxz     :     0.001287
      dyz     :     0.004729
      dx2y2   :     0.004895
      dxy     :     0.005665

  8 O s       :     3.746100  s :     3.746100
      pz      :     1.748941  p :     4.561557
      px      :     1.302676
      py      :     1.509939
      dz2     :     0.002254  d :     0.016943
      dxz     :     0.001912
      dyz     :     0.002520
      dx2y2   :     0.005734
      dxy     :     0.004523

  9 C s       :     3.151972  s :     3.151972
      pz      :     1.121716  p :     2.925697
      px      :     0.702490
      py      :     1.101490
      dz2     :     0.009765  d :     0.055988
      dxz     :     0.012227
      dyz     :     0.006367
      dx2y2   :     0.017567
      dxy     :     0.010062

 10 H s       :     0.856126  s :     0.856126

 11 H s       :     0.854584  s :     0.854584

 12 H s       :     0.856091  s :     0.856091

 13 H s       :     0.887913  s :     0.887913

 14 H s       :     0.893181  s :     0.893181

 15 C s       :     3.071474  s :     3.071474
      pz      :     0.957391  p :     2.943479
      px      :     1.027949
      py      :     0.958139
      dz2     :     0.003369  d :     0.047871
      dxz     :     0.018220
      dyz     :     0.000183
      dx2y2   :     0.009703
      dxy     :     0.016395

 16 N s       :     3.579625  s :     3.579625
      pz      :     1.045879  p :     3.374276
      px      :     1.290909
      py      :     1.037488
      dz2     :     0.003040  d :     0.033630
      dxz     :     0.010557
      dyz     :     0.000071
      dx2y2   :     0.009126
      dxy     :     0.010836

 17 H s       :     0.891242  s :     0.891242

 18 H s       :     0.881864  s :     0.881864



                     *******************************
                     * LOEWDIN POPULATION ANALYSIS *
                     *******************************

----------------------
LOEWDIN ATOMIC CHARGES
----------------------
   0 C :   -0.082813
   1 C :   -0.088894
   2 C :   -0.068737
   3 C :   -0.090066
   4 C :   -0.093525
   5 C :   -0.069374
   6 C :    0.086706
   7 O :   -0.181695
   8 O :   -0.100826
   9 C :   -0.195936
  10 H :    0.125926
  11 H :    0.126368
  12 H :    0.125942
  13 H :    0.144929
  14 H :    0.145751
  15 C :   -0.022905
  16 N :   -0.057307
  17 H :    0.146776
  18 H :    0.149682

-------------------------------
LOEWDIN REDUCED ORBITAL CHARGES
-------------------------------
  0 C s       :     2.891701  s :     2.891701
      pz      :     0.937567  p :     3.098734
      px      :     1.077115
      py      :     1.084051
      dz2     :     0.007275  d :     0.092378
      dxz     :     0.012195
      dyz     :     0.005545
      dx2y2   :     0.031492
      dxy     :     0.035871

  1 C s       :     2.890111  s :     2.890111
      pz      :     0.963733  p :     3.106071
      px      :     1.080505
      py      :     1.061833
      dz2     :     0.007401  d :     0.092712
      dxz     :     0.010404
      dyz     :     0.006942
      dx2y2   :     0.029427
      dxy     :     0.038537

  2 C s       :     2.835659  s :     2.835659
      pz      :     0.989790  p :     3.114053
      px      :     1.027049
      py      :     1.097214
      dz2     :     0.008360  d :     0.119025
      dxz     :     0.011533
      dyz     :     0.014865
      dx2y2   :     0.046795
      dxy     :     0.037472

  3 C s       :     2.890173  s :     2.890173
      pz      :     0.965455  p :     3.107195
      px      :     1.076443
      py      :     1.065297
      dz2     :     0.007426  d :     0.092698
      dxz     :     0.011981
      dyz     :     0.005489
      dx2y2   :     0.031027
      dxy     :     0.036775

  4 C s       :     2.891319  s :     2.891319
      pz      :     0.947185  p :     3.109152
      px      :     1.082521
      py      :     1.079445
      dz2     :     0.007328  d :     0.093055
      dxz     :     0.010837
      dyz     :     0.006968
      dx2y2   :     0.030185
      dxy     :     0.037737

  5 C s       :     2.858835  s :     2.858835
      pz      :     0.976951  p :     3.103514
      px      :     1.034822
      py      :     1.091742
      dz2     :     0.008381  d :     0.107025
      dxz     :     0.007430
      dyz     :     0.013967
      dx2y2   :     0.043130
      dxy     :     0.034118

  6 C s       :     2.832930  s :     2.832930
      pz      :     0.813931  p :     2.777042
      px      :     1.002077
      py      :     0.961034
      dz2     :     0.017434  d :     0.303322
      dxz     :     0.017941
      dyz     :     0.056363
      dx2y2   :     0.112842
      dxy     :     0.098741

  7 O s       :     3.548243  s :     3.548243
      pz      :     1.396022  p :     4.601991
      px      :     1.688786
      py      :     1.517183
      dz2     :     0.004438  d :     0.031461
      dxz     :     0.001536
      dyz     :     0.005717
      dx2y2   :     0.008666
      dxy     :     0.011104

  8 O s       :     3.442831  s :     3.442831
      pz      :     1.721636  p :     4.625303
      px      :     1.344785
      py      :     1.558882
      dz2     :     0.004328  d :     0.032692
      dxz     :     0.003547
      dyz     :     0.003106
      dx2y2   :     0.011658
      dxy     :     0.010054

  9 C s       :     2.964872  s :     2.964872
      pz      :     1.159394  p :     3.112145
      px      :     0.800668
      py      :     1.152084
      dz2     :     0.020384  d :     0.118919
      dxz     :     0.026457
      dyz     :     0.013828
      dx2y2   :     0.037321
      dxy     :     0.020929

 10 H s       :     0.874074  s :     0.874074

 11 H s       :     0.873632  s :     0.873632

 12 H s       :     0.874058  s :     0.874058

 13 H s       :     0.855071  s :     0.855071

 14 H s       :     0.854249  s :     0.854249

 15 C s       :     2.898207  s :     2.898207
      pz      :     0.936521  p :     3.010896
      px      :     1.157094
      py      :     0.917281
      dz2     :     0.010528  d :     0.113803
      dxz     :     0.036878
      dyz     :     0.000315
      dx2y2   :     0.031326
      dxy     :     0.034756

 16 N s       :     3.420001  s :     3.420001
      pz      :     1.054340  p :     3.581623
      px      :     1.476291
      py      :     1.050993
      dz2     :     0.006487  d :     0.055683
      dxz     :     0.014632
      dyz     :     0.000098
      dx2y2   :     0.019301
      dxy     :     0.015165

 17 H s       :     0.853224  s :     0.853224

 18 H s       :     0.850318  s :     0.850318



                      *****************************
                      * MAYER POPULATION ANALYSIS *
                      *****************************

  NA   - Mulliken gross atomic population
  ZA   - Total nuclear charge
  QA   - Mulliken gross atomic charge
  VA   - Mayer's total valence
  BVA  - Mayer's bonded valence
  FA   - Mayer's free valence

  ATOM       NA         ZA         QA         VA         BVA        FA
  0 C      6.0933     6.0000    -0.0933     3.8656     3.8656    -0.0000
  1 C      6.0607     6.0000    -0.0607     3.8162     3.8162    -0.0000
  2 C      6.0706     6.0000    -0.0706     3.9395     3.9395    -0.0000
  3 C      6.0608     6.0000    -0.0608     3.8256     3.8256    -0.0000
  4 C      6.0855     6.0000    -0.0855     3.8263     3.8263     0.0000
  5 C      6.0499     6.0000    -0.0499     3.7682     3.7682     0.0000
  6 C      5.7034     6.0000     0.2966     4.2245     4.2245     0.0000
  7 O      8.2462     8.0000    -0.2462     2.2564     2.2564     0.0000
  8 O      8.3246     8.0000    -0.3246     2.1985     2.1985     0.0000
  9 C      6.1337     6.0000    -0.1337     3.8283     3.8283     0.0000
 10 H      0.8561     1.0000     0.1439     0.9567     0.9567     0.0000
 11 H      0.8546     1.0000     0.1454     0.9505     0.9505     0.0000
 12 H      0.8561     1.0000     0.1439     0.9568     0.9568     0.0000
 13 H      0.8879     1.0000     0.1121     0.9708     0.9708    -0.0000
 14 H      0.8932     1.0000     0.1068     0.9568     0.9568    -0.0000
 15 C      6.0628     6.0000    -0.0628     4.0591     4.0591     0.0000
 16 N      6.9875     7.0000     0.0125     3.1348     3.1348     0.0000
 17 H      0.8912     1.0000     0.1088     0.9567     0.9567     0.0000
 18 H      0.8819     1.0000     0.1181     0.9727     0.9727    -0.0000

  Mayer bond orders larger than 0.100000
B(  0-C ,  1-C ) :   1.3662 B(  0-C ,  5-C ) :   1.3936 B(  0-C , 18-H ) :   0.9587 
B(  1-C ,  2-C ) :   1.3495 B(  1-C , 17-H ) :   0.9707 B(  2-C ,  3-C ) :   1.3576 
B(  2-C , 15-C ) :   1.0810 B(  3-C ,  4-C ) :   1.3662 B(  3-C , 14-H ) :   0.9689 
B(  4-C ,  5-C ) :   1.3694 B(  4-C , 13-H ) :   0.9606 B(  5-C ,  6-C ) :   0.9436 
B(  6-C ,  7-O ) :   2.0547 B(  6-C ,  8-O ) :   1.2153 B(  8-O ,  9-C ) :   0.9017 
B(  9-C , 10-H ) :   0.9526 B(  9-C , 11-H ) :   0.9581 B(  9-C , 12-H ) :   0.9525 
B( 15-C , 16-N ) :   2.9979 

-------
TIMINGS
-------

Total SCF time: 0 days 0 hours 0 min 37 sec 

Total time                  ....      37.296 sec
Sum of individual times     ....      36.629 sec  ( 98.2%)

SCF preparation             ....       0.534 sec  (  1.4%)
Fock matrix formation       ....      31.383 sec  ( 84.1%)
  Startup                   ....       0.658 sec  (  2.1% of F)
  Split-RI-J                ....       4.177 sec  ( 13.3% of F)
  Chain of spheres X        ....      18.423 sec  ( 58.7% of F)
  XC integration            ....       6.606 sec  ( 21.1% of F)
    XC Preparation          ....       0.000 sec  (  0.0% of XC)
    Basis function eval.    ....       2.132 sec  ( 32.3% of XC)
    Density eval.           ....       0.985 sec  ( 14.9% of XC)
    XC-Functional eval.     ....       0.467 sec  (  7.1% of XC)
    XC-Potential eval.      ....       0.983 sec  ( 14.9% of XC)
Diagonalization             ....       0.000 sec  (  0.0%)
Density matrix formation    ....       1.229 sec  (  3.3%)
Total Energy calculation    ....       0.508 sec  (  1.4%)
Population analysis         ....       0.138 sec  (  0.4%)
Orbital Transformation      ....       0.128 sec  (  0.3%)
Orbital Orthonormalization  ....       0.000 sec  (  0.0%)
DIIS solution               ....       2.413 sec  (  6.5%)
SOSCF solution              ....       0.296 sec  (  0.8%)
Finished LeanSCF after  37.4 sec

Maximum memory used throughout the entire LEANSCF-calculation: 19.7 MB


           ************************************************************
           *        Program running with 4 parallel MPI-processes     *
           *              working on a common directory               *
           ************************************************************

------------------------------------------------------------------------------
                         ORCA PROPERTY INTEGRAL CALCULATIONS
------------------------------------------------------------------------------

GBWName                                   ... cs_rporg_163_ox_opt_01.gbw
Number of atoms                           ...     19
Number of basis functions                 ...    182
Max core memory                           ...   3000 MB

Dipole integrals                          ... YES
Quadrupole integrals                      ...  NO
Linear momentum integrals                 ...  NO
Angular momentum integrals                ...  NO
Higher moments length integrals           ...  NO
Higher moments velocity integrals         ...  NO
Kinetic energy integrals                  ...  NO
GIAO right hand sides                     ...  NO
GIAO dipole derivative integrals          ...  NO
SOC integrals                             ...  NO
EPR diamagnetic integrals (GIAO)          ...  NO
EPR gauge integrals                       ...  NO
Field gradient integrals                  ...  NO (   0 nuclei)
Spin-dipole/Fermi contact integrals       ...  NO (   0 nuclei)
Contact density integrals                 ...  NO (   0 nuclei)
Nucleus-orbit integrals                   ...  NO (   0 nuclei)
Geometric perturbations                   ...  NO (  19 nuclei)

Choice of electric origin   ... Center of mass
Position of electric origin ... ( -0.0002, -0.0061,  0.0000) 
Choice of magnetic origin   ... GIAO
Position of magnetic origin ... (  0.0000,  0.0000,  0.0000) 

Calculating integrals                     ... Electric Dipole (Length)     done (  0.0 sec)

Property integrals calculated in   0.0 sec

Maximum memory used throughout the entire PROPINT-calculation: 10.5 MB


-------------------------------------------------------------------------------
                          DFT DISPERSION CORRECTION                            
                                                                               
                              DFTD3 V3.1  Rev 1                                
                          USING Becke-Johnson damping                          
-------------------------------------------------------------------------------
The PBE0 functional is recognized
Active option DFTDOPT                   ...         4   

molecular C6(AA) [au] = 4675.724305 


            DFT-D V3
 parameters
 s6 scaling factor         :     1.0000 
 a1 scaling factor         :     0.4145 
 s8 scaling factor         :     1.2177 
 a2 scaling factor         :     4.8593 
 ad hoc parameters k1-k3   :    16.0000     1.3333    -4.0000 

 Edisp/kcal,au: -11.309874606919  -0.018023430511 
 E6   /kcal   :  -7.025186417 
 E8   /kcal   :  -4.284688190 
 % E8         :  37.884488898 

-------------------------   ----------------
Dispersion correction           -0.018023431
-------------------------   ----------------


-------------------------   --------------------
FINAL SINGLE POINT ENERGY      -551.336145879201
-------------------------   --------------------



           ************************************************************
           *        Program running with 4 parallel MPI-processes     *
           *              working on a common directory               *
           ************************************************************
------------------------------------------------------------------------------
                         ORCA SCF GRADIENT CALCULATION
------------------------------------------------------------------------------

Nuc. rep. gradient        (SHARK) ... done (  0.0 sec)
HCore & Overlap gradient  (SHARK) ... done (  0.1 sec)
Split-RIJ-J gradient      (SHARK) ... done (  0.7 sec)
COSX-gradient                     ... done ( 10.3 sec)
XC gradient                       ... done (  2.5 sec)
Dispersion correction             ... done (  0.0 sec)

-------------------
DISPERSION GRADIENT
-------------------

   1   C   :   -0.000002162   -0.000249056    0.000000060
   2   C   :    0.000125893   -0.000211402    0.000000074
   3   C   :    0.000208816    0.000015417    0.000000006
   4   C   :    0.000099308    0.000225099   -0.000000085
   5   C   :    0.000012349    0.000228861   -0.000000103
   6   C   :   -0.000058103   -0.000048465   -0.000000038
   7   C   :   -0.000242608   -0.000076964   -0.000000037
   8   O   :   -0.000167070   -0.000171888   -0.000000060
   9   O   :   -0.000193605    0.000067995    0.000000039
  10   C   :   -0.000238190    0.000053442    0.000000064
  11   H   :   -0.000101890    0.000016107   -0.000032644
  12   H   :   -0.000100327    0.000069447    0.000000105
  13   H   :   -0.000101857    0.000015974    0.000032617
  14   H   :   -0.000011653    0.000176384   -0.000000080
  15   H   :    0.000036407    0.000171246   -0.000000062
  16   C   :    0.000355149    0.000028447   -0.000000001
  17   N   :    0.000343903    0.000027937    0.000000045
  18   H   :    0.000061858   -0.000163728    0.000000054
  19   H   :   -0.000026218   -0.000174852    0.000000046

Difference to translation invariance:
           :    0.0000000000    0.0000000000   -0.0000000000

Difference to rotation invariance:
           :   -0.0000000000   -0.0000000000   -0.0000000000

Norm of the Dispersion gradient    ...    0.0009577102
RMS gradient                       ...    0.0001268518
MAX gradient                       ...    0.0003551492

------------------
CARTESIAN GRADIENT
------------------

   1   C   :    0.002572267   -0.003414145    0.000001958
   2   C   :    0.001535192   -0.003776341    0.000000877
   3   C   :    0.005515135    0.000172523    0.000033458
   4   C   :   -0.000359570    0.003479487   -0.000001891
   5   C   :   -0.000083071    0.004329022   -0.000006162
   6   C   :    0.003541098   -0.001151094    0.000003702
   7   C   :    0.008709463    0.012901854   -0.000013271
   8   O   :   -0.005185811   -0.009967057    0.000001582
   9   O   :    0.002649438   -0.003359517    0.000002165
  10   C   :   -0.013174176    0.003887450    0.000001640
  11   H   :    0.002798058    0.003200153    0.005788524
  12   H   :    0.002767066   -0.007964251   -0.000011469
  13   H   :    0.002794420    0.003218483   -0.005774617
  14   H   :    0.005930737   -0.007853480    0.000002598
  15   H   :   -0.004154934   -0.008434175    0.000002529
  16   C   :    0.015685108    0.001156491   -0.000036920
  17   N   :   -0.030893416   -0.002520487    0.000010765
  18   H   :   -0.005434587    0.007637728   -0.000003342
  19   H   :    0.004787583    0.008457355   -0.000002125

Difference to translation invariance:
           :    0.0000000001   -0.0000000001    0.0000000000

Difference to rotation invariance:
           :    0.0000022859   -0.0000004953    0.0000023718

Norm of the Cartesian gradient     ...    0.0493515159
RMS gradient                       ...    0.0065367680
MAX gradient                       ...    0.0308934159

-------
TIMINGS
-------

Total SCF gradient time     ....       13.634 sec

Densities                   ....       0.001 sec  (  0.0%)
One electron gradient       ....       0.110 sec  (  0.8%)
RI-J Coulomb gradient       ....       0.661 sec  (  4.8%)
COSX gradient               ....      10.255 sec  ( 75.2%)
XC gradient                 ....       2.543 sec  ( 18.6%)

Maximum memory used throughout the entire SCFGRAD-calculation: 30.2 MB
------------------------------------------------------------------------------
                         ORCA GEOMETRY RELAXATION STEP
------------------------------------------------------------------------------

Reading the OPT-File                    .... done
Getting information on internals        .... done
Copying old internal coords+grads       .... done
Making the new internal coordinates     .... (2022 redundants) done
Validating the new internal coordinates .... (2022 redundants) done
Calculating the B-matrix                .... done
Calculating the G,G- and P matrices     .... done
Transforming gradient to internals      .... done
Projecting the internal gradient        .... done
Number of atoms                         ....  19
Number of internal coordinates          ....  82
Current Energy                          ....  -551.336145879 Eh
Current gradient norm                   ....     0.049351516 Eh/bohr
Maximum allowed component of the step   ....  0.300
Current trust radius                    ....  0.300
Evaluating the initial hessian          ....  (Almloef) done
Projecting the Hessian                  .... done
Forming the augmented Hessian           .... done
Diagonalizing the augmented Hessian     .... done
Last element of RFO vector              ....  0.996818667
Lowest eigenvalues of augmented Hessian:
 -0.003334372  0.013066381  0.019119041  0.020630599  0.022194132
Length of the computed step             ....  0.079957231
The final length of the internal step   ....  0.079957231
Converting the step to Cartesian space:
 Initial RMS(Int)=    0.0088297991
Transforming coordinates:
 Iter   0:  RMS(Cart)=    0.0210885759 RMS(Int)=    1.8357721864
 Iter   5:  RMS(Cart)=    0.0000000513 RMS(Int)=    0.0000000452
done
Storing new coordinates                 .... done

                                .--------------------.
          ----------------------|Geometry convergence|-------------------------
          Item                value                   Tolerance       Converged
          ---------------------------------------------------------------------
          RMS gradient        0.0052289681            0.0001000000      NO
          MAX gradient        0.0309960558            0.0003000000      NO
          RMS step            0.0088297991            0.0020000000      NO
          MAX step            0.0265773220            0.0040000000      NO
          ........................................................
          Max(Bonds)      0.0141      Max(Angles)    0.81
          Max(Dihed)        0.07      Max(Improp)    0.00
          ---------------------------------------------------------------------

The optimization has not yet converged - more geometry cycles are needed


    ---------------------------------------------------------------------------
                         Redundant Internal Coordinates
                            (Angstroem and degrees)

        Definition                    Value    dE/dq     Step     New-Value
    ----------------------------------------------------------------------------
     1. B(C   1,C   0)                1.3795 -0.008911  0.0072    1.3868   
     2. B(C   2,C   1)                1.3972 -0.007071  0.0062    1.4034   
     3. B(C   3,C   2)                1.3973 -0.006262  0.0055    1.4027   
     4. B(C   4,C   3)                1.3803 -0.009316  0.0076    1.3879   
     5. B(C   5,C   4)                1.3943 -0.005237  0.0044    1.3987   
     6. B(C   5,C   0)                1.3945 -0.003622  0.0030    1.3976   
     7. B(C   6,C   5)                1.4870 -0.001561  0.0019    1.4889   
     8. B(O   7,C   6)                1.2124  0.011235 -0.0055    1.2069   
     9. B(O   8,C   6)                1.3317  0.000158 -0.0001    1.3316   
    10. B(C   9,O   8)                1.4250  0.004730 -0.0051    1.4200   
    11. B(H  10,C   9)                1.0915 -0.007164  0.0105    1.1020   
    12. B(H  11,C   9)                1.0862 -0.008429  0.0121    1.0983   
    13. B(H  12,C   9)                1.0915 -0.007160  0.0105    1.1019   
    14. B(H  13,C   4)                1.0780 -0.009836  0.0137    1.0917   
    15. B(H  14,C   3)                1.0794 -0.009402  0.0132    1.0926   
    16. B(C  15,C   2)                1.4144 -0.015269  0.0141    1.4285   
    17. B(N  16,C  15)                1.1473 -0.030996  0.0120    1.1592   
    18. B(H  17,C   1)                1.0794 -0.009374  0.0131    1.0925   
    19. B(H  18,C   0)                1.0794 -0.009706  0.0136    1.0930   
    20. A(C   1,C   0,H  18)          120.99 -0.000516    0.09    121.08   
    21. A(C   5,C   0,H  18)          118.69  0.000466   -0.07    118.62   
    22. A(C   1,C   0,C   5)          120.32  0.000050   -0.02    120.30   
    23. A(C   0,C   1,C   2)          119.42 -0.001359    0.19    119.61   
    24. A(C   0,C   1,H  17)          120.77  0.000622   -0.09    120.69   
    25. A(C   2,C   1,H  17)          119.81  0.000738   -0.10    119.70   
    26. A(C   3,C   2,C  15)          119.77 -0.000964    0.12    119.89   
    27. A(C   1,C   2,C  15)          119.77 -0.001259    0.16    119.93   
    28. A(C   1,C   2,C   3)          120.46  0.002223   -0.28    120.17   
    29. A(C   2,C   3,C   4)          119.74 -0.000488    0.08    119.82   
    30. A(C   4,C   3,H  14)          120.65  0.000197   -0.03    120.62   
    31. A(C   2,C   3,H  14)          119.61  0.000291   -0.05    119.57   
    32. A(C   5,C   4,H  13)          119.62  0.000575   -0.08    119.54   
    33. A(C   3,C   4,C   5)          119.97 -0.000469    0.06    120.03   
    34. A(C   3,C   4,H  13)          120.41 -0.000106    0.02    120.44   
    35. A(C   0,C   5,C   6)          118.31  0.002399   -0.33    117.99   
    36. A(C   0,C   5,C   4)          120.10  0.000043   -0.02    120.07   
    37. A(C   4,C   5,C   6)          121.59 -0.002442    0.35    121.94   
    38. A(O   7,C   6,O   8)          123.44  0.000004   -0.00    123.44   
    39. A(C   5,C   6,O   8)          112.63  0.000045   -0.01    112.62   
    40. A(C   5,C   6,O   7)          123.93 -0.000049    0.01    123.93   
    41. A(C   6,O   8,C   9)          116.96  0.005966   -0.81    116.15   
    42. A(H  10,C   9,H  11)          110.90  0.000447   -0.10    110.80   
    43. A(O   8,C   9,H  11)          105.82  0.000033   -0.01    105.81   
    44. A(O   8,C   9,H  10)          110.18 -0.000614    0.12    110.29   
    45. A(H  11,C   9,H  12)          110.90  0.000444   -0.10    110.81   
    46. A(H  10,C   9,H  12)          108.84  0.000277   -0.02    108.82   
    47. A(O   8,C   9,H  12)          110.18 -0.000616    0.12    110.29   
    48. L(C   2,C  15,N  16,C   3, 2) 179.94 -0.000013    0.00    179.95   
    49. L(C   2,C  15,N  16,C   3, 1) 179.98 -0.000032    0.00    179.98   
    50. D(H  17,C   1,C   0,H  18)      0.00  0.000001   -0.00     -0.00   
    51. D(C   2,C   1,C   0,H  18)    180.00  0.000000   -0.00    180.00   
    52. D(C   2,C   1,C   0,C   5)     -0.00  0.000000   -0.00     -0.00   
    53. D(H  17,C   1,C   0,C   5)   -180.00  0.000002   -0.00   -180.00   
    54. D(C  15,C   2,C   1,C   0)   -179.99  0.000006   -0.01   -180.00   
    55. D(C   3,C   2,C   1,C   0)     -0.00 -0.000001    0.00      0.00   
    56. D(C  15,C   2,C   1,H  17)      0.01  0.000004   -0.01     -0.00   
    57. D(C   3,C   2,C   1,H  17)    180.00 -0.000002    0.00    180.00   
    58. D(H  14,C   3,C   2,C  15)     -0.01 -0.000004    0.01      0.00   
    59. D(H  14,C   3,C   2,C   1)   -180.00  0.000002   -0.00   -180.00   
    60. D(C   4,C   3,C   2,C  15)    179.99 -0.000005    0.01    180.00   
    61. D(C   4,C   3,C   2,C   1)      0.00  0.000001   -0.00      0.00   
    62. D(H  13,C   4,C   3,C   2)    180.00  0.000000   -0.00    180.00   
    63. D(C   5,C   4,C   3,H  14)    180.00 -0.000002    0.00    180.00   
    64. D(C   5,C   4,C   3,C   2)     -0.00 -0.000000    0.00     -0.00   
    65. D(H  13,C   4,C   3,H  14)     -0.00 -0.000001    0.00     -0.00   
    66. D(C   6,C   5,C   4,H  13)     -0.00 -0.000001    0.00      0.00   
    67. D(C   0,C   5,C   4,H  13)    180.00 -0.000001    0.00    180.00   
    68. D(C   0,C   5,C   4,C   3)     -0.00 -0.000000    0.00      0.00   
[...]
     14      -0.000000   0.000000   0.000001
     15      -0.000306   0.001516  -0.001763
     16      -0.000877  -0.002624  -0.002884
     17       0.000000  -0.000000   0.000000
     18       0.000028   0.000408  -0.000410
     19       0.000470   0.000919   0.000822
     20       0.000000  -0.000000  -0.000000
     21       0.000043   0.000051   0.000159
     22      -0.000127  -0.000392  -0.000030
     23       0.000000   0.000000   0.000000
     24      -0.000169  -0.000196  -0.000237
     25      -0.000130  -0.000023  -0.000358
     26      -0.000000   0.000000   0.000000
     27       0.000143   0.000081   0.000176
     28      -0.000347   0.000070  -0.000462
     29      -0.000000  -0.000000  -0.000000
     30      -0.000051  -0.000321  -0.000051
     31       0.000119  -0.000315   0.000155
     32       0.000259  -0.000528   0.000267
     33      -0.001266  -0.000199  -0.001573
     34       0.003539   0.000021   0.004425
     35       0.000002  -0.000000   0.000002
     36      -0.000051  -0.000321  -0.000050
     37       0.000121  -0.000316   0.000157
     38      -0.000260   0.000529  -0.000269
     39       0.200632   0.047721   0.523928
     40      -0.294358  -0.068576  -0.755954
     41      -0.000003  -0.000001  -0.000010
     42       0.387111  -0.002848  -0.166498
     43       0.794974  -0.004577  -0.334523
     44      -0.000086   0.000001   0.000037
     45       0.000113   0.000137  -0.000155
     46      -0.000478   0.000255   0.000123
     47       0.000000   0.000000  -0.000000
     48       0.000097   0.000057  -0.000029
     49       0.000115  -0.000037  -0.000022
     50       0.000000  -0.000000   0.000000
     51      -0.139150   0.339330  -0.032732
     52       0.202049  -0.489129   0.047535
     53       0.000004  -0.000011   0.000001
     54      -0.068457  -0.357604   0.024392
     55      -0.137171  -0.708942   0.049459
     56       0.000014   0.000073  -0.000005


-----------
IR SPECTRUM
-----------

 Mode   freq       eps      Int      T**2         TX        TY        TZ
       cm**-1   L/(mol*cm) km/mol    a.u.
----------------------------------------------------------------------------
  6:     57.16   0.000012    0.06  0.000063  (-0.000011 -0.000006  0.007930)
  7:     72.75   0.000539    2.72  0.002312  (-0.000019 -0.000011  0.048083)
  8:    114.52   0.000427    2.16  0.001165  ( 0.014735 -0.030781  0.000001)
  9:    129.10   0.000475    2.40  0.001149  (-0.000026  0.000060 -0.033897)
 10:    152.41   0.000965    4.88  0.001976  (-0.000034  0.000032  0.044447)
 11:    189.28   0.001191    6.02  0.001963  ( 0.000213  0.044305 -0.000011)
 12:    244.25   0.000039    0.20  0.000050  (-0.000026  0.000003 -0.007058)
 13:    309.52   0.000142    0.72  0.000143  (-0.010830  0.005072  0.000002)
 14:    325.39   0.003327   16.81  0.003191  (-0.046959  0.031396 -0.000001)
 15:    416.24   0.000001    0.01  0.000001  ( 0.000003 -0.000006 -0.000918)
 16:    432.58   0.000119    0.60  0.000086  (-0.000028  0.000002  0.009275)
 17:    477.80   0.000823    4.16  0.000538  (-0.022701 -0.004742  0.000002)
 18:    569.76   0.000237    1.20  0.000130  ( 0.010647 -0.004057 -0.000024)
 19:    581.26   0.002378   12.02  0.001277  (-0.000985 -0.000212  0.035715)
 20:    581.47   0.000857    4.33  0.000460  (-0.020919 -0.004450 -0.001649)
 21:    655.12   0.000199    1.00  0.000095  (-0.004309  0.008721 -0.000001)
 22:    720.68   0.005420   27.39  0.002347  ( 0.000000 -0.000004 -0.048446)
 23:    787.82   0.000407    2.06  0.000161  (-0.011976 -0.004225  0.000001)
 24:    804.51   0.004646   23.48  0.001802  (-0.000006 -0.000002 -0.042452)
 25:    868.40   0.002123   10.73  0.000763  ( 0.023240  0.014932 -0.000009)
 26:    870.86   0.000047    0.24  0.000017  (-0.000001  0.000000 -0.004105)
 27:    894.41   0.003059   15.46  0.001067  (-0.000009 -0.000003 -0.032672)
 28:   1011.66   0.000003    0.02  0.000001  ( 0.000003  0.000002  0.000971)
 29:   1021.32   0.000003    0.02  0.000001  ( 0.000008 -0.000003  0.000980)
 30:   1032.40   0.000884    4.47  0.000267  ( 0.011339 -0.011779 -0.000001)
 31:   1051.76   0.003491   17.64  0.001036  (-0.029755 -0.012265  0.000003)
 32:   1125.90   0.001888    9.54  0.000523  (-0.012669  0.019044  0.000001)
 33:   1172.57   0.005358   27.08  0.001426  (-0.036418  0.009986  0.000001)
 34:   1184.88   0.000133    0.67  0.000035  ( 0.000037 -0.000015 -0.005913)
 35:   1193.62   0.006202   31.34  0.001622  (-0.039387  0.008377 -0.000001)
 36:   1232.23   0.007310   36.94  0.001851  ( 0.035551 -0.024237  0.000002)
 37:   1246.09   0.005159   26.07  0.001292  ( 0.034375 -0.010502 -0.000001)
 38:   1317.81   0.000212    1.07  0.000050  (-0.006166 -0.003489  0.000000)
 39:   1356.81   0.112824  570.17  0.025949  ( 0.152508 -0.051871 -0.000003)
 40:   1397.54   0.003969   20.06  0.000886  (-0.029030 -0.006597  0.000001)
 41:   1456.72   0.004202   21.24  0.000900  (-0.012546  0.027254 -0.000006)
 42:   1472.79   0.002229   11.26  0.000472  ( 0.000381 -0.000133 -0.021729)
 43:   1475.60   0.014459   73.07  0.003058  ( 0.051798 -0.019357  0.000144)
 44:   1489.08   0.001587    8.02  0.000333  ( 0.009465  0.015590  0.000002)
 45:   1560.22   0.000940    4.75  0.000188  (-0.010500  0.008818 -0.000002)
 46:   1651.56   0.000774    3.91  0.000146  ( 0.011768  0.002783 -0.000001)
 47:   1703.84   0.001875    9.47  0.000343  ( 0.018510 -0.000861 -0.000001)
 48:   1867.36   0.049333  249.31  0.008244  ( 0.040783  0.081124 -0.000005)
 49:   2394.59   0.004961   25.07  0.000647  ( 0.025366  0.001769 -0.000006)
 50:   3061.13   0.006399   32.34  0.000652  ( 0.025260 -0.003781  0.000007)
 51:   3155.37   0.002064   10.43  0.000204  (-0.000003  0.000004  0.014286)
 52:   3194.62   0.001707    8.63  0.000167  ( 0.006685 -0.011049 -0.000003)
 53:   3223.29   0.000050    0.25  0.000005  ( 0.000058  0.002197  0.000000)
 54:   3225.00   0.000129    0.65  0.000012  (-0.001736 -0.003074  0.000001)
 55:   3237.35   0.000193    0.98  0.000019  (-0.004257 -0.000725  0.000001)
 56:   3244.92   0.000034    0.17  0.000003  ( 0.001712  0.000600 -0.000000)

* The epsilon (eps) is given for a Dirac delta lineshape.
** The dipole moment derivative (T) already includes vibrational overlap.

The first frequency considered to be a vibration is 6
The total number of vibrations considered is 51


--------------------------
THERMOCHEMISTRY AT 298.15K
--------------------------

Temperature         ...   298.15 K
Pressure            ...     1.00 atm
Total Mass          ...   161.16 AMU
Quasi RRHO          ...     True
Cut-Off Frequency   ...     1.00 cm^-1

Throughout the following assumptions are being made:
  (1) The electronic state is orbitally nondegenerate
  (2) There are no thermally accessible electronically excited states
  (3) Hindered rotations indicated by low frequency modes are not
      treated as such but are treated as vibrations and this may
      cause some error
  (4) All equations used are the standard statistical mechanics
      equations for an ideal gas
  (5) All vibrations are strictly harmonic

freq.      57.16  E(vib)   ...       0.51 
freq.      72.75  E(vib)   ...       0.49 
freq.     114.52  E(vib)   ...       0.44 
freq.     129.10  E(vib)   ...       0.43 
freq.     152.41  E(vib)   ...       0.40 
freq.     189.28  E(vib)   ...       0.36 
freq.     244.25  E(vib)   ...       0.31 
freq.     309.52  E(vib)   ...       0.26 
freq.     325.39  E(vib)   ...       0.24 
freq.     416.24  E(vib)   ...       0.18 
freq.     432.58  E(vib)   ...       0.18 
freq.     477.80  E(vib)   ...       0.15 
freq.     569.76  E(vib)   ...       0.11 
freq.     581.26  E(vib)   ...       0.11 
freq.     581.47  E(vib)   ...       0.11 
freq.     655.12  E(vib)   ...       0.08 
freq.     720.68  E(vib)   ...       0.07 
freq.     787.82  E(vib)   ...       0.05 
freq.     804.51  E(vib)   ...       0.05 
freq.     868.40  E(vib)   ...       0.04 
freq.     870.86  E(vib)   ...       0.04 
freq.     894.41  E(vib)   ...       0.03 
freq.    1011.66  E(vib)   ...       0.02 
freq.    1021.32  E(vib)   ...       0.02 
freq.    1032.40  E(vib)   ...       0.02 
freq.    1051.76  E(vib)   ...       0.02 
freq.    1125.90  E(vib)   ...       0.01 
freq.    1172.57  E(vib)   ...       0.01 
freq.    1184.88  E(vib)   ...       0.01 
freq.    1193.62  E(vib)   ...       0.01 
freq.    1232.23  E(vib)   ...       0.01 
freq.    1246.09  E(vib)   ...       0.01 
freq.    1317.81  E(vib)   ...       0.01 
freq.    1356.81  E(vib)   ...       0.01 
freq.    1397.54  E(vib)   ...       0.00 
freq.    1456.72  E(vib)   ...       0.00 
freq.    1472.79  E(vib)   ...       0.00 
freq.    1475.60  E(vib)   ...       0.00 
freq.    1489.08  E(vib)   ...       0.00 
freq.    1560.22  E(vib)   ...       0.00 
freq.    1651.56  E(vib)   ...       0.00 
freq.    1703.84  E(vib)   ...       0.00 
freq.    1867.36  E(vib)   ...       0.00 
freq.    2394.59  E(vib)   ...       0.00 
freq.    3061.13  E(vib)   ...       0.00 
freq.    3155.37  E(vib)   ...       0.00 
freq.    3194.62  E(vib)   ...       0.00 
freq.    3223.29  E(vib)   ...       0.00 
freq.    3225.00  E(vib)   ...       0.00 
freq.    3237.35  E(vib)   ...       0.00 
freq.    3244.92  E(vib)   ...       0.00 

------------
INNER ENERGY
------------

The inner energy is: U= E(el) + E(ZPE) + E(vib) + E(rot) + E(trans)
    E(el)   - is the total energy from the electronic structure calculation
              = E(kin-el) + E(nuc-el) + E(el-el) + E(nuc-nuc)
    E(ZPE)  - the the zero temperature vibrational energy from the frequency calculation
    E(vib)  - the the finite temperature correction to E(ZPE) due to population
              of excited vibrational states
    E(rot)  - is the rotational thermal energy
    E(trans)- is the translational thermal energy

Summary of contributions to the inner energy U:
Electronic energy                ...   -551.33798364 Eh
Zero point energy                ...      0.14355484 Eh      90.08 kcal/mol
Thermal vibrational correction   ...      0.00770467 Eh       4.83 kcal/mol
Thermal rotational correction    ...      0.00141627 Eh       0.89 kcal/mol
Thermal translational correction ...      0.00141627 Eh       0.89 kcal/mol
-----------------------------------------------------------------------
Total thermal energy                   -551.18389159 Eh


Summary of corrections to the electronic energy:
(perhaps to be used in another calculation)
Total thermal correction                  0.01053722 Eh       6.61 kcal/mol
Non-thermal (ZPE) correction              0.14355484 Eh      90.08 kcal/mol
-----------------------------------------------------------------------
Total correction                          0.15409206 Eh      96.69 kcal/mol


--------
ENTHALPY
--------

The enthalpy is H = U + kB*T
                kB is Boltzmann's constant
Total thermal energy              ...   -551.18389159 Eh 
Thermal Enthalpy correction       ...      0.00094421 Eh       0.59 kcal/mol
-----------------------------------------------------------------------
Total Enthalpy                    ...   -551.18294738 Eh


Note: Only C1 symmetry has been detected, increase convergence thresholds 
      if your molecule has a higher symmetry. Symmetry factor of 1.0 is   
      used for the rotational entropy correction. 
 

Note: Rotational entropy computed according to Herzberg 
Infrared and Raman Spectra, Chapter V,1, Van Nostrand Reinhold, 1945 
Point Group:  C1, Symmetry Number:   1  
Rotational constants in cm-1:     0.115026     0.014673     0.013046 

Vibrational entropy computed according to the QRRHO of S. Grimme
Chem.Eur.J. 2012 18 9955 using a reference frequency of 100.0 cm-1


-------
ENTROPY
-------

The entropy contributions are T*S = T*(S(el)+S(vib)+S(rot)+S(trans))
     S(el)   - electronic entropy
     S(vib)  - vibrational entropy
     S(rot)  - rotational entropy
     S(trans)- translational entropy
The entropies will be listed as multiplied by the temperature to get
units of energy

Electronic entropy                ...      0.00000000 Eh      0.00 kcal/mol
Vibrational entropy               ...      0.01342559 Eh      8.42 kcal/mol
Rotational entropy                ...      0.01457332 Eh      9.14 kcal/mol
Translational entropy             ...      0.01954713 Eh     12.27 kcal/mol
-----------------------------------------------------------------------
Final entropy term                ...      0.04754604 Eh     29.84 kcal/mol

In case the symmetry of your molecule has not been determined correctly
or in case you have a reason to use a different symmetry number we print 
out the resulting rotational entropy values for sn=1,12:

 non-linear molecules -----------------------------------
|  sn= 1 | S(rot)=       0.01457332 Eh      9.14 kcal/mol|
|  sn= 2 | S(rot)=       0.01391886 Eh      8.73 kcal/mol|
|  sn= 3 | S(rot)=       0.01353603 Eh      8.49 kcal/mol|
|  sn= 4 | S(rot)=       0.01326440 Eh      8.32 kcal/mol|
|  sn= 5 | S(rot)=       0.01305372 Eh      8.19 kcal/mol|
|  sn= 6 | S(rot)=       0.01288157 Eh      8.08 kcal/mol|
|  sn= 7 | S(rot)=       0.01273602 Eh      7.99 kcal/mol|
|  sn= 8 | S(rot)=       0.01260995 Eh      7.91 kcal/mol|
|  sn= 9 | S(rot)=       0.01249874 Eh      7.84 kcal/mol|
|  sn=10 | S(rot)=       0.01239926 Eh      7.78 kcal/mol|
|  sn=11 | S(rot)=       0.01230927 Eh      7.72 kcal/mol|
|  sn=12 | S(rot)=       0.01222711 Eh      7.67 kcal/mol|
 linear molecules ---------------------------------------
|  Dinfh | S(rot)=       0.00942287 Eh      5.91 kcal/mol|
|  Cinfv | S(rot)=       0.01007733 Eh      6.32 kcal/mol|
 --------------------------------------------------------


-------------------
GIBBS FREE ENERGY
-------------------

The Gibbs free energy is G = H - T*S

Total enthalpy                    ...   -551.18294738 Eh 
Total entropy correction          ...     -0.04754604 Eh    -29.84 kcal/mol
-----------------------------------------------------------------------
Final Gibbs free energy         ...   -551.23049342 Eh

For completeness - the Gibbs free energy minus the electronic energy
G-E(el)                           ...      0.10749023 Eh     67.45 kcal/mol


Maximum memory used throughout the entire PROP-calculation: 62.8 MB

--------------------------------
SUGGESTED CITATIONS FOR THIS RUN
--------------------------------

Below you find a list of papers that are relevant to this ORCA run
We neither can nor want to force you to cite these papers, but we appreciate if you do
You receive ORCA, which is the product of decades of hard work by many enthusiastic individuals, for free
The only thing we kindly ask in return is that you cite our papers,
We deeply appreciate it, if you show your appreciation for ORCA by not just citing the generic ORCA reference.

Please note that relegating all ORCA citations to the supporting information does *not* help us.
SI sections are not indexed - citations you put there will not count into any citation statistics
But we need these citations in order to attract the funding resources that allow us to do what we are doing

Therefore, if you are a happy ORCA user, please consider citing a few of the papers listed below in the main body of your paper

In addition to the list printed below, the program has created the file cs_rporg_163_ox_opt_01.bibtex that contains the list in bibtex format
You can import this file easily into all common literature databanks and citation aid programs


List of essential papers. We consider these as the minimum necessary citations

  1. Neese,F.
     Software update: the ORCA program system, version 5.0
     WIRES Comput. Molec. Sci., 2022 12(1)e1606
     doi.org/10.1002/wcms.1606

List of papers to cite with high priority. The work reported in these papers was absolutely
necessary for this run to complete.
Our perspective: the developers of density functionals and basis sets usually get cited in chemistry papers
Good! But without the algorithms to do something with them, the functionals or basis sets would not do anything.
Hence, in our opinion, the algorithm design and method developments papers are equally worthy of getting cited

  1. Neese,F.
     An improvement of the resolution of the identity approximation for the formation of the Coulomb matrix
     J. Comp. Chem., 2003 24(14)1740-1747
     doi.org/10.1002/jcc.10318
  2. Neese,F.; Wennmohs,F.; Hansen,A.; Becker,U.
     Efficient, approximate and parallel Hartree-Fock and hybrid DFT calculations. A 'chain-of-spheres' algorithm for the Hartree-Fock exchange
     Chem. Phys., 2009 356(1-3)98-109
     doi.org/10.1016/j.chemphys.2008.10.036
  3. Bykov,D.; Petrenko,T.; Izsak,R.; Kossmann,S.; Becker,U.; Valeev,E.; Neese,F.
     Efficient implementation of the analytic second derivatives of Hartree-Fock and hybrid DFT energies: a detailed analysis of different approximations
     Molec. Phys., 2015 113 1961-1977
     doi.org/10.1080/00268976.2015.1025114
  4. Helmich-Paris,B.; de Souza,B.; Neese,F.; Izsák,R.
     An improved chain of spheres for exchange algorithm
     J. Chem. Phys., 2021 155 104109
     doi.org/doi: 10.1063/5.0058766.
  5. Neese,F.
     The SHARK Integral Generation and Digestion System
     J. Comp. Chem., 2022  1-16
     doi.org/10.1002/jcc.26942
  6. Grimme,S.; Antony,J.; Ehrlich,S.; Krieg,H.
     A consistent and accurate ab initio parametrization of density functional dispersion correction (DFT-D) for the 94 elements H-Pu
     J. Chem. Phys., 2010 132 154104-XXXX
     doi.org/10.1063/1.3382344
  7. Grimme,S.; Ehrlich,S.; Goerigk,L.
     Effect of the damping function in dispersion corrected density functional theory
     J. Comput. Chem., 2011 32(7)1456-1465
     doi.org/10.1002/jcc.21759

List of suggested additional citations. These are papers that are important in the 'surrounding' of 
of this run, or papers that preceded the highly important papers. If you like your results we are grateful for a citation.

  1. Izsak,R.; Neese,F.
     An overlap fitted chain of spheres exchange method
     J. Chem. Phys., 2011 135 144105
     doi.org/10.1063/1.3646921
  2. Izsak,R.; Hansen,A.; Neese,F.
     The resolution of identity and chain of spheres approximations for the LPNO-CCSD singles Fock term
     Molec. Phys., 2012 110 2413-2417
     doi.org/10.1080/00268976.2012.687466
  3. Neese,F.
     The ORCA program system
     WIRES Comput. Molec. Sci., 2012 2(1)73-78
     doi.org/10.1002/wcms.81
  4. Izsak,R.; Neese,F.; Klopper,W.
     Robust fitting techniques in the chain of spheres approximation to the Fock exchange: The role of the complementary space
     J. Chem. Phys., 2013 139 
     doi.org/10.1063/1.4819264
  5. Neese,F.
     Software update: the ORCA program system, version 4.0
     WIRES Comput. Molec. Sci., 2018 8(1)1-6
     doi.org/10.1002/wcms.1327
  6. Neese,F.; Wennmohs,F.; Becker,U.; Riplinger,C.
     The ORCA quantum chemistry program package
     J. Chem. Phys., 2020 152 Art. No. L224108
     doi.org/10.1063/5.0004608

List of optional additional citations

  1. Neese,F.
     Approximate second-order SCF convergence for spin unrestricted wavefunctions
     Chem. Phys. Lett., 2000 325(1-3)93-98
     doi.org/10.1016/s0009-2614(00)00662-x

Timings for individual modules:

Sum of individual times          ...      576.077 sec (=   9.601 min)
Startup calculation              ...       26.598 sec (=   0.443 min)   4.6 %
SCF iterations                   ...      163.310 sec (=   2.722 min)  28.3 %
Property integrals               ...       61.425 sec (=   1.024 min)  10.7 %
SCF Response                     ...       88.617 sec (=   1.477 min)  15.4 %
Property calculations            ...      144.489 sec (=   2.408 min)  25.1 %
SCF Gradient evaluation          ...       91.341 sec (=   1.522 min)  15.9 %
Geometry relaxation              ...        0.297 sec (=   0.005 min)   0.1 %
                             ****ORCA TERMINATED NORMALLY****
TOTAL RUN TIME: 0 days 0 hours 9 minutes 53 seconds 969 msec
