
                                 *****************
                                 * O   R   C   A *
                                 *****************

                                            #,                                       
                                            ###                                      
                                            ####                                     
                                            #####                                    
                                            ######                                   
                                           ########,                                 
                                     ,,################,,,,,                         
                               ,,#################################,,                 
                          ,,##########################################,,             
                       ,#########################################, ''#####,          
                    ,#############################################,,   '####,        
                  ,##################################################,,,,####,       
                ,###########''''           ''''###############################       
              ,#####''   ,,,,##########,,,,          '''####'''          '####       
            ,##' ,,,,###########################,,,                        '##       
           ' ,,###''''                  '''############,,,                           
         ,,##''                                '''############,,,,        ,,,,,,###''
      ,#''                                            '''#######################'''  
     '                                                          ''''####''''         
             ,#######,   #######,   ,#######,      ##                                
            ,#'     '#,  ##    ##  ,#'     '#,    #''#        ,####,   ,####,        
            ##       ##  ##   ,#'  ##            #'  '#       #'       #'  '#        
            ##       ##  #######   ##           ,######,      #####,   #    #        
            '#,     ,#'  ##    ##  '#,     ,#' ,#      #,     #,   #   #,  ,#        
             '#######'   ##     ##  '#######'  #'      '#     '####' # '####'        



                #########################################################
                #                        -***-                          #
                #          Department of theory and spectroscopy        #
                #                                                       #
                #                      Frank Neese                      #
                #                                                       #
                #     Directorship, Architecture, Infrastructure        #
                #                    SHARK, DRIVERS                     #
                #        Core code/Algorithms in most modules           #
                #                                                       #
                #        Max Planck Institute fuer Kohlenforschung      #
                #                Kaiser Wilhelm Platz 1                 #
                #                 D-45470 Muelheim/Ruhr                 #
                #                      Germany                          #
                #                                                       #
                #                  All rights reserved                  #
                #                        -***-                          #
                #########################################################


                         Program Version 6.0.0  -   RELEASE  -


 With contributions from (in alphabetic order):
   Daniel Aravena         : Magnetic Suceptibility
   Michael Atanasov       : Ab Initio Ligand Field Theory (pilot matlab implementation)
   Alexander A. Auer      : GIAO ZORA, VPT2 properties, NMR spectrum
   Ute Becker             : All parallelization in ORCA, NUMFREQ, NUMCALC
   Giovanni Bistoni       : ED, misc. LED, open-shell LED, HFLD
   Martin Brehm           : Molecular dynamics
   Dmytro Bykov           : pre 5.0 version of the SCF Hessian
   Marcos Casanova-Páez   : Triplet and SCS-CIS(D). UHF-(DLPNO)-IP/EA/STEOM-CCSD. UHF-CVS-IP/STEOM-CCSD
   Vijay G. Chilkuri      : MRCI spin determinant printing, contributions to CSF-ICE
   Pauline Colinet        : FMM embedding
   Dipayan Datta          : RHF DLPNO-CCSD density
   Achintya Kumar Dutta   : EOM-CC, STEOM-CC
   Nicolas Foglia         : Exact transition moments, OPA infrastructure, MCD improvements
   Dmitry Ganyushin       : Spin-Orbit,Spin-Spin,Magnetic field MRCI
   Miquel Garcia          : C-PCM and meta-GGA Hessian, CCSD/C-PCM, Gaussian charge scheme
   Tiago L. C. Gouveia    : GS-ROHF, GS-ROCIS
   Yang Guo               : DLPNO-NEVPT2, F12-NEVPT2, CIM, IAO-localization
   Andreas Hansen         : Spin unrestricted coupled pair/coupled cluster methods
   Ingolf Harden          : AUTO-CI MPn and infrastructure 
   Benjamin Helmich-Paris : MC-RPA, TRAH-(SCF,CASSCF), AVAS, COSX integrals, SCF dyn. polar.
   Lee Huntington         : MR-EOM, pCC
   Robert Izsak           : Overlap fitted RIJCOSX, COSX-SCS-MP3, EOM
   Riya Kayal             : Wick's Theorem for AUTO-CI, AUTO-CI UHF-CCSDT
   Emily Kempfer          : AUTO-CI, RHF CISDT and CCSDT
   Christian Kollmar      : KDIIS, OOCD, Brueckner-CCSD(T), CCSD density, CASPT2, CASPT2-K, improved NEVPT2
   Axel Koslowski         : Symmetry handling
   Simone Kossmann        : Meta GGA functionals, TD-DFT gradient, OOMP2, (MP2 Hessian; deprecated post 5.0)
   Lucas Lang             : DCDCAS
   Marvin Lechner         : AUTO-CI (C++ implementation), FIC-MRCC
   Spencer Leger          : CASSCF response
   Dagmar Lenk            : GEPOL surface, SMD, ORCA-2-JSON
   Dimitrios Liakos       : Extrapolation schemes; Compound Job, initial MDCI parallelization
   Dimitrios Manganas     : Further ROCIS development; embedding schemes. LFT, Crystal Embedding
   Dimitrios Pantazis     : SARC Basis sets
   Anastasios Papadopoulos: AUTO-CI, single reference methods and gradients
   Taras Petrenko         : pre 6.0 DFT Hessian and TD-DFT gradient, (ASA, deprecated), ECA, 1-Electron XAS/XES, NRVS
   Peter Pinski           : DLPNO-MP2, DLPNO-MP2 Gradient
   Christoph Reimann      : Effective Core Potentials
   Marius Retegan         : Local ZFS, SOC
   Christoph Riplinger    : Optimizer, TS searches, QM/MM, DLPNO-CCSD(T), (RO)-DLPNO pert. Triples
   Michael Roemelt        : Original ROCIS implementation
   Masaaki Saitow         : Open-shell DLPNO-CCSD energy and density
   Barbara Sandhoefer     : DKH picture change effects
   Kantharuban Sivalingam : CASSCF convergence/infrastructure, NEVPT2 and variants, FIC-MRCI
   Bernardo de Souza      : ESD, SOC TD-DFT
   Georgi Stoychev        : AutoAux, RI-MP2 NMR, DLPNO-MP2 response, X2C
   Van Anh Tran           : RI-MP2 g-tensors
   Willem Van den Heuvel  : Paramagnetic NMR
   Zikuan Wang            : NOTCH, Electric field optimization 
   Frank Wennmohs         : Technical directorship and infrastructure
   Hang Xu                : AUTO-CI-Response properties 


 We gratefully acknowledge several colleagues who have allowed us to
 interface, adapt or use parts of their codes:
   Stefan Grimme, W. Hujo, H. Kruse, P. Pracht,  : VdW corrections, initial TS optimization,
                  C. Bannwarth, S. Ehlert,         DFT functionals, gCP, sTDA/sTD-DF
                  L. Wittmann, M. Mueller
   Ed Valeev, F. Pavosevic, A. Kumar             : LibInt (2-el integral package), F12 methods
   Garnet Chan, S. Sharma, J. Yang, R. Olivares  : DMRG
   Ulf Ekstrom                                   : XCFun DFT Library
   Mihaly Kallay                                 : mrcc  (arbitrary order and MRCC methods)
   Frank Weinhold                                : gennbo (NPA and NBO analysis)
   Simon Mueller                                 : openCOSMO-RS
   Christopher J. Cramer and Donald G. Truhlar   : smd solvation model
   Lars Goerigk                                  : TD-DFT with DH, B97 family of functionals
   V. Asgeirsson, H. Jonsson                     : NEB implementation
   FAccTs GmbH                                   : IRC, NEB, NEB-TS, DLPNO-Multilevel, CI-OPT
                                                   MM, QMMM, 2- and 3-layer-ONIOM, Crystal-QMMM,
                                                   LR-CPCM, SF, NACMEs, symmetry and pop. for TD-DFT,
                                                   nearIR, NL-DFT gradient (VV10), updates on ESD,
                                                   ML-optimized integration grids, MBIS, APM,
                                                   GOAT, DOCKER, SOLVATOR, interface openCOSMO-RS
   S Lehtola, MJT Oliveira, MAL Marques          : LibXC Library
   Liviu Ungur et al                             : ANISO software


 Your calculation uses the libint2 library for the computation of 2-el integrals
 For citations please refer to: http://libint.valeyev.net

 Your ORCA version has been built with support for libXC version: 6.2.2
 For citations please refer to: https://libxc.gitlab.io

 This ORCA versions uses:
   CBLAS   interface :  Fast vector & matrix operations
   LAPACKE interface :  Fast linear algebra routines
   SCALAPACK package :  Parallel linear algebra routines
   Shared memory     :  Shared parallel matrices
   BLAS/LAPACK       :  OpenBLAS 0.3.27  USE64BITINT DYNAMIC_ARCH NO_AFFINITY SkylakeX SINGLE_THREADED
        Core in use  :  SkylakeX
   Copyright (c) 2011-2014, The OpenBLAS Project


NOTE: MaxCore=3000 MB was set to SCF,MP2,MDCI,CIPSI,MRCI and CIS
      => If you want to overwrite this, your respective input block should be placed after the MaxCore statement
Your calculation utilizes the atom-pairwise dispersion correction
with the Becke-Johnson damping scheme (D3BJ)


Your calculation utilizes the SMD solvation module
Please cite in your paper:
A.V. Marenich, C.J. Cramer, D.G. Truhlar J. Phys. Chem. B, 113, (2009), 6378 

Warning: RI is on but no J-basis has been assigned. Assigning Def2/J (nothing to worry about!)
================================================================================

----- Orbital basis set information -----
Your calculation utilizes the basis: aug-cc-pVTZ 
    H, B-Ne : Obtained from the ccRepo (grant-hill.group.shef.ac.uk/ccrepo) Feb. 2017
              R. A. Kendall, T. H. Dunning, Jr., R. J. Harrison, J. Chem. Phys. 96, 6796 (1992)
         He : Obtained from the ccRepo (grant-hill.group.shef.ac.uk/ccrepo) Feb. 2017
              D. E. Woon, T. H. Dunning, Jr., J. Chem. Phys. 100, 2975 (1994)
  Li-Be, Na : Obtained from the ccRepo (grant-hill.group.shef.ac.uk/ccrepo) Feb. 2017
              B. P. Prascher, D. E. Woon, K. A. Peterson, T. H. Dunning, Jr., A. K. Wilson, Theor. Chem. Acc. 128, 69 (2011)
         Mg : Obtained from the Peterson Research Group Website (tyr0.chem.wsu.edu/~kipeters) Feb. 2017
              B. P. Prascher, D. E. Woon, K. A. Peterson, T. H. Dunning, Jr., A. K. Wilson, Theor. Chem. Acc. 128, 69 (2011)
      Al-Ar : Obtained from the ccRepo (grant-hill.group.shef.ac.uk/ccrepo) Feb. 2017
              D. E. Woon, T. H. Dunning, Jr., J. Chem. Phys. 98, 1358 (1993)
      Sc-Zn : Obtained from the ccRepo (grant-hill.group.shef.ac.uk/ccrepo) Feb. 2017
              N. B. Balabanov, K. A. Peterson, J. Chem. Phys. 123, 064107 (2005)
              N. B. Balabanov, K. A. Peterson, J. Chem. Phys. 125, 074110 (2006)
      Ga-Kr : Obtained from the ccRepo (grant-hill.group.shef.ac.uk/ccrepo) Feb. 2017
              A. K. Wilson, D. E. Woon, K. A. Peterson, T. H. Dunning, Jr., J. Chem. Phys. 110, 7667 (1999)
     Ag, Au : Obtained from the Peterson Research Group Website (tyr0.chem.wsu.edu/~kipeters) Feb. 2017
              K. A. Peterson, C. Puzzarini, Theor. Chem. Acc. 114, 283 (2005)

----- AuxJ basis set information -----
Your calculation utilizes the auxiliary basis: def2/J
   F. Weigend, Phys. Chem. Chem. Phys. 8, 1057 (2006).

================================================================================
                                        WARNINGS
                       Please study these warnings very carefully!
================================================================================


WARNING: your system is open-shell and RHF/RKS was chosen
  ===> : WILL SWITCH to UHF/UKS


================================================================================
                                       INPUT FILE
================================================================================
NAME = cs_rporg_070_ox_solv_01.inp
|  1> !TPSSh aug-cc-pVTZ d3 TightSCF SlowConv RIJCOSX defgrid2
|  2>  
|  3> %pal
|  4> nprocs 4
|  5> end
|  6>  
|  7> %scf
|  8> MaxIter 1500
|  9> end
| 10>  
| 11> %maxcore 3000
| 12>  
| 13> !CPCM
| 14> %cpcm smd true
| 15> SMDsolvent "MeCN"
| 16> surfacetype gepol_ses
| 17> rsolv 2.19
| 18> end 
| 19>  
| 20> * xyz 1 2
| 21> C           1.71497106575748      1.06171932835084     -0.03514469304606
| 22> C           0.56719485465527      1.82392831640831     -0.00294767414977
| 23> C          -0.68893058329112      1.20760587034953      0.00674165425173
| 24> C          -0.80034038219193     -0.22800805453168     -0.01673661650706
| 25> C           0.34844024659380     -1.00330914690348     -0.04917310869374
| 26> C           1.61061604456188     -0.38138433792306     -0.05904556326935
| 27> N           2.73628401268176     -1.09580230581758     -0.09073600890504
| 28> H           2.71545111037900     -2.11343777495485     -0.10881829621903
| 29> H           3.64963295510932     -0.64805903858531     -0.09811724471076
| 30> H           0.25123309236129     -2.09096960143506     -0.06695996926436
| 31> O          -1.95374878515058     -0.85587592591482     -0.00850993427148
| 32> C          -3.19266872724087     -0.16172631263894      0.01967853662734
| 33> H          -3.96658303938529     -0.94029601988636      0.01614088330526
| 34> H          -3.30896028056596      0.47212649064151     -0.87574217138754
| 35> H          -3.28534792940125      0.44030899731552      0.93950878924919
| 36> H          -1.58838328810020      1.82581855641198      0.03268809937411
| 37> H           0.63303154865974      2.91458072514130      0.01531465253765
| 38> H           2.70276038456766      1.53066783397213     -0.04298803492109
| 39> *
| 40> 
| 41>                          ****END OF INPUT****
================================================================================

                       ****************************
                       * Single Point Calculation *
                       ****************************

---------------------------------
CARTESIAN COORDINATES (ANGSTROEM)
---------------------------------
  C      1.714971    1.061719   -0.035145
  C      0.567195    1.823928   -0.002948
  C     -0.688931    1.207606    0.006742
  C     -0.800340   -0.228008   -0.016737
  C      0.348440   -1.003309   -0.049173
  C      1.610616   -0.381384   -0.059046
  N      2.736284   -1.095802   -0.090736
  H      2.715451   -2.113438   -0.108818
  H      3.649633   -0.648059   -0.098117
  H      0.251233   -2.090970   -0.066960
  O     -1.953749   -0.855876   -0.008510
  C     -3.192669   -0.161726    0.019679
  H     -3.966583   -0.940296    0.016141
  H     -3.308960    0.472126   -0.875742
  H     -3.285348    0.440309    0.939509
  H     -1.588383    1.825819    0.032688
  H      0.633032    2.914581    0.015315
  H      2.702760    1.530668   -0.042988

----------------------------
CARTESIAN COORDINATES (A.U.)
----------------------------
  NO LB      ZA    FRAG     MASS         X           Y           Z
   0 C     6.0000    0    12.011    3.240826    2.006359   -0.066414
   1 C     6.0000    0    12.011    1.071843    3.446725   -0.005570
   2 C     6.0000    0    12.011   -1.301890    2.282044    0.012740
   3 C     6.0000    0    12.011   -1.512424   -0.430873   -0.031628
   4 C     6.0000    0    12.011    0.658457   -1.895980   -0.092924
   5 C     6.0000    0    12.011    3.043623   -0.720712   -0.111580
   6 N     7.0000    0    14.007    5.170827   -2.070766   -0.171466
   7 H     1.0000    0     1.008    5.131459   -3.993819   -0.205637
   8 H     1.0000    0     1.008    6.896807   -1.224654   -0.185415
   9 H     1.0000    0     1.008    0.474762   -3.951360   -0.126536
  10 O     8.0000    0    15.999   -3.692050   -1.617371   -0.016081
  11 C     6.0000    0    12.011   -6.033270   -0.305618    0.037187
  12 H     1.0000    0     1.008   -7.495756   -1.776902    0.030502
  13 H     1.0000    0     1.008   -6.253029    0.892190   -1.654913
  14 H     1.0000    0     1.008   -6.208408    0.832063    1.775414
  15 H     1.0000    0     1.008   -3.001609    3.450297    0.061772
  16 H     1.0000    0     1.008    1.196256    5.507759    0.028940
  17 H     1.0000    0     1.008    5.107477    2.892543   -0.081236

--------------------------------
INTERNAL COORDINATES (ANGSTROEM)
--------------------------------
 C      0   0   0     0.000000000000     0.00000000     0.00000000
 C      1   0   0     1.378183376867     0.00000000     0.00000000
 C      2   1   0     1.399213477800   120.27863296     0.00000000
 C      3   2   1     1.440121770477   120.55972588     0.00000000
 C      4   3   2     1.386304743890   119.58944192     0.00000000
 C      5   4   3     1.407116085602   119.75470037     0.00000000
 N      6   5   4     1.333613771542   121.36742395   180.03512449
 H      7   6   5     1.018009296116   121.24192418     0.00000000
 H      7   6   5     1.017219153687   121.48394934   179.98707540
 H      5   4   3     1.092140498102   118.92001316   180.01247886
 O      4   3   2     1.313254235185   122.98689936   179.97808942
 C     11   4   3     1.420408708229   122.17725942     0.22907155
 H     12  11   4     1.097782613533   105.55985576   179.78303419
 H     12  11   4     1.103209565741   110.89266531    61.51681595
 H     12  11   4     1.103233267529   110.88551253   298.04044682
 H      3   2   1     1.091730420668   119.36434198   179.97910752
 H      2   1   3     1.092790309039   120.14483111   179.99213978
 H      1   2   3     1.093481576110   121.01797111   180.00323321

---------------------------
INTERNAL COORDINATES (A.U.)
---------------------------
 C      0   0   0     0.000000000000     0.00000000     0.00000000
 C      1   0   0     2.604389144602     0.00000000     0.00000000
 C      2   1   0     2.644130275933   120.27863296     0.00000000
 C      3   2   1     2.721435745699   120.55972588     0.00000000
 C      4   3   2     2.619736304108   119.58944192     0.00000000
 C      5   4   3     2.659064040424   119.75470037     0.00000000
 N      6   5   4     2.520164796640   121.36742395   180.03512449
 H      7   6   5     1.923758771446   121.24192418     0.00000000
 H      7   6   5     1.922265618647   121.48394934   179.98707540
 H      5   4   3     2.063846441177   118.92001316   180.01247886
 O      4   3   2     2.481690848712   122.98689936   179.97808942
 C     11   4   3     2.684183456789   122.17725942     0.22907155
 H     12  11   4     2.074508494159   105.55985576   179.78303419
 H     12  11   4     2.084763947573   110.89266531    61.51681595
 H     12  11   4     2.084808737461   110.88551253   298.04044682
 H      3   2   1     2.063071507133   119.36434198   179.97910752
 H      2   1   3     2.065074405886   120.14483111   179.99213978
 H      1   2   3     2.066380711336   121.01797111   180.00323321

---------------------
BASIS SET INFORMATION
---------------------
There are 4 groups of distinct atoms

 Group   1 Type C   : 19s6p3d2f contracted to 5s4p3d2f pattern {88111/3111/111/11}
 Group   2 Type N   : 19s6p3d2f contracted to 5s4p3d2f pattern {88111/3111/111/11}
 Group   3 Type H   : 6s3p2d contracted to 4s3p2d pattern {3111/111/11}
 Group   4 Type O   : 19s6p3d2f contracted to 5s4p3d2f pattern {88111/3111/111/11}

Atom   0C    basis set group =>   1
Atom   1C    basis set group =>   1
Atom   2C    basis set group =>   1
Atom   3C    basis set group =>   1
Atom   4C    basis set group =>   1
Atom   5C    basis set group =>   1
Atom   6N    basis set group =>   2
Atom   7H    basis set group =>   3
Atom   8H    basis set group =>   3
Atom   9H    basis set group =>   3
Atom  10O    basis set group =>   4
Atom  11C    basis set group =>   1
Atom  12H    basis set group =>   3
Atom  13H    basis set group =>   3
Atom  14H    basis set group =>   3
Atom  15H    basis set group =>   3
Atom  16H    basis set group =>   3
Atom  17H    basis set group =>   3
---------------------------------
AUXILIARY/J BASIS SET INFORMATION
---------------------------------
There are 4 groups of distinct atoms

 Group   1 Type C   : 12s5p4d2f1g contracted to 6s4p3d1f1g pattern {711111/2111/211/2/1}
 Group   2 Type N   : 12s5p4d2f1g contracted to 6s4p3d1f1g pattern {711111/2111/211/2/1}
 Group   3 Type H   : 5s2p1d contracted to 3s1p1d pattern {311/2/1}
 Group   4 Type O   : 12s5p4d2f1g contracted to 6s4p3d1f1g pattern {711111/2111/211/2/1}

Atom   0C    basis set group =>   1
Atom   1C    basis set group =>   1
Atom   2C    basis set group =>   1
Atom   3C    basis set group =>   1
Atom   4C    basis set group =>   1
Atom   5C    basis set group =>   1
Atom   6N    basis set group =>   2
Atom   7H    basis set group =>   3
Atom   8H    basis set group =>   3
Atom   9H    basis set group =>   3
Atom  10O    basis set group =>   4
Atom  11C    basis set group =>   1
Atom  12H    basis set group =>   3
Atom  13H    basis set group =>   3
Atom  14H    basis set group =>   3
Atom  15H    basis set group =>   3
Atom  16H    basis set group =>   3
Atom  17H    basis set group =>   3


           ************************************************************
           *        Program running with 4 parallel MPI-processes     *
           *              working on a common directory               *
           ************************************************************
------------------------------------------------------------------------------
                             ORCA STARTUP CALCULATIONS
                           -- RI-GTO INTEGRALS CHOSEN --
------------------------------------------------------------------------------
------------------------------------------------------------------------------
                   ___                                                        
                  /   \      - P O W E R E D   B Y -                         
                 /     \                                                     
                 |  |  |   _    _      __       _____    __    __             
                 |  |  |  | |  | |    /  \     |  _  \  |  |  /  |          
                  \  \/   | |  | |   /    \    | | | |  |  | /  /          
                 / \  \   | |__| |  /  /\  \   | |_| |  |  |/  /          
                |  |  |   |  __  | /  /__\  \  |    /   |      \           
                |  |  |   | |  | | |   __   |  |    \   |  |\   \          
                \     /   | |  | | |  |  |  |  | |\  \  |  | \   \       
                 \___/    |_|  |_| |__|  |__|  |_| \__\ |__|  \__/        
                                                                              
                      - O R C A' S   B I G   F R I E N D -                    
                                      &                                       
                       - I N T E G R A L  F E E D E R -                       
                                                                              
 v1 FN, 2020, v2 2021, v3 2022-2024                                           
------------------------------------------------------------------------------


----------------------
SHARK INTEGRAL PACKAGE
----------------------

Number of atoms                             ...     18
Number of basis functions                   ...    675
Number of shells                            ...    261
Maximum angular momentum                    ...      3
Integral batch strategy                     ... SHARK/LIBINT Hybrid
RI-J (if used) integral strategy            ... SPLIT-RIJ (Revised 2003 algorithm where possible)
Printlevel                                  ...      1
Contraction scheme used                     ... PARTIAL GENERAL contraction
Prescreening option                         ... SCHWARTZ
   Thresh                                   ... 2.500e-11
   Tcut                                     ... 2.500e-12
   Tpresel                                  ... 2.500e-12 
Coulomb Range Separation                    ... NOT USED
Exchange Range Separation                   ... NOT USED
Multipole approximations                    ... NOT USED
Finite Nucleus Model                        ... NOT USED
CABS basis                                  ... NOT available
Auxiliary Coulomb fitting basis             ... AVAILABLE
   # of basis functions in Aux-J            ...    540
   # of shells in Aux-J                     ...    180
   Maximum angular momentum in Aux-J        ...      4
Auxiliary J/K fitting basis                 ... NOT available
Auxiliary Correlation fitting basis         ... NOT available
Auxiliary 'external' fitting basis          ... NOT available

Checking pre-screening integrals            ... done (  0.0 sec) Dimension = 261
Save PGC pre-screening integrals            ... done (  0.0 sec) Dimension = 261
Calculate PGC overlap integrals             ... done (  0.1 sec) Dimension = 207
Calculating pre-screening integrals (ORCA)  ... done (  0.2 sec) Dimension = 207
Check shell pair data                       ... done (  0.0 sec)
Shell pair information
Shell pair cut-off parameter TPreSel        ...   2.5e-12
Total number of shell pairs                 ...     34191
Shell pairs after pre-screening             ...     28696
Total number of primitive shell pairs       ...     44307
Primitive shell pairs kept                  ...     34521
          la=0 lb=0:   6525 shell pairs
          la=1 lb=0:   7333 shell pairs
          la=1 lb=1:   1878 shell pairs
          la=2 lb=0:   5178 shell pairs
          la=2 lb=1:   2620 shell pairs
          la=2 lb=2:    952 shell pairs
          la=3 lb=0:   2189 shell pairs
          la=3 lb=1:   1081 shell pairs
          la=3 lb=2:    771 shell pairs
          la=3 lb=3:    169 shell pairs

Calculating one electron integrals          ... done (  0.1 sec)
Calculating RI/J V-Matrix + Cholesky decomp.... done (  0.0 sec)
Calculating Nuclear repulsion               ... done (  0.0 sec) ENN=    426.182925624687 Eh

Diagonalization of the overlap matrix:
Smallest eigenvalue                        ... 6.667e-07
Time for diagonalization                   ...    0.059 sec
Threshold for overlap eigenvalues          ... 1.000e-07
Number of eigenvalues below threshold      ... 0

IMPORTANT:
Smallest eigenvalue of S below the DiffSThresh (1.000e-06) while
Thresh>1e-12 and/or TCut>1e-13! In order to avoid SCF convergence issues,
Thresh will be set to at least 1e-12 and TCut to at least 1e-13.
This can be turned off by adding %SCF DiffSThresh -1 END to the input.

Time for construction of square roots      ...    0.048 sec
Total time needed                          ...    0.129 sec

-------------------
DFT GRID GENERATION
-------------------

General Integration Accuracy     IntAcc      ... 4.388
Radial Grid Type                 RadialGrid  ... OptM3 with GC (2021)
Angular Grid (max. ang.)         AngularGrid ... 4 (Lebedev-302)
Angular grid pruning method      GridPruning ... 4 (adaptive)
Weight generation scheme         WeightScheme... mBecke (2022)
Basis function cutoff            BFCut       ... 1.0000e-11
Integration weight cutoff        WCut        ... 1.0000e-14
Partially contracted basis set               ... off
Rotationally invariant grid construction     ... off
Angular grids for H and He will be reduced by one unit
Diffuse basis detected: some atoms will have their outermost
                        angular grid increased by 1.

Total number of grid points                  ...    87236
Total number of batches                      ...     1371
Average number of points per batch           ...       63
Average number of grid points per atom       ...     4846

---------------------
SHARK GRID GENERATION
---------------------

General Integration Accuracy     IntAcc      ... 4.388
Radial Grid Type                 RadialGrid  ... OptM3 with GC (2021)
Angular Grid (max. ang.)         AngularGrid ... 4 (Lebedev-302)
Angular grid pruning method      GridPruning ... 4 (adaptive)
Weight generation scheme         WeightScheme... mBecke (2022)
Basis function cutoff            BFCut       ... 1.0000e-11
Integration weight cutoff        WCut        ... 1.0000e-14
Partially contracted basis set               ... off
Rotationally invariant grid construction     ... off
Angular grids for H and He will be reduced by one unit
Diffuse basis detected: some atoms will have their outermost
                        angular grid increased by 1.
Steep s-basis detected: some atoms will have their radial
                        grid points doubled.

Total number of grid points                  ...   144109
Total number of batches                      ...     2259
Average number of points per batch           ...       63
Average number of grid points per atom       ...     8006

--------------------
COSX GRID GENERATION
--------------------

GRIDX 1
-------
General Integration Accuracy     IntAcc      ... 3.816
Radial Grid Type                 RadialGrid  ... OptM3 with GC (2021)
Angular Grid (max. ang.)         AngularGrid ... 1 (Lebedev-50)
Angular grid pruning method      GridPruning ... 4 (adaptive)
Weight generation scheme         WeightScheme... mBecke (2022)
Basis function cutoff            BFCut       ... 1.0000e-11
Integration weight cutoff        WCut        ... 1.0000e-14
Partially contracted basis set               ... on
Rotationally invariant grid construction     ... off
Angular grids for H and He will be reduced by one unit
Diffuse basis detected: some atoms will have their outermost
                        angular grid increased by 1.

Total number of grid points                  ...    10939
Total number of batches                      ...       96
Average number of points per batch           ...      113
Average number of grid points per atom       ...      608
UseSFitting                                  ... on

GRIDX 2
-------
General Integration Accuracy     IntAcc      ... 4.020
Radial Grid Type                 RadialGrid  ... OptM3 with GC (2021)
Angular Grid (max. ang.)         AngularGrid ... 2 (Lebedev-110)
Angular grid pruning method      GridPruning ... 4 (adaptive)
Weight generation scheme         WeightScheme... mBecke (2022)
Basis function cutoff            BFCut       ... 1.0000e-11
Integration weight cutoff        WCut        ... 1.0000e-14
Partially contracted basis set               ... on
Rotationally invariant grid construction     ... off
Angular grids for H and He will be reduced by one unit
Diffuse basis detected: some atoms will have their outermost
                        angular grid increased by 1.

Total number of grid points                  ...    26477
Total number of batches                      ...      215
Average number of points per batch           ...      123
Average number of grid points per atom       ...     1471
UseSFitting                                  ... on

GRIDX 3
-------
General Integration Accuracy     IntAcc      ... 4.338
Radial Grid Type                 RadialGrid  ... OptM3 with GC (2021)
Angular Grid (max. ang.)         AngularGrid ... 3 (Lebedev-194)
Angular grid pruning method      GridPruning ... 4 (adaptive)
Weight generation scheme         WeightScheme... mBecke (2022)
Basis function cutoff            BFCut       ... 1.0000e-11
Integration weight cutoff        WCut        ... 1.0000e-14
Partially contracted basis set               ... on
Rotationally invariant grid construction     ... off
Angular grids for H and He will be reduced by one unit
Diffuse basis detected: some atoms will have their outermost
                        angular grid increased by 1.

Total number of grid points                  ...    58958
Total number of batches                      ...      470
Average number of points per batch           ...      125
Average number of grid points per atom       ...     3275
UseSFitting                                  ... on
Initializing property integral containers    ... done (  0.0 sec)

SHARK setup successfully completed in   6.5 seconds

Maximum memory used throughout the entire STARTUP-calculation: 74.0 MB


           ************************************************************
           *        Program running with 4 parallel MPI-processes     *
           *              working on a common directory               *
           ************************************************************
-------------------------------------------------------------------------------
                                 ORCA GUESS
                   Start orbitals & Density for SCF / CASSCF
-------------------------------------------------------------------------------

------------
SCF SETTINGS
------------
Hamiltonian:
 Density Functional     Method          .... DFT(GTOs)
 Exchange Functional    Exchange        .... TPSS
 Correlation Functional Correlation     .... TPSS
 LDA part of GGA corr.  LDAOpt          .... PW91-LDA
 Gradients option       PostSCFGGA      .... off
 Hybrid DFT is turned on
   Fraction HF Exchange ScalHFX         ....  0.100000
   Scaling of DF-GGA-X  ScalDFX         ....  0.900000
   Scaling of DF-GGA-C  ScalDFC         ....  1.000000
   Scaling of DF-LDA-C  ScalLDAC        ....  1.000000
   Perturbative correction              ....  0.000000
   NL short-range parameter             ....  5.200000
 RI-approximation to the Coulomb term is turned on
   Number of AuxJ basis functions       .... 540
   RIJ-COSX (HFX calculated with COS-X)).... on


General Settings:
 Integral files         IntName         .... cs_rporg_070_ox_solv_01
 Hartree-Fock type      HFTyp           .... UHF
 Total Charge           Charge          ....    1
 Multiplicity           Mult            ....    2
 Number of Electrons    NEL             ....   65
 Basis Dimension        Dim             ....  621
 Nuclear Repulsion      ENuc            ....    426.1829256247 Eh

Convergence Acceleration:
 AO-DIIS                CNVDIIS         .... on
   Start iteration      DIISMaxIt       ....     0
   Startup error        DIISStart       ....  0.200000
   # of expansion vecs  DIISMaxEq       ....     5
   Bias factor          DIISBfac        ....   1.050
   Max. coefficient     DIISMaxC        ....  10.000
 MO-DIIS                CNVKDIIS        .... off
 Trust-Rad. Augm. Hess. CNVTRAH         .... auto
   Auto Start mean grad. ratio tolernc. ....  1.125000
   Auto Start start iteration           ....    50
   Auto Start num. interpolation iter.  ....    10
   Max. Number of Micro iterations      ....    24
   Max. Number of Macro iterations      .... Maxiter - #DIIS iter
   Number of Davidson start vectors     ....     2
   Converg. threshold    (grad. norm)   ....   1.000e-05
   Grad. Scal. Fac. for Micro threshold ....   0.100
   Minimum threshold for Micro iter.    ....   1.000e-02
   NR start threshold (gradient norm)   ....   1.000e-04
   Initial trust radius                 ....   0.400
   Minimum AH scaling param. (alpha)    ....   1.000
   Maximum AH scaling param. (alpha)    .... 1000.000
   Quad. conv. algorithm                .... NR
   White noise on init. David. guess    .... on
   Maximum white noise                  ....   0.010
   Pseudo random numbers                .... off
   Inactive MOs                         .... canonical
   Orbital update algorithm             .... Taylor
   Preconditioner                       .... Diag
   Full preconditioner red. dimension   ....   250
 SOSCF                  CNVSOSCF        .... on
   Start iteration      SOSCFMaxIt      ....   150
   Startup grad/error   SOSCFStart      ....  0.001000
   Hessian update       SOSCFHessUp     .... L-BFGS
 Level Shifting         CNVShift        .... on
   Level shift para.    LevelShift      ....    0.2500
   Turn off err/grad.   ShiftErr        ....    0.0000
 Zerner damping         CNVZerner       .... off
 Static damping         CNVDamp         .... on
   Fraction old density DampFac         ....    0.8500
   Max. Damping (<1)    DampMax         ....    0.9800
   Min. Damping (>=0)   DampMin         ....    0.0000
   Turn off err/grad.   DampErr         ....    0.0300

SCF Procedure:
 Maximum # iterations   MaxIter         ....  1500
 SCF integral mode      SCFMode         .... Direct
   Integral package                     .... SHARK and LIBINT hybrid scheme
 Reset frequency        DirectResetFreq ....    20
 Integral Threshold     Thresh          ....  1.000e-12 Eh
 Primitive CutOff       TCut            ....  1.000e-13 Eh

Convergence Tolerance:
 Convergence Check Mode ConvCheckMode   .... Total+1el-Energy
 Convergence forced     ConvForced      .... 0
 Energy Change          TolE            ....  1.000e-08 Eh
 1-El. energy change                    ....  1.000e-05 Eh
 Orbital Gradient       TolG            ....  1.000e-05
 Orbital Rotation angle TolX            ....  1.000e-05
 DIIS Error             TolErr          ....  5.000e-07

------------------------------
INITIAL GUESS: MODEL POTENTIAL
------------------------------
Loading Hartree-Fock densities                     ... done
Calculating cut-offs                               ... done
Initializing the effective Hamiltonian             ... done
Setting up the integral package (SHARK)            ... done
Starting the Coulomb interaction                   ... done (   0.4 sec)
Making the grid                                    ... done (   0.3 sec)
Mapping shells                                     ... done
Starting the XC term evaluation                    ... done (   0.6 sec)
  promolecular density results
     # of electrons  =     65.991502699
     EX              =    -53.166392234
     EC              =     -2.189985831
     EX+EC           =    -55.356378065
Transforming the Hamiltonian                       ... done (   0.0 sec)
Diagonalizing the Hamiltonian                      ... done (   0.1 sec)
Back transforming the eigenvectors                 ... done (   0.1 sec)
Now organizing SCF variables                       ... done
                      ------------------
                      INITIAL GUESS DONE (   1.7 sec)
                      ------------------
             **** ENERGY FILE WAS UPDATED (cs_rporg_070_ox_solv_01.en.tmp) ****
Finished Guess after   2.8 sec
Maximum memory used throughout the entire GUESS-calculation: 52.1 MB


           ************************************************************
           *        Program running with 4 parallel MPI-processes     *
           *              working on a common directory               *
           ************************************************************

-------------------------------------------------------------------------------------------
                                      ORCA LEAN-SCF
                              memory conserving SCF solver
-------------------------------------------------------------------------------------------

--------------------
CPCM SOLVATION MODEL
--------------------
CPCM parameters:
  Epsilon                                         ...      35.6880
  Refrac                                          ...       1.3442
  Rsolv                                           ...       2.1900
  Surface type                                    ...    GEPOL SES
  Discretization scheme                           ... Constant num. charges
  Epsilon function type                           ...         CPCM
Solvent:                                          ... ACETONITRILE
SMD-CDS solvent descriptors:
  Soln                                            ...       1.3442
  Soln25                                          ...       1.3416
  Sola                                            ...       0.0700
  Solb                                            ...       0.3200
  Solg                                            ...      41.2500
  Solc                                            ...       0.0000
  Solh                                            ...       0.0000
Radii:
  Scheme                                          ... Element-dependent radii
  Radius for C  used is    3.4960 Bohr (=   1.8500 Ang.)
  Radius for N  used is    3.5716 Bohr (=   1.8900 Ang.)
  Radius for H  used is    2.2677 Bohr (=   1.2000 Ang.)
  Radius for O  used is    4.0969 Bohr (=   2.1680 Ang.)
Calculating surface                               ...        done! (  0.0s)
Cavity surface points                             ...          578
Cavity Volume                                     ...    1002.5209
Cavity Surface-area                               ...     579.0440
Calculating surface distance matrix               ...        done! (  0.0s)
Performing Cholesky decomposition & store         ...        done! (  0.0s)
Overall time for CPCM initialization              ...                 0.0s

----------------------------------------D-I-I-S--------------------------------------------
Iteration    Energy (Eh)           Delta-E    RMSDP     MaxDP     DIISErr   Damp  Time(sec)
-------------------------------------------------------------------------------------------
               ***  Starting incremental Fock matrix formation  ***
    1    -401.9909274079300872     0.00e+00  4.71e-04  3.73e-02  8.38e-02  0.850  25.4
Warning: op=1 Small HOMO/LUMO gap (   0.046) - skipping pre-diagonalization
         Will do a full diagonalization
    2    -402.0237518474022522    -3.28e-02  4.48e-04  3.90e-02  6.20e-02  0.850  16.5
                               ***Turning on AO-DIIS***
    3    -402.0459601543423673    -2.22e-02  3.41e-04  3.07e-02  4.26e-02  0.850  15.9
    4    -402.0606592348678419    -1.47e-02  2.81e-04  2.57e-02  3.48e-02  0.850  16.5
    5    -402.0714700943065623    -1.08e-02  2.38e-04  2.20e-02  2.98e-02  0.850  15.5
    6    -402.0800618014941961    -8.59e-03  1.36e-03  1.26e-01  2.57e-02  0.000  15.5
    7    -402.1231018200792846    -4.30e-02  5.47e-05  4.41e-03  2.62e-03  0.000  15.9
    8    -402.1231988078375821    -9.70e-05  2.14e-05  2.00e-03  2.21e-03  0.000  14.2
                              *** Initializing SOSCF ***
---------------------------------------S-O-S-C-F--------------------------------------
Iteration    Energy (Eh)           Delta-E    RMSDP     MaxDP     MaxGrad    Time(sec)
--------------------------------------------------------------------------------------
    9    -402.1232616706570866    -6.29e-05  1.68e-05  1.25e-03  8.60e-04    14.5
               *** Restarting incremental Fock matrix formation ***
   10    -402.1232948380498442    -3.32e-05  3.26e-05  1.83e-03  7.19e-04    24.0
   11    -402.1233103265129216    -1.55e-05  3.74e-05  3.17e-03  3.71e-04    19.6
   12    -402.1233169582223468    -6.63e-06  2.92e-05  2.48e-03  3.38e-04    19.9
   13    -402.1233201240619906    -3.17e-06  1.03e-05  7.88e-04  1.13e-04    19.1
   14    -402.1233202711979970    -1.47e-07  5.76e-06  4.48e-04  1.20e-04    18.7
   15    -402.1233206581446780    -3.87e-07  2.09e-06  1.77e-04  3.58e-05    17.8
   16    -402.1233206862686416    -2.81e-08  1.10e-06  8.58e-05  2.76e-05    17.3
   17    -402.1233207097636182    -2.35e-08  6.32e-07  5.81e-05  9.67e-06    16.5
   18    -402.1233207061656572     3.60e-09  2.81e-07  1.64e-05  7.06e-06    16.4
                 **** Energy Check signals convergence ****

               *****************************************************
               *                     SUCCESS                       *
               *           SCF CONVERGED AFTER  18 CYCLES          *
               *****************************************************

Recomputing exchange energy using gridx3       ... done (   27.034 sec)
Old exchange energy                            :     -5.409092278 Eh
New exchange energy                            :     -5.409119060 Eh
Exchange energy change after final integration :     -0.000026782 Eh
Total energy after final integration           :   -402.123347488 Eh

SMD CDS free energy correction energy :                -0.37567     Kcal/mol
Total Energy after SMD CDS correction =              -402.123946161 Eh
             **** ENERGY FILE WAS UPDATED (cs_rporg_070_ox_solv_01.en.tmp) ****

----------------
TOTAL SCF ENERGY
----------------

Total Energy       :       -402.12394616063710 Eh          -10942.34887 eV

Components:
Nuclear Repulsion  :        426.18292562468667 Eh           11597.02699 eV
Electronic Energy  :       -828.21460411005432 Eh          -22536.86513 eV
One Electron Energy:      -1376.64987964626107 Eh          -37460.54768 eV
Two Electron Energy:        548.43527553620675 Eh           14923.68255 eV
CPCM Dielectric    :         -0.09164222079795 Eh              -2.49371 eV
SMD CDS (Gcds)     :         -0.00059867227577 Eh              -0.01629 eV

Virial components:
Potential Energy   :       -801.91095875022074 Eh          -21821.10655 eV
Kinetic Energy     :        399.78701258958370 Eh           10878.75768 eV
Virial Ratio       :          2.00584544644389

DFT components:
N(Alpha)           :       33.000022154245 electrons
N(Beta)            :       32.000020713207 electrons
N(Total)           :       65.000042867452 electrons
E(X)               :      -49.082769908580 Eh       
E(C)               :       -2.162256875781 Eh       
E(XC)              :      -51.245026784361 Eh       

CPCM Solvation Model Properties:
Surface-charge          :         -1.03080143871794
Corrected charge        :         -1.00000000000000
Outlying charge corr.   :          0.00006924926541 Eh               0.00188 eV
Free-energy (cav+disp)  :         -0.00059867227577 Eh              -0.01629 eV

---------------
SCF CONVERGENCE
---------------

  Last Energy change         ...   -3.5980e-09  Tolerance :   1.0000e-08
  Last MAX-Density change    ...    1.6437e-05  Tolerance :   1.0000e-07
  Last RMS-Density change    ...    2.8101e-07  Tolerance :   5.0000e-09
  Last DIIS Error            ...    8.5957e-04  Tolerance :   5.0000e-07
  Last Orbital Gradient      ...    7.0596e-06  Tolerance :   1.0000e-05
  Last Orbital Rotation      ...    1.4445e-04  Tolerance :   1.0000e-05


----------------------
UHF SPIN CONTAMINATION
----------------------

Warning: in a DFT calculation there is little theoretical justification to 
         calculate <S**2> as in Hartree-Fock theory. We will do it anyways
         but you should keep in mind that the values have only limited relevance

Expectation value of <S**2>     :     0.774825
Ideal value S*(S+1) for S=0.5   :     0.750000
Deviation                       :     0.024825

----------------
ORBITAL ENERGIES
----------------
                 SPIN UP ORBITALS
  NO   OCC          E(Eh)            E(eV) 
   0   1.0000     -19.116538      -520.1874 
   1   1.0000     -14.331618      -389.9832 
   2   1.0000     -10.217254      -278.0256 
   3   1.0000     -10.214906      -277.9617 
   4   1.0000     -10.172990      -276.8211 
   5   1.0000     -10.169702      -276.7317 
   6   1.0000     -10.165749      -276.6241 
   7   1.0000     -10.150038      -276.1966 
   8   1.0000     -10.141469      -275.9634 
   9   1.0000      -1.086777       -29.5727 
  10   1.0000      -0.967034       -26.3143 
  11   1.0000      -0.857816       -23.3424 
  12   1.0000      -0.774743       -21.0818 
  13   1.0000      -0.749747       -20.4017 
  14   1.0000      -0.704542       -19.1716 
  15   1.0000      -0.634101       -17.2548 
  16   1.0000      -0.614500       -16.7214 
  17   1.0000      -0.551732       -15.0134 
  18   1.0000      -0.547396       -14.8954 
  19   1.0000      -0.504881       -13.7385 
  20   1.0000      -0.491445       -13.3729 
  21   1.0000      -0.476804       -12.9745 
  22   1.0000      -0.473063       -12.8727 
  23   1.0000      -0.439113       -11.9489 
  24   1.0000      -0.426309       -11.6005 
  25   1.0000      -0.413600       -11.2546 
  26   1.0000      -0.390290       -10.6203 
  27   1.0000      -0.377470       -10.2715 
  28   1.0000      -0.371669       -10.1136 
  29   1.0000      -0.331259        -9.0140 
  30   1.0000      -0.330550        -8.9947 
  31   1.0000      -0.252805        -6.8792 
  32   1.0000      -0.249125        -6.7790 
  33   0.0000      -0.049238        -1.3398 
  34   0.0000      -0.045048        -1.2258 
  35   0.0000      -0.008420        -0.2291 
  36   0.0000       0.002198         0.0598 
  37   0.0000       0.007749         0.2109 
  38   0.0000       0.021259         0.5785 
  39   0.0000       0.022902         0.6232 
  40   0.0000       0.024583         0.6689 
  41   0.0000       0.030974         0.8428 
  42   0.0000       0.046525         1.2660 
  43   0.0000       0.048642         1.3236 

                 SPIN DOWN ORBITALS
  NO   OCC          E(Eh)            E(eV) 
   0   1.0000     -19.116042      -520.1739 
   1   1.0000     -14.324342      -389.7852 
   2   1.0000     -10.217922      -278.0438 
   3   1.0000     -10.214595      -277.9533 
   4   1.0000     -10.173016      -276.8218 
   5   1.0000     -10.162737      -276.5421 
   6   1.0000     -10.160093      -276.4702 
   7   1.0000     -10.152488      -276.2632 
   8   1.0000     -10.140550      -275.9384 
   9   1.0000      -1.085941       -29.5500 
  10   1.0000      -0.955926       -26.0121 
  11   1.0000      -0.850146       -23.1337 
  12   1.0000      -0.772720       -21.0268 
  13   1.0000      -0.737513       -20.0688 
  14   1.0000      -0.700269       -19.0553 
  15   1.0000      -0.630905       -17.1678 
  16   1.0000      -0.611320       -16.6349 
  17   1.0000      -0.550491       -14.9796 
  18   1.0000      -0.544130       -14.8065 
  19   1.0000      -0.501389       -13.6435 
  20   1.0000      -0.488732       -13.2991 
  21   1.0000      -0.474203       -12.9037 
  22   1.0000      -0.470000       -12.7894 
  23   1.0000      -0.438525       -11.9329 
  24   1.0000      -0.412305       -11.2194 
  25   1.0000      -0.405728       -11.0404 
  26   1.0000      -0.388215       -10.5639 
  27   1.0000      -0.375952       -10.2302 
  28   1.0000      -0.357742        -9.7346 
  29   1.0000      -0.329334        -8.9616 
  30   1.0000      -0.312227        -8.4961 
  31   1.0000      -0.242171        -6.5898 
  32   0.0000      -0.181815        -4.9474 
  33   0.0000      -0.038143        -1.0379 
  34   0.0000      -0.022569        -0.6141 
  35   0.0000      -0.007294        -0.1985 
  36   0.0000       0.003188         0.0867 
  37   0.0000       0.007997         0.2176 
  38   0.0000       0.021959         0.5975 
  39   0.0000       0.023641         0.6433 
  40   0.0000       0.025057         0.6818 
  41   0.0000       0.031909         0.8683 
  42   0.0000       0.047022         1.2795 
*Only the first 10 virtual orbitals were printed.

                    ********************************
                    * MULLIKEN POPULATION ANALYSIS *
                    ********************************

--------------------------------------------
MULLIKEN ATOMIC CHARGES AND SPIN POPULATIONS
--------------------------------------------
   0 C :   -0.314597    0.344108
   1 C :   -0.304048   -0.175670
   2 C :   -0.261116    0.457566
   3 C :    0.829862   -0.044411
   4 C :   -0.560109    0.036576
   5 C :    0.836365    0.068356
   6 N :   -0.305963    0.301238
   7 H :    0.030622   -0.000877
   8 H :    0.034851   -0.001625
   9 H :    0.278710   -0.002651
  10 O :   -0.668097    0.016864
  11 C :   -0.239549    0.004012
  12 H :    0.045943    0.000201
  13 H :    0.202216   -0.002478
  14 H :    0.201932   -0.002429
  15 H :    0.381129    0.004590
  16 H :    0.447756   -0.002830
  17 H :    0.364095   -0.000537
Sum of atomic charges         :    1.0000000
Sum of atomic spin populations:    1.0000000

-----------------------------------------------------
MULLIKEN REDUCED ORBITAL CHARGES AND SPIN POPULATIONS
-----------------------------------------------------
CHARGE
  0 C s       :     3.719979  s :     3.719979
      pz      :     0.876268  p :     2.436256
      px      :     0.779935
      py      :     0.780053
      dz2     :     0.006042  d :     0.172250
      dxz     :    -0.000157
      dyz     :     0.017205
      dx2y2   :     0.037776
      dxy     :     0.111384
      f0      :     0.000830  f :    -0.013887
      f+1     :     0.000592
      f-1     :     0.000040
      f+2     :     0.001079
      f-2     :     0.000950
      f+3     :    -0.015528
      f-3     :    -0.001850

  1 C s       :     3.507892  s :     3.507892
      pz      :     0.948186  p :     2.729001
      px      :     0.964235
      py      :     0.816580
      dz2     :    -0.018608  d :     0.082759
      dxz     :     0.019987
      dyz     :     0.014275
      dx2y2   :     0.079938
      dxy     :    -0.012833
      f0      :     0.001093  f :    -0.015605
      f+1     :     0.000674
      f-1     :     0.000605
      f+2     :     0.000188
      f-2     :     0.000303
      f+3     :    -0.016506
      f-3     :    -0.001962

  2 C s       :     3.707370  s :     3.707370
      pz      :     0.832689  p :     2.371956
      px      :     0.706668
      py      :     0.832598
      dz2     :     0.001243  d :     0.195198
      dxz     :    -0.000661
      dyz     :    -0.011803
      dx2y2   :     0.025473
      dxy     :     0.180946
      f0      :     0.000845  f :    -0.013407
      f+1     :     0.000151
      f-1     :     0.000115
      f+2     :    -0.000751
      f-2     :     0.002693
      f+3     :    -0.022750
      f-3     :     0.006289

  3 C s       :     3.139419  s :     3.139419
      pz      :     0.895647  p :     2.073217
      px      :     0.541309
      py      :     0.636261
      dz2     :    -0.023857  d :    -0.052724
      dxz     :     0.062138
      dyz     :     0.000690
      dx2y2   :    -0.039825
      dxy     :    -0.051871
      f0      :     0.004126  f :     0.010226
      f+1     :     0.001213
      f-1     :     0.000107
      f+2     :     0.002694
      f-2     :     0.015358
      f+3     :    -0.005163
      f-3     :    -0.008109

  4 C s       :     3.961956  s :     3.961956
      pz      :     1.010568  p :     2.493834
      px      :     0.619195
      py      :     0.864071
      dz2     :     0.014376  d :     0.134733
      dxz     :     0.036744
      dyz     :     0.002700
      dx2y2   :     0.065665
      dxy     :     0.015248
      f0      :    -0.000529  f :    -0.030414
      f+1     :    -0.002389
      f-1     :     0.001268
      f+2     :    -0.000242
      f-2     :     0.001995
      f+3     :    -0.031309
      f-3     :     0.000793

  5 C s       :     3.206252  s :     3.206252
      pz      :     0.839108  p :     1.959177
      px      :     0.532867
      py      :     0.587202
      dz2     :    -0.020679  d :     0.040201
      dxz     :     0.055363
      dyz     :     0.013970
      dx2y2   :    -0.013041
      dxy     :     0.004587
      f0      :     0.004027  f :    -0.041995
      f+1     :    -0.001994
      f-1     :    -0.001612
      f+2     :     0.003163
      f-2     :     0.004087
      f+3     :    -0.036178
      f-3     :    -0.013488

  6 N s       :     3.854830  s :     3.854830
      pz      :     1.371896  p :     3.402356
      px      :     1.004951
      py      :     1.025509
      dz2     :    -0.007485  d :     0.042719
      dxz     :     0.019419
      dyz     :     0.008510
      dx2y2   :     0.011764
      dxy     :     0.010511
      f0      :     0.000754  f :     0.006058
      f+1     :     0.000404
      f-1     :    -0.000242
      f+2     :     0.000631
      f-2     :     0.000437
      f+3     :     0.004758
      f-3     :    -0.000684

  7 H s       :     0.854527  s :     0.854527
      pz      :     0.041935  p :     0.085923
      px      :     0.022371
      py      :     0.021618
      dz2     :     0.002298  d :     0.028928
      dxz     :    -0.000097
      dyz     :     0.011793
      dx2y2   :     0.001749
      dxy     :     0.013184

  8 H s       :     0.850365  s :     0.850365
      pz      :     0.044186  p :     0.085571
      px      :     0.026413
      py      :     0.014972
      dz2     :     0.002230  d :     0.029213
      dxz     :     0.010206
      dyz     :     0.002056
      dx2y2   :     0.010161
      dxy     :     0.004560

  9 H s       :     0.742426  s :     0.742426
      pz      :     0.014500  p :    -0.024163
      px      :    -0.010322
      py      :    -0.028341
      dz2     :    -0.000844  d :     0.003027
      dxz     :     0.000301
      dyz     :     0.004758
      dx2y2   :     0.000062
      dxy     :    -0.001249

 10 O s       :     4.212652  s :     4.212652
      pz      :     1.693202  p :     4.367610
      px      :     1.115912
      py      :     1.558497
      dz2     :     0.000791  d :     0.081645
      dxz     :     0.024542
      dyz     :     0.009671
      dx2y2   :     0.017977
      dxy     :     0.028665
      f0      :     0.000819  f :     0.006189
      f+1     :     0.000142
      f-1     :     0.000059
      f+2     :     0.000244
      f-2     :     0.001502
      f+3     :     0.003596
      f-3     :    -0.000174

 11 C s       :     3.297769  s :     3.297769
      pz      :     1.051623  p :     2.761155
      px      :     0.757159
      py      :     0.952373
      dz2     :     0.013967  d :     0.150950
      dxz     :     0.021486
      dyz     :     0.055741
      dx2y2   :     0.034130
      dxy     :     0.025627
      f0      :     0.004140  f :     0.029675
      f+1     :     0.001579
      f-1     :     0.002618
      f+2     :     0.007426
      f-2     :     0.000475
      f+3     :     0.012312
      f-3     :     0.001125

 12 H s       :     0.921544  s :     0.921544
      pz      :     0.007837  p :     0.031263
      px      :     0.010742
      py      :     0.012684
      dz2     :    -0.001330  d :     0.001250
      dxz     :     0.000377
      dyz     :     0.003609
      dx2y2   :    -0.001000
      dxy     :    -0.000406

 13 H s       :     0.762861  s :     0.762861
      pz      :     0.013302  p :     0.028667
      px      :     0.008414
      py      :     0.006951
      dz2     :     0.002791  d :     0.006257
      dxz     :     0.001709
      dyz     :     0.000271
      dx2y2   :     0.000570
      dxy     :     0.000916

 14 H s       :     0.763172  s :     0.763172
      pz      :     0.013643  p :     0.028640
      px      :     0.008157
      py      :     0.006841
      dz2     :     0.002624  d :     0.006256
      dxz     :     0.001755
      dyz     :     0.000417
      dx2y2   :     0.000518
      dxy     :     0.000943

 15 H s       :     0.647838  s :     0.647838
      pz      :     0.007215  p :    -0.037926
      px      :    -0.013610
      py      :    -0.031531
      dz2     :     0.000167  d :     0.008959
      dxz     :     0.003645
      dyz     :     0.000387
      dx2y2   :     0.002450
      dxy     :     0.002310

 16 H s       :     0.529273  s :     0.529273
      pz      :     0.018818  p :     0.015742
      px      :     0.006107
      py      :    -0.009184
      dz2     :    -0.000494  d :     0.007229
      dxz     :    -0.000092
      dyz     :     0.005077
      dx2y2   :     0.000810
      dxy     :     0.001928

 17 H s       :     0.632066  s :     0.632066
      pz      :     0.011919  p :    -0.001207
      px      :    -0.013318
      py      :     0.000193
      dz2     :    -0.000968  d :     0.005046
      dxz     :     0.003913
      dyz     :     0.000729
      dx2y2   :    -0.000285
      dxy     :     0.001657


SPIN
  0 C s       :    -0.003898  s :    -0.003898
      pz      :     0.314731  p :     0.345835
      px      :     0.017593
      py      :     0.013511
      dz2     :    -0.002102  d :     0.004009
      dxz     :     0.001654
      dyz     :     0.000528
      dx2y2   :     0.003902
      dxy     :     0.000027
      f0      :    -0.000536  f :    -0.001838
      f+1     :    -0.000402
      f-1     :    -0.000304
      f+2     :    -0.000286
      f-2     :    -0.000051
      f+3     :     0.000444
      f-3     :    -0.000702

  1 C s       :    -0.018177  s :    -0.018177
      pz      :    -0.131823  p :    -0.166837
      px      :    -0.026104
      py      :    -0.008910
      dz2     :     0.000654  d :     0.010018
      dxz     :     0.016904
      dyz     :    -0.002541
      dx2y2   :    -0.007937
      dxy     :     0.002937
      f0      :     0.000202  f :    -0.000674
      f+1     :    -0.000069
      f-1     :     0.000286
      f+2     :     0.000178
      f-2     :    -0.000120
      f+3     :    -0.000769
      f-3     :    -0.000382

  2 C s       :     0.005873  s :     0.005873
      pz      :     0.390418  p :     0.444208
      px      :     0.026226
      py      :     0.027564
      dz2     :    -0.001915  d :     0.009413
      dxz     :     0.003166
      dyz     :     0.001780
      dx2y2   :     0.000499
      dxy     :     0.005882
      f0      :    -0.000650  f :    -0.001927
      f+1     :    -0.000544
      f-1     :    -0.000435
      f+2     :     0.000147
      f-2     :     0.000142
      f+3     :    -0.000238
      f-3     :    -0.000350

  3 C s       :     0.002053  s :     0.002053
      pz      :    -0.024971  p :    -0.042235
      px      :    -0.006100
      py      :    -0.011163
      dz2     :     0.000365  d :    -0.003625
      dxz     :    -0.006758
      dyz     :     0.004876
      dx2y2   :    -0.000740
      dxy     :    -0.001369
      f0      :    -0.000121  f :    -0.000604
      f+1     :     0.000090
      f-1     :    -0.000068
      f+2     :     0.001115
      f-2     :    -0.000409
      f+3     :    -0.000844
      f-3     :    -0.000366

  4 C s       :    -0.011256  s :    -0.011256
      pz      :     0.056552  p :     0.050932
      px      :    -0.006563
      py      :     0.000943
      dz2     :    -0.000889  d :    -0.001991
      dxz     :    -0.003122
      dyz     :     0.001374
      dx2y2   :    -0.000198
      dxy     :     0.000844
      f0      :    -0.000157  f :    -0.001109
      f+1     :    -0.000093
      f-1     :    -0.000010
      f+2     :    -0.000544
      f-2     :    -0.000354
      f+3     :     0.000596
      f-3     :    -0.000547

  5 C s       :     0.027489  s :     0.027489
      pz      :     0.037040  p :     0.035490
      px      :    -0.002068
      py      :     0.000518
      dz2     :     0.000255  d :     0.008050
      dxz     :     0.005103
      dyz     :     0.005369
      dx2y2   :     0.000361
      dxy     :    -0.003040
      f0      :    -0.000111  f :    -0.002673
      f+1     :    -0.000009
      f-1     :    -0.000011
      f+2     :     0.000535
      f-2     :     0.000509
      f+3     :    -0.003568
      f-3     :    -0.000018

  6 N s       :    -0.003124  s :    -0.003124
      pz      :     0.275678  p :     0.300934
      px      :     0.011707
      py      :     0.013548
      dz2     :    -0.000955  d :     0.003138
      dxz     :     0.002713
      dyz     :     0.001757
      dx2y2   :     0.000363
      dxy     :    -0.000740
      f0      :     0.000231  f :     0.000290
      f+1     :    -0.000269
      f-1     :    -0.000230
      f+2     :     0.000025
      f-2     :     0.000111
      f+3     :     0.000435
      f-3     :    -0.000014

  7 H s       :    -0.009980  s :    -0.009980
      pz      :     0.005904  p :     0.007140
      px      :    -0.000166
      py      :     0.001402
      dz2     :     0.000004  d :     0.001963
      dxz     :     0.000022
      dyz     :     0.001880
      dx2y2   :    -0.000058
      dxy     :     0.000115

  8 H s       :    -0.009374  s :    -0.009374
      pz      :     0.004629  p :     0.005909
      px      :     0.001725
      py      :    -0.000445
      dz2     :     0.000003  d :     0.001840
      dxz     :     0.001122
      dyz     :     0.000577
      dx2y2   :     0.000231
      dxy     :    -0.000094

  9 H s       :    -0.004123  s :    -0.004123
      pz      :     0.001205  p :     0.001132
      px      :     0.000452
      py      :    -0.000525
      dz2     :     0.000046  d :     0.000341
      dxz     :    -0.000027
      dyz     :     0.000288
      dx2y2   :     0.000019
      dxy     :     0.000015

 10 O s       :    -0.001218  s :    -0.001218
      pz      :     0.017629  p :     0.018418
      px      :     0.000298
      py      :     0.000491
      dz2     :     0.000072  d :    -0.000366
      dxz     :    -0.000030
      dyz     :     0.000412
      dx2y2   :    -0.000138
      dxy     :    -0.000683
      f0      :    -0.000037  f :     0.000030
      f+1     :    -0.000022
      f-1     :    -0.000001
      f+2     :     0.000001
      f-2     :     0.000035
      f+3     :     0.000043
      f-3     :     0.000012

 11 C s       :    -0.000785  s :    -0.000785
      pz      :     0.001242  p :     0.002059
      px      :    -0.000468
      py      :     0.001285
      dz2     :    -0.000158  d :     0.002496
      dxz     :     0.001105
      dyz     :     0.001903
      dx2y2   :     0.000079
      dxy     :    -0.000431
      f0      :    -0.000021  f :     0.000241
      f+1     :     0.000023
      f-1     :    -0.000022
      f+2     :    -0.000029
      f-2     :     0.000253
      f+3     :     0.000034
      f-3     :     0.000004

 12 H s       :    -0.000013  s :    -0.000013
      pz      :    -0.000237  p :     0.000208
      px      :     0.000201
      py      :     0.000244
      dz2     :     0.000001  d :     0.000006
      dxz     :     0.000017
      dyz     :    -0.000022
      dx2y2   :    -0.000003
      dxy     :     0.000012

 13 H s       :    -0.002318  s :    -0.002318
      pz      :     0.000044  p :    -0.000164
      px      :    -0.000339
      py      :     0.000131
      dz2     :     0.000009  d :     0.000004
      dxz     :    -0.000005
      dyz     :     0.000010
      dx2y2   :     0.000015
      dxy     :    -0.000026

 14 H s       :    -0.002278  s :    -0.002278
      pz      :     0.000040  p :    -0.000156
      px      :    -0.000319
      py      :     0.000123
      dz2     :     0.000006  d :     0.000004
      dxz     :    -0.000003
      dyz     :     0.000010
      dx2y2   :     0.000015
      dxy     :    -0.000023

 15 H s       :    -0.008869  s :    -0.008869
      pz      :     0.009136  p :     0.011509
      px      :     0.001347
      py      :     0.001026
      dz2     :     0.000188  d :     0.001950
      dxz     :     0.001192
      dyz     :     0.000375
      dx2y2   :     0.000216
      dxy     :    -0.000020

 16 H s       :     0.001441  s :     0.001441
      pz      :    -0.004802  p :    -0.003484
      px      :     0.000599
      py      :     0.000719
      dz2     :     0.000029  d :    -0.000787
      dxz     :    -0.000141
      dyz     :    -0.000585
      dx2y2   :     0.000005
      dxy     :    -0.000096

 17 H s       :    -0.009784  s :    -0.009784
      pz      :     0.006411  p :     0.007729
      px      :     0.000216
      py      :     0.001103
      dz2     :     0.000108  d :     0.001518
      dxz     :     0.001083
      dyz     :     0.000131
      dx2y2   :     0.000122
      dxy     :     0.000075



                     *******************************
                     * LOEWDIN POPULATION ANALYSIS *
                     *******************************

-------------------------------------------
LOEWDIN ATOMIC CHARGES AND SPIN POPULATIONS
-------------------------------------------
   0 C :    0.288957    0.174094
   1 C :    0.246430    0.046392
   2 C :    0.282885    0.214373
   3 C :   -0.373646    0.058137
   4 C :    0.263104    0.037368
   5 C :   -0.184976    0.110774
   6 N :    0.950019    0.209940
   7 H :   -0.200060    0.029546
   8 H :   -0.206330    0.027166
   9 H :   -0.149636    0.005101
  10 O :    0.621842    0.013361
  11 C :    0.382857    0.002211
  12 H :   -0.163423   -0.000136
  13 H :   -0.153900    0.000662
  14 H :   -0.153813    0.000653
  15 H :   -0.162025    0.047737
  16 H :   -0.148719   -0.011332
  17 H :   -0.139564    0.033953

----------------------------------------------------
LOEWDIN REDUCED ORBITAL CHARGES AND SPIN POPULATIONS
----------------------------------------------------
CHARGE
  0 C s       :     2.489926  s :     2.489926
      pz      :     0.570175  p :     2.235584
      px      :     0.852633
      py      :     0.812775
      dz2     :     0.067637  d :     0.658408
      dxz     :     0.058497
      dyz     :     0.093540
      dx2y2   :     0.216334
      dxy     :     0.222401
      f0      :     0.022021  f :     0.327125
      f+1     :     0.022934
      f-1     :     0.028715
      f+2     :     0.037745
      f-2     :     0.030100
      f+3     :     0.126085
      f-3     :     0.059526

  1 C s       :     2.491486  s :     2.491486
      pz      :     0.590811  p :     2.273978
      px      :     0.846592
      py      :     0.836575
      dz2     :     0.067323  d :     0.662953
      dxz     :     0.099168
      dyz     :     0.038046
      dx2y2   :     0.283144
      dxy     :     0.175272
      f0      :     0.021049  f :     0.325154
      f+1     :     0.031426
      f-1     :     0.020035
      f+2     :     0.012560
      f-2     :     0.046187
      f+3     :     0.133903
      f-3     :     0.059993

  2 C s       :     2.488652  s :     2.488652
      pz      :     0.553345  p :     2.231563
      px      :     0.851158
      py      :     0.827059
      dz2     :     0.069413  d :     0.666708
      dxz     :     0.069042
      dyz     :     0.087341
      dx2y2   :     0.201616
      dxy     :     0.239297
      f0      :     0.022099  f :     0.330193
      f+1     :     0.023836
      f-1     :     0.027753
      f+2     :     0.050749
      f-2     :     0.022427
      f+3     :     0.121158
      f-3     :     0.062171

  3 C s       :     2.461394  s :     2.461394
      pz      :     0.590598  p :     2.202052
      px      :     0.773041
      py      :     0.838413
      dz2     :     0.100651  d :     1.077468
      dxz     :     0.196092
      dyz     :     0.117979
      dx2y2   :     0.318197
      dxy     :     0.344548
      f0      :     0.038217  f :     0.632732
      f+1     :     0.045699
      f-1     :     0.038596
      f+2     :     0.054359
      f-2     :     0.096319
      f+3     :     0.243444
      f-3     :     0.116099

  4 C s       :     2.480822  s :     2.480822
      pz      :     0.644971  p :     2.290680
      px      :     0.817458
      py      :     0.828251
      dz2     :     0.068066  d :     0.630339
      dxz     :     0.110602
      dyz     :     0.039229
      dx2y2   :     0.228833
      dxy     :     0.183609
      f0      :     0.024200  f :     0.335056
      f+1     :     0.034002
      f-1     :     0.020568
      f+2     :     0.026555
      f-2     :     0.041900
      f+3     :     0.121345
      f-3     :     0.066486

  5 C s       :     2.455882  s :     2.455882
      pz      :     0.561098  p :     2.178510
      px      :     0.801911
      py      :     0.815501
      dz2     :     0.093756  d :     0.998999
      dxz     :     0.180885
      dyz     :     0.123971
      dx2y2   :     0.287092
      dxy     :     0.313295
      f0      :     0.033715  f :     0.551585
      f+1     :     0.040338
      f-1     :     0.036324
      f+2     :     0.059807
      f-2     :     0.064042
      f+3     :     0.231432
      f-3     :     0.085926

  6 N s       :     2.635794  s :     2.635794
      pz      :     0.941676  p :     2.900297
      px      :     0.982271
      py      :     0.976349
      dz2     :     0.038075  d :     0.383419
      dxz     :     0.050042
      dyz     :     0.020220
      dx2y2   :     0.167437
      dxy     :     0.107645
      f0      :     0.009099  f :     0.130471
      f+1     :     0.013496
      f-1     :     0.010369
      f+2     :     0.005937
      f-2     :     0.015338
      f+3     :     0.049602
      f-3     :     0.026632

  7 H s       :     0.566135  s :     0.566135
      pz      :     0.100867  p :     0.365387
      px      :     0.085207
      py      :     0.179313
      dz2     :     0.029056  d :     0.268538
      dxz     :     0.002000
      dyz     :     0.082601
      dx2y2   :     0.060882
      dxy     :     0.093999

  8 H s       :     0.564514  s :     0.564514
      pz      :     0.103562  p :     0.370479
      px      :     0.157204
      py      :     0.109713
      dz2     :     0.029527  d :     0.271336
      dxz     :     0.071127
      dyz     :     0.014143
      dx2y2   :     0.079509
      dxy     :     0.077029

  9 H s       :     0.644512  s :     0.644512
      pz      :     0.077159  p :     0.289620
      px      :     0.072359
      py      :     0.140101
      dz2     :     0.023038  d :     0.215504
      dxz     :     0.003961
      dyz     :     0.062175
      dx2y2   :     0.049291
      dxy     :     0.077040

 10 O s       :     2.965954  s :     2.965954
      pz      :     1.324874  p :     3.812463
      px      :     1.153601
      py      :     1.333988
      dz2     :     0.041885  d :     0.469199
      dxz     :     0.104283
      dyz     :     0.033446
      dx2y2   :     0.148610
      dxy     :     0.140975
      f0      :     0.012938  f :     0.130541
      f+1     :     0.011871
      f-1     :     0.004409
      f+2     :     0.006029
      f-2     :     0.023847
      f+3     :     0.051069
      f-3     :     0.020379

 11 C s       :     2.463951  s :     2.463951
      pz      :     0.811948  p :     2.209048
      px      :     0.629192
      py      :     0.767907
      dz2     :     0.099668  d :     0.640820
      dxz     :     0.088823
      dyz     :     0.134827
      dx2y2   :     0.105488
      dxy     :     0.212013
      f0      :     0.034444  f :     0.303324
      f+1     :     0.032183
      f-1     :     0.028211
      f+2     :     0.033699
      f-2     :     0.033790
      f+3     :     0.088296
      f-3     :     0.052701

 12 H s       :     0.649149  s :     0.649149
      pz      :     0.087290  p :     0.294016
      px      :     0.092977
      py      :     0.113750
      dz2     :     0.016292  d :     0.220258
      dxz     :     0.032354
      dyz     :     0.059421
      dx2y2   :     0.067340
      dxy     :     0.044851

 13 H s       :     0.638200  s :     0.638200
      pz      :     0.129683  p :     0.299066
      px      :     0.064787
      py      :     0.104595
      dz2     :     0.076008  d :     0.216635
      dxz     :     0.032152
      dyz     :     0.050428
      dx2y2   :     0.020014
      dxy     :     0.038033

 14 H s       :     0.638278  s :     0.638278
      pz      :     0.132261  p :     0.298975
      px      :     0.064493
      py      :     0.102221
      dz2     :     0.075619  d :     0.216560
      dxz     :     0.034677
      dyz     :     0.052464
      dx2y2   :     0.017657
      dxy     :     0.036142

 15 H s       :     0.635383  s :     0.635383
      pz      :     0.069297  p :     0.306911
      px      :     0.138789
      py      :     0.098824
      dz2     :     0.024254  d :     0.219732
      dxz     :     0.040348
      dyz     :     0.018317
      dx2y2   :     0.076926
      dxy     :     0.059886

 16 H s       :     0.653152  s :     0.653152
      pz      :     0.072924  p :     0.287041
      px      :     0.072514
      py      :     0.141602
      dz2     :     0.022521  d :     0.208527
      dxz     :     0.003215
      dyz     :     0.057711
      dx2y2   :     0.045356
      dxy     :     0.079725

 17 H s       :     0.646421  s :     0.646421
      pz      :     0.070326  p :     0.286179
      px      :     0.132396
      py      :     0.083457
      dz2     :     0.023007  d :     0.206964
      dxz     :     0.047902
      dyz     :     0.010515
      dx2y2   :     0.066598
      dxy     :     0.058942


SPIN
  0 C s       :     0.005883  s :     0.005883
      pz      :     0.172398  p :     0.180824
      px      :     0.004730
      py      :     0.003695
      dz2     :    -0.001472  d :    -0.010838
      dxz     :    -0.004303
      dyz     :    -0.002078
      dx2y2   :    -0.001277
      dxy     :    -0.001708
      f0      :    -0.002367  f :    -0.001775
      f+1     :    -0.000423
      f-1     :    -0.000364
      f+2     :     0.002961
      f-2     :    -0.000326
      f+3     :    -0.000545
      f-3     :    -0.000711

  1 C s       :    -0.003304  s :    -0.003304
      pz      :    -0.058999  p :    -0.069703
      px      :    -0.007587
      py      :    -0.003117
      dz2     :     0.000521  d :     0.079538
      dxz     :     0.071460
      dyz     :     0.003512
      dx2y2   :     0.001658
      dxy     :     0.002386
      f0      :     0.003904  f :     0.039861
      f+1     :    -0.000128
      f-1     :     0.000158
      f+2     :     0.003464
      f-2     :     0.030354
      f+3     :     0.000975
      f-3     :     0.001134

  2 C s       :     0.007399  s :     0.007399
      pz      :     0.212937  p :     0.224239
      px      :     0.005878
      py      :     0.005423
      dz2     :    -0.001737  d :    -0.010085
      dxz     :    -0.002194
      dyz     :    -0.003221
      dx2y2   :    -0.001322
      dxy     :    -0.001612
      f0      :    -0.002818  f :    -0.007179
      f+1     :    -0.000475
      f-1     :    -0.000414
      f+2     :    -0.000598
      f-2     :    -0.001627
      f+3     :    -0.000510
      f-3     :    -0.000737

  3 C s       :    -0.001384  s :    -0.001384
      pz      :    -0.007355  p :    -0.012942
      px      :    -0.000505
      py      :    -0.005083
      dz2     :     0.000086  d :     0.046384
      dxz     :    -0.000577
      dyz     :     0.044564
      dx2y2   :     0.001654
      dxy     :     0.000657
      f0      :     0.001490  f :     0.026079
      f+1     :     0.000033
      f-1     :    -0.000115
      f+2     :     0.024082
      f-2     :    -0.000853
      f+3     :     0.000617
      f-3     :     0.000824

  4 C s       :     0.000828  s :     0.000828
      pz      :     0.030060  p :     0.030853
      px      :     0.000048
      py      :     0.000745
      dz2     :    -0.000349  d :    -0.002266
      dxz     :    -0.001070
      dyz     :     0.000333
      dx2y2   :    -0.000925
      dxy     :    -0.000256
      f0      :    -0.000534  f :     0.007953
      f+1     :    -0.000108
      f-1     :    -0.000111
      f+2     :    -0.000667
      f-2     :     0.010163
      f+3     :    -0.000670
      f-3     :    -0.000120

  5 C s       :    -0.000720  s :    -0.000720
      pz      :     0.025023  p :     0.017740
      px      :    -0.002523
      py      :    -0.004761
      dz2     :    -0.000067  d :     0.052278
      dxz     :     0.016709
      dyz     :     0.032887
      dx2y2   :     0.001670
      dxy     :     0.001078
      f0      :     0.001914  f :     0.041476
      f+1     :     0.000007
      f-1     :    -0.000156
      f+2     :     0.016118
      f-2     :     0.021563
      f+3     :     0.000916
      f-3     :     0.001114

  6 N s       :     0.004846  s :     0.004846
      pz      :     0.183656  p :     0.191483
      px      :     0.004044
      py      :     0.003784
      dz2     :    -0.001038  d :     0.010858
      dxz     :     0.008544
      dyz     :     0.005597
      dx2y2   :    -0.001352
      dxy     :    -0.000893
      f0      :     0.001478  f :     0.002752
      f+1     :    -0.000267
      f-1     :    -0.000303
      f+2     :     0.000337
      f-2     :     0.002090
      f+3     :    -0.000324
      f-3     :    -0.000259

  7 H s       :    -0.004751  s :    -0.004751
      pz      :     0.017465  p :     0.019103
      px      :     0.000106
      py      :     0.001532
      dz2     :    -0.000034  d :     0.015194
      dxz     :     0.000420
      dyz     :     0.013898
      dx2y2   :     0.000685
      dxy     :     0.000224

  8 H s       :    -0.004631  s :    -0.004631
      pz      :     0.015409  p :     0.016972
      px      :     0.001242
      py      :     0.000321
      dz2     :    -0.000055  d :     0.014825
      dxz     :     0.008403
      dyz     :     0.005607
      dx2y2   :     0.000313
      dxy     :     0.000557

  9 H s       :    -0.001305  s :    -0.001305
      pz      :     0.003301  p :     0.003542
      px      :    -0.000064
      py      :     0.000306
      dz2     :    -0.000017  d :     0.002863
      dxz     :    -0.000050
      dyz     :     0.002837
      dx2y2   :     0.000089
      dxy     :     0.000004

 10 O s       :     0.000218  s :     0.000218
      pz      :     0.013584  p :     0.013711
      px      :     0.000407
      py      :    -0.000280
      dz2     :    -0.000008  d :    -0.000076
      dxz     :    -0.001944
      dyz     :     0.002637
      dx2y2   :    -0.000363
      dxy     :    -0.000398
      f0      :    -0.000215  f :    -0.000493
      f+1     :    -0.000014
      f-1     :    -0.000020
      f+2     :    -0.000343
      f-2     :     0.000383
      f+3     :    -0.000271
      f-3     :    -0.000013

 11 C s       :    -0.000092  s :    -0.000092
      pz      :     0.000052  p :    -0.000394
      px      :    -0.000269
      py      :    -0.000177
      dz2     :    -0.000081  d :     0.001708
      dxz     :     0.000067
      dyz     :     0.001808
      dx2y2   :     0.000010
      dxy     :    -0.000096
      f0      :    -0.000030  f :     0.000989
      f+1     :    -0.000012
      f-1     :    -0.000013
      f+2     :     0.000001
      f-2     :     0.001029
      f+3     :    -0.000018
      f-3     :     0.000031

 12 H s       :    -0.000056  s :    -0.000056
      pz      :    -0.000011  p :    -0.000047
      px      :    -0.000021
      py      :    -0.000015
      dz2     :    -0.000003  d :    -0.000033
      dxz     :     0.000051
      dyz     :    -0.000043
      dx2y2   :    -0.000023
      dxy     :    -0.000015

 13 H s       :     0.000048  s :     0.000048
      pz      :     0.000034  p :     0.000347
      px      :     0.000128
      py      :     0.000186
      dz2     :     0.000046  d :     0.000267
      dxz     :    -0.000018
      dyz     :    -0.000013
      dx2y2   :     0.000102
      dxy     :     0.000151

 14 H s       :     0.000054  s :     0.000054
      pz      :     0.000033  p :     0.000341
      px      :     0.000131
      py      :     0.000177
      dz2     :     0.000041  d :     0.000258
      dxz     :    -0.000017
      dyz     :    -0.000013
      dx2y2   :     0.000100
      dxy     :     0.000148

 15 H s       :    -0.006365  s :    -0.006365
      pz      :     0.027776  p :     0.030819
      px      :     0.001866
      py      :     0.001177
      dz2     :     0.000010  d :     0.023283
      dxz     :     0.014111
      dyz     :     0.007583
      dx2y2   :     0.000635
      dxy     :     0.000944

 16 H s       :     0.001699  s :     0.001699
      pz      :    -0.007794  p :    -0.009166
      px      :    -0.000600
      py      :    -0.000772
      dz2     :    -0.000019  d :    -0.003864
      dxz     :     0.002592
      dyz     :    -0.005491
      dx2y2   :    -0.000381
      dxy     :    -0.000565

 17 H s       :    -0.005490  s :    -0.005490
      pz      :     0.019511  p :     0.021758
      px      :     0.001646
      py      :     0.000601
      dz2     :    -0.000036  d :     0.017685
      dxz     :     0.013256
      dyz     :     0.003331
      dx2y2   :     0.000526
      dxy     :     0.000608



                      *****************************
                      * MAYER POPULATION ANALYSIS *
                      *****************************

  NA   - Mulliken gross atomic population
  ZA   - Total nuclear charge
  QA   - Mulliken gross atomic charge
  VA   - Mayer's total valence
  BVA  - Mayer's bonded valence
  FA   - Mayer's free valence

  ATOM       NA         ZA         QA         VA         BVA        FA
  0 C      6.3146     6.0000    -0.3146     3.2233     3.1237     0.0996
  1 C      6.3040     6.0000    -0.3040     3.0313     3.0131     0.0182
  2 C      6.2611     6.0000    -0.2611     3.2461     3.0941     0.1519
  3 C      5.1701     6.0000     0.8299     2.0920     2.0906     0.0014
  4 C      6.5601     6.0000    -0.5601     2.8690     2.8651     0.0040
  5 C      5.1636     6.0000     0.8364     2.1746     2.1636     0.0110
  6 N      7.3060     7.0000    -0.3060     3.0792     2.9974     0.0818
  7 H      0.9694     1.0000     0.0306     1.1177     1.1175     0.0002
  8 H      0.9651     1.0000     0.0349     1.1101     1.1100     0.0002
  9 H      0.7213     1.0000     0.2787     0.7337     0.7337     0.0000
 10 O      8.6681     8.0000    -0.6681     1.4983     1.4980     0.0003
 11 C      6.2395     6.0000    -0.2395     3.9416     3.9415     0.0000
 12 H      0.9541     1.0000     0.0459     1.0452     1.0452     0.0000
 13 H      0.7978     1.0000     0.2022     0.9682     0.9682     0.0000
 14 H      0.7981     1.0000     0.2019     0.9681     0.9681     0.0000
 15 H      0.6189     1.0000     0.3811     0.6875     0.6874     0.0001
 16 H      0.5522     1.0000     0.4478     0.7358     0.7358     0.0000
 17 H      0.6359     1.0000     0.3641     0.7680     0.7678     0.0001

  Mayer bond orders larger than 0.100000
B(  0-C ,  1-C ) :   1.5431 B(  0-C ,  2-C ) :   0.1604 B(  0-C ,  4-C ) :   0.2862 
B(  0-C ,  5-C ) :   0.7918 B(  0-C ,  6-N ) :  -0.1523 B(  0-C , 17-H ) :   0.5225 
B(  1-C ,  2-C ) :   1.2458 B(  1-C ,  3-C ) :  -0.1581 B(  1-C ,  4-C ) :  -0.1360 
B(  1-C ,  5-C ) :  -0.1760 B(  1-C , 16-H ) :   0.5068 B(  2-C ,  3-C ) :   0.9328 
B(  2-C ,  4-C ) :   0.2984 B(  2-C , 15-H ) :   0.5886 B(  3-C ,  4-C ) :   0.8635 
B(  3-C ,  5-C ) :  -0.1998 B(  3-C ,  6-N ) :   0.1245 B(  3-C , 10-O ) :   0.1967 
B(  3-C , 11-C ) :   0.1504 B(  4-C ,  5-C ) :   0.7562 B(  4-C ,  6-N ) :  -0.1911 
B(  4-C ,  9-H ) :   0.5225 B(  4-C , 10-O ) :   0.3533 B(  5-C ,  6-N ) :   0.8812 
B(  5-C ,  9-H ) :   0.1184 B(  6-N ,  7-H ) :   1.1302 B(  6-N ,  8-H ) :   1.1153 
B( 10-O , 11-C ) :   0.9501 B( 11-C , 12-H ) :   1.0627 B( 11-C , 13-H ) :   0.9207 
B( 11-C , 14-H ) :   0.9211 

-------
TIMINGS
-------

Total SCF time: 0 days 0 hours 5 min 48 sec 

Total time                  ....     348.683 sec
Sum of individual times     ....     348.060 sec  ( 99.8%)

SCF preparation             ....       1.289 sec  (  0.4%)
Fock matrix formation       ....     332.815 sec  ( 95.4%)
  Startup                   ....       1.543 sec  (  0.5% of F)
  Split-RI-J                ....      12.967 sec  (  3.9% of F)
  Chain of spheres X        ....     176.215 sec  ( 52.9% of F)
  XC integration            ....     132.155 sec  ( 39.7% of F)
    XC Preparation          ....       0.000 sec  (  0.0% of XC)
    Basis function eval.    ....       7.039 sec  (  5.3% of XC)
    Density eval.           ....      41.183 sec  ( 31.2% of XC)
    XC-Functional eval.     ....       1.199 sec  (  0.9% of XC)
    XC-Potential eval.      ....      77.035 sec  ( 58.3% of XC)
  CPCM terms                ....       6.088 sec  (  1.8% of F)
Diagonalization             ....       0.000 sec  (  0.0%)
Density matrix formation    ....       3.029 sec  (  0.9%)
Total Energy calculation    ....       1.416 sec  (  0.4%)
Population analysis         ....       0.362 sec  (  0.1%)
Orbital Transformation      ....       1.028 sec  (  0.3%)
Orbital Orthonormalization  ....       0.000 sec  (  0.0%)
DIIS solution               ....       4.988 sec  (  1.4%)
SOSCF solution              ....       3.132 sec  (  0.9%)
Finished LeanSCF after 348.9 sec

Maximum memory used throughout the entire LEANSCF-calculation: 99.2 MB


-------------------------------------------------------------------------------
                          DFT DISPERSION CORRECTION                            
                                                                               
                              DFTD3 V3.1  Rev 1                                
                          USING Becke-Johnson damping                          
-------------------------------------------------------------------------------
The TPSSH functional is recognized
Active option DFTDOPT                   ...         4   

molecular C6(AA) [au] = 3277.921221 


            DFT-D V3
 parameters
 s6 scaling factor         :     1.0000 
 a1 scaling factor         :     0.4529 
 s8 scaling factor         :     2.2382 
 a2 scaling factor         :     4.6550 
 ad hoc parameters k1-k3   :    16.0000     1.3333    -4.0000 

 Edisp/kcal,au: -12.589309314634  -0.020062339283 
 E6   /kcal   :  -6.049408147 
 E8   /kcal   :  -6.539901168 
 % E8         :  51.948053738 

-------------------------   ----------------
Dispersion correction           -0.020062339
-------------------------   ----------------


-------------------------   --------------------
FINAL SINGLE POINT ENERGY      -402.144008499920
-------------------------   --------------------



           ************************************************************
           *        Program running with 4 parallel MPI-processes     *
           *              working on a common directory               *
           ************************************************************

------------------------------------------------------------------------------
                              ORCA PROPERTY CALCULATIONS
------------------------------------------------------------------------------

GBWName                                 ... cs_rporg_070_ox_solv_01.gbw
Number of atoms                         ...     18
Number of basis functions               ...    675
Max core memory                         ...   3000 MB

Electric properties:
Dipole moment                           ... YES
Quadrupole moment                       ...  NO
Static polarizability (Dipole/Dipole)   ...  NO
Static polarizability (Dipole/Quad.)    ...  NO
Static polarizability (Quad./Quad.)     ...  NO
Static polarizability (Velocity)        ...  NO

Atomic electric properties:
Dipole moment                           ...  NO
Quadrupole moment                       ...  NO
Static polarizability                   ...  NO

Choice of electric origin               ... Center of mass
Position of electric origin             ...    -0.006738     0.003241    -0.049694

General magnetic properties:
Magnetizability                         ...  NO

EPR properties:
g-Tensor (aka g-matrix)                 ...  NO
Zero-Field splitting spin-orbit         ...  NO
Zero-field splitting spin-spin          ...  NO
Hyperfine couplings                     ...  NO (   0 nuclei)
Quadrupole couplings                    ...  NO (   0 nuclei)
Contact density                         ...  NO (   0 nuclei)

NMR properties:
Chemical shifts                         ...  NO (   0 nuclei)
Spin-rotation constants                 ...  NO (   0 nuclei)
Spin-spin couplings                     ...  NO (   0 nuclei,    0 pairs)

Choice of magnetic origin               ... GIAO
Position of magnetic origin             ...     0.000000     0.000000     0.000000

Properties with geometric perturbations:
SCF Hessian                             ...  NO
IR spectrum                             ...  NO
VCD spectrum                            ...  NO
X-ray spectroscopy properties:
SCF XES/XAS/RIXS spectra                ...  NO


-------------
DIPOLE MOMENT
-------------

Method             : SCF
Type of density    : Electron Density
Multiplicity       :   2
Irrep              :   0
Energy             :  -402.1239461606371037 Eh
Relativity type    : 
Basis              : AO
                                X                 Y                 Z
Electronic contribution:      3.927213066      -1.209463353      -0.077360001
Nuclear contribution   :     -2.044978462       1.271551477       0.044658972
                        -----------------------------------------
Total Dipole Moment    :      1.882234605       0.062088125      -0.032701028
                        -----------------------------------------
Magnitude (a.u.)       :      1.883542248
Magnitude (Debye)      :      4.787583919



--------------------
Rotational spectrum 
--------------------
 
Rotational constants in cm-1:             0.119593             0.037937             0.028965 
Rotational constants in MHz :          3585.313936          1137.321017           868.358011 

Dipole components along the rotational axes: 
x,y,z [a.u.] :    -1.882706     0.056014    -0.003611 
x,y,z [Debye]:    -4.785458     0.142375    -0.009177 

 

Dipole moment calculation done in   0.1 sec 

Maximum memory used throughout the entire PROP-calculation: 56.2 MB

--------------------------------
SUGGESTED CITATIONS FOR THIS RUN
--------------------------------

Below you find a list of papers that are relevant to this ORCA run
We neither can nor want to force you to cite these papers, but we appreciate if you do
You receive ORCA, which is the product of decades of hard work by many enthusiastic individuals, for free
The only thing we kindly ask in return is that you cite our papers,
We deeply appreciate it, if you show your appreciation for ORCA by not just citing the generic ORCA reference.

Please note that relegating all ORCA citations to the supporting information does *not* help us.
SI sections are not indexed - citations you put there will not count into any citation statistics
But we need these citations in order to attract the funding resources that allow us to do what we are doing

Therefore, if you are a happy ORCA user, please consider citing a few of the papers listed below in the main body of your paper

In addition to the list printed below, the program has created the file cs_rporg_070_ox_solv_01.bibtex that contains the list in bibtex format
You can import this file easily into all common literature databanks and citation aid programs


List of essential papers. We consider these as the minimum necessary citations

  1. Neese,F.
     Software update: the ORCA program system, version 5.0
     WIRES Comput. Molec. Sci., 2022 12(1)e1606
     doi.org/10.1002/wcms.1606

List of papers to cite with high priority. The work reported in these papers was absolutely
necessary for this run to complete.
Our perspective: the developers of density functionals and basis sets usually get cited in chemistry papers
Good! But without the algorithms to do something with them, the functionals or basis sets would not do anything.
Hence, in our opinion, the algorithm design and method developments papers are equally worthy of getting cited

  1. Neese,F.
     An improvement of the resolution of the identity approximation for the formation of the Coulomb matrix
     J. Comp. Chem., 2003 24(14)1740-1747
     doi.org/10.1002/jcc.10318
  2. Neese,F.; Wennmohs,F.; Hansen,A.; Becker,U.
     Efficient, approximate and parallel Hartree-Fock and hybrid DFT calculations. A 'chain-of-spheres' algorithm for the Hartree-Fock exchange
     Chem. Phys., 2009 356(1-3)98-109
     doi.org/10.1016/j.chemphys.2008.10.036
  3. Garcia-Rates,M.; Neese,F.
     Effect of the Solute Cavity on the Solvation Energy and its Derivatives within the Framework of the Gaussian Charge Scheme
     J. Comput. Chem., 2020 41 922-939
     doi.org/10.1002/jcc.26139
  4. Helmich-Paris,B.; de Souza,B.; Neese,F.; Izsák,R.
     An improved chain of spheres for exchange algorithm
     J. Chem. Phys., 2021 155 104109
     doi.org/doi: 10.1063/5.0058766.
  5. Neese,F.
     The SHARK Integral Generation and Digestion System
     J. Comp. Chem., 2022  1-16
     doi.org/10.1002/jcc.26942
  6. Grimme,S.; Antony,J.; Ehrlich,S.; Krieg,H.
     A consistent and accurate ab initio parametrization of density functional dispersion correction (DFT-D) for the 94 elements H-Pu
     J. Chem. Phys., 2010 132 154104-XXXX
     doi.org/10.1063/1.3382344
  7. Grimme,S.; Ehrlich,S.; Goerigk,L.
     Effect of the damping function in dispersion corrected density functional theory
     J. Comput. Chem., 2011 32(7)1456-1465
     doi.org/10.1002/jcc.21759

List of suggested additional citations. These are papers that are important in the 'surrounding' of 
of this run, or papers that preceded the highly important papers. If you like your results we are grateful for a citation.

  1. Izsak,R.; Neese,F.
     An overlap fitted chain of spheres exchange method
     J. Chem. Phys., 2011 135 144105
     doi.org/10.1063/1.3646921
  2. Izsak,R.; Hansen,A.; Neese,F.
     The resolution of identity and chain of spheres approximations for the LPNO-CCSD singles Fock term
     Molec. Phys., 2012 110 2413-2417
     doi.org/10.1080/00268976.2012.687466
  3. Neese,F.
     The ORCA program system
     WIRES Comput. Molec. Sci., 2012 2(1)73-78
     doi.org/10.1002/wcms.81
  4. Izsak,R.; Neese,F.; Klopper,W.
     Robust fitting techniques in the chain of spheres approximation to the Fock exchange: The role of the complementary space
     J. Chem. Phys., 2013 139 
     doi.org/10.1063/1.4819264
  5. Neese,F.
     Software update: the ORCA program system, version 4.0
     WIRES Comput. Molec. Sci., 2018 8(1)1-6
     doi.org/10.1002/wcms.1327
  6. Neese,F.; Wennmohs,F.; Becker,U.; Riplinger,C.
     The ORCA quantum chemistry program package
     J. Chem. Phys., 2020 152 Art. No. L224108
     doi.org/10.1063/5.0004608

List of optional additional citations

  1. Neese,F.
     Approximate second-order SCF convergence for spin unrestricted wavefunctions
     Chem. Phys. Lett., 2000 325(1-3)93-98
     doi.org/10.1016/s0009-2614(00)00662-x

Timings for individual modules:

Sum of individual times          ...      365.218 sec (=   6.087 min)
Startup calculation              ...        9.175 sec (=   0.153 min)   2.5 %
SCF iterations                   ...      354.228 sec (=   5.904 min)  97.0 %
Property calculations            ...        1.814 sec (=   0.030 min)   0.5 %
                             ****ORCA TERMINATED NORMALLY****
TOTAL RUN TIME: 0 days 0 hours 6 minutes 7 seconds 860 msec
