
                                 *****************
                                 * O   R   C   A *
                                 *****************

                                            #,                                       
                                            ###                                      
                                            ####                                     
                                            #####                                    
                                            ######                                   
                                           ########,                                 
                                     ,,################,,,,,                         
                               ,,#################################,,                 
                          ,,##########################################,,             
                       ,#########################################, ''#####,          
                    ,#############################################,,   '####,        
                  ,##################################################,,,,####,       
                ,###########''''           ''''###############################       
              ,#####''   ,,,,##########,,,,          '''####'''          '####       
            ,##' ,,,,###########################,,,                        '##       
           ' ,,###''''                  '''############,,,                           
         ,,##''                                '''############,,,,        ,,,,,,###''
      ,#''                                            '''#######################'''  
     '                                                          ''''####''''         
             ,#######,   #######,   ,#######,      ##                                
            ,#'     '#,  ##    ##  ,#'     '#,    #''#        ,####,   ,####,        
            ##       ##  ##   ,#'  ##            #'  '#       #'       #'  '#        
            ##       ##  #######   ##           ,######,      #####,   #    #        
            '#,     ,#'  ##    ##  '#,     ,#' ,#      #,     #,   #   #,  ,#        
             '#######'   ##     ##  '#######'  #'      '#     '####' # '####'        



                #########################################################
                #                        -***-                          #
                #          Department of theory and spectroscopy        #
                #                                                       #
                #                      Frank Neese                      #
                #                                                       #
                #     Directorship, Architecture, Infrastructure        #
                #                    SHARK, DRIVERS                     #
                #        Core code/Algorithms in most modules           #
                #                                                       #
                #        Max Planck Institute fuer Kohlenforschung      #
                #                Kaiser Wilhelm Platz 1                 #
                #                 D-45470 Muelheim/Ruhr                 #
                #                      Germany                          #
                #                                                       #
                #                  All rights reserved                  #
                #                        -***-                          #
                #########################################################


                         Program Version 6.0.0  -   RELEASE  -


 With contributions from (in alphabetic order):
   Daniel Aravena         : Magnetic Suceptibility
   Michael Atanasov       : Ab Initio Ligand Field Theory (pilot matlab implementation)
   Alexander A. Auer      : GIAO ZORA, VPT2 properties, NMR spectrum
   Ute Becker             : All parallelization in ORCA, NUMFREQ, NUMCALC
   Giovanni Bistoni       : ED, misc. LED, open-shell LED, HFLD
   Martin Brehm           : Molecular dynamics
   Dmytro Bykov           : pre 5.0 version of the SCF Hessian
   Marcos Casanova-Páez   : Triplet and SCS-CIS(D). UHF-(DLPNO)-IP/EA/STEOM-CCSD. UHF-CVS-IP/STEOM-CCSD
   Vijay G. Chilkuri      : MRCI spin determinant printing, contributions to CSF-ICE
   Pauline Colinet        : FMM embedding
   Dipayan Datta          : RHF DLPNO-CCSD density
   Achintya Kumar Dutta   : EOM-CC, STEOM-CC
   Nicolas Foglia         : Exact transition moments, OPA infrastructure, MCD improvements
   Dmitry Ganyushin       : Spin-Orbit,Spin-Spin,Magnetic field MRCI
   Miquel Garcia          : C-PCM and meta-GGA Hessian, CCSD/C-PCM, Gaussian charge scheme
   Tiago L. C. Gouveia    : GS-ROHF, GS-ROCIS
   Yang Guo               : DLPNO-NEVPT2, F12-NEVPT2, CIM, IAO-localization
   Andreas Hansen         : Spin unrestricted coupled pair/coupled cluster methods
   Ingolf Harden          : AUTO-CI MPn and infrastructure 
   Benjamin Helmich-Paris : MC-RPA, TRAH-(SCF,CASSCF), AVAS, COSX integrals, SCF dyn. polar.
   Lee Huntington         : MR-EOM, pCC
   Robert Izsak           : Overlap fitted RIJCOSX, COSX-SCS-MP3, EOM
   Riya Kayal             : Wick's Theorem for AUTO-CI, AUTO-CI UHF-CCSDT
   Emily Kempfer          : AUTO-CI, RHF CISDT and CCSDT
   Christian Kollmar      : KDIIS, OOCD, Brueckner-CCSD(T), CCSD density, CASPT2, CASPT2-K, improved NEVPT2
   Axel Koslowski         : Symmetry handling
   Simone Kossmann        : Meta GGA functionals, TD-DFT gradient, OOMP2, (MP2 Hessian; deprecated post 5.0)
   Lucas Lang             : DCDCAS
   Marvin Lechner         : AUTO-CI (C++ implementation), FIC-MRCC
   Spencer Leger          : CASSCF response
   Dagmar Lenk            : GEPOL surface, SMD, ORCA-2-JSON
   Dimitrios Liakos       : Extrapolation schemes; Compound Job, initial MDCI parallelization
   Dimitrios Manganas     : Further ROCIS development; embedding schemes. LFT, Crystal Embedding
   Dimitrios Pantazis     : SARC Basis sets
   Anastasios Papadopoulos: AUTO-CI, single reference methods and gradients
   Taras Petrenko         : pre 6.0 DFT Hessian and TD-DFT gradient, (ASA, deprecated), ECA, 1-Electron XAS/XES, NRVS
   Peter Pinski           : DLPNO-MP2, DLPNO-MP2 Gradient
   Christoph Reimann      : Effective Core Potentials
   Marius Retegan         : Local ZFS, SOC
   Christoph Riplinger    : Optimizer, TS searches, QM/MM, DLPNO-CCSD(T), (RO)-DLPNO pert. Triples
   Michael Roemelt        : Original ROCIS implementation
   Masaaki Saitow         : Open-shell DLPNO-CCSD energy and density
   Barbara Sandhoefer     : DKH picture change effects
   Kantharuban Sivalingam : CASSCF convergence/infrastructure, NEVPT2 and variants, FIC-MRCI
   Bernardo de Souza      : ESD, SOC TD-DFT
   Georgi Stoychev        : AutoAux, RI-MP2 NMR, DLPNO-MP2 response, X2C
   Van Anh Tran           : RI-MP2 g-tensors
   Willem Van den Heuvel  : Paramagnetic NMR
   Zikuan Wang            : NOTCH, Electric field optimization 
   Frank Wennmohs         : Technical directorship and infrastructure
   Hang Xu                : AUTO-CI-Response properties 


 We gratefully acknowledge several colleagues who have allowed us to
 interface, adapt or use parts of their codes:
   Stefan Grimme, W. Hujo, H. Kruse, P. Pracht,  : VdW corrections, initial TS optimization,
                  C. Bannwarth, S. Ehlert,         DFT functionals, gCP, sTDA/sTD-DF
                  L. Wittmann, M. Mueller
   Ed Valeev, F. Pavosevic, A. Kumar             : LibInt (2-el integral package), F12 methods
   Garnet Chan, S. Sharma, J. Yang, R. Olivares  : DMRG
   Ulf Ekstrom                                   : XCFun DFT Library
   Mihaly Kallay                                 : mrcc  (arbitrary order and MRCC methods)
   Frank Weinhold                                : gennbo (NPA and NBO analysis)
   Simon Mueller                                 : openCOSMO-RS
   Christopher J. Cramer and Donald G. Truhlar   : smd solvation model
   Lars Goerigk                                  : TD-DFT with DH, B97 family of functionals
   V. Asgeirsson, H. Jonsson                     : NEB implementation
   FAccTs GmbH                                   : IRC, NEB, NEB-TS, DLPNO-Multilevel, CI-OPT
                                                   MM, QMMM, 2- and 3-layer-ONIOM, Crystal-QMMM,
                                                   LR-CPCM, SF, NACMEs, symmetry and pop. for TD-DFT,
                                                   nearIR, NL-DFT gradient (VV10), updates on ESD,
                                                   ML-optimized integration grids, MBIS, APM,
                                                   GOAT, DOCKER, SOLVATOR, interface openCOSMO-RS
   S Lehtola, MJT Oliveira, MAL Marques          : LibXC Library
   Liviu Ungur et al                             : ANISO software


 Your calculation uses the libint2 library for the computation of 2-el integrals
 For citations please refer to: http://libint.valeyev.net

 Your ORCA version has been built with support for libXC version: 6.2.2
 For citations please refer to: https://libxc.gitlab.io

 This ORCA versions uses:
   CBLAS   interface :  Fast vector & matrix operations
   LAPACKE interface :  Fast linear algebra routines
   SCALAPACK package :  Parallel linear algebra routines
   Shared memory     :  Shared parallel matrices
   BLAS/LAPACK       :  OpenBLAS 0.3.27  USE64BITINT DYNAMIC_ARCH NO_AFFINITY SkylakeX SINGLE_THREADED
        Core in use  :  SkylakeX
   Copyright (c) 2011-2014, The OpenBLAS Project


NOTE: MaxCore=3000 MB was set to SCF,MP2,MDCI,CIPSI,MRCI and CIS
      => If you want to overwrite this, your respective input block should be placed after the MaxCore statement
Your calculation utilizes the atom-pairwise dispersion correction
with the Becke-Johnson damping scheme (D3BJ)


Your calculation utilizes the SMD solvation module
Please cite in your paper:
A.V. Marenich, C.J. Cramer, D.G. Truhlar J. Phys. Chem. B, 113, (2009), 6378 

Warning: RI is on but no J-basis has been assigned. Assigning Def2/J (nothing to worry about!)
================================================================================

----- Orbital basis set information -----
Your calculation utilizes the basis: aug-cc-pVTZ 
    H, B-Ne : Obtained from the ccRepo (grant-hill.group.shef.ac.uk/ccrepo) Feb. 2017
              R. A. Kendall, T. H. Dunning, Jr., R. J. Harrison, J. Chem. Phys. 96, 6796 (1992)
         He : Obtained from the ccRepo (grant-hill.group.shef.ac.uk/ccrepo) Feb. 2017
              D. E. Woon, T. H. Dunning, Jr., J. Chem. Phys. 100, 2975 (1994)
  Li-Be, Na : Obtained from the ccRepo (grant-hill.group.shef.ac.uk/ccrepo) Feb. 2017
              B. P. Prascher, D. E. Woon, K. A. Peterson, T. H. Dunning, Jr., A. K. Wilson, Theor. Chem. Acc. 128, 69 (2011)
         Mg : Obtained from the Peterson Research Group Website (tyr0.chem.wsu.edu/~kipeters) Feb. 2017
              B. P. Prascher, D. E. Woon, K. A. Peterson, T. H. Dunning, Jr., A. K. Wilson, Theor. Chem. Acc. 128, 69 (2011)
      Al-Ar : Obtained from the ccRepo (grant-hill.group.shef.ac.uk/ccrepo) Feb. 2017
              D. E. Woon, T. H. Dunning, Jr., J. Chem. Phys. 98, 1358 (1993)
      Sc-Zn : Obtained from the ccRepo (grant-hill.group.shef.ac.uk/ccrepo) Feb. 2017
              N. B. Balabanov, K. A. Peterson, J. Chem. Phys. 123, 064107 (2005)
              N. B. Balabanov, K. A. Peterson, J. Chem. Phys. 125, 074110 (2006)
      Ga-Kr : Obtained from the ccRepo (grant-hill.group.shef.ac.uk/ccrepo) Feb. 2017
              A. K. Wilson, D. E. Woon, K. A. Peterson, T. H. Dunning, Jr., J. Chem. Phys. 110, 7667 (1999)
     Ag, Au : Obtained from the Peterson Research Group Website (tyr0.chem.wsu.edu/~kipeters) Feb. 2017
              K. A. Peterson, C. Puzzarini, Theor. Chem. Acc. 114, 283 (2005)

----- AuxJ basis set information -----
Your calculation utilizes the auxiliary basis: def2/J
   F. Weigend, Phys. Chem. Chem. Phys. 8, 1057 (2006).

================================================================================
                                        WARNINGS
                       Please study these warnings very carefully!
================================================================================


WARNING: your system is open-shell and RHF/RKS was chosen
  ===> : WILL SWITCH to UHF/UKS


================================================================================
                                       INPUT FILE
================================================================================
NAME = cs_rporg_061_ox_solv_01.inp
|  1> !TPSSh aug-cc-pVTZ d3 TightSCF SlowConv RIJCOSX defgrid2
|  2>  
|  3> %pal
|  4> nprocs 4
|  5> end
|  6>  
|  7> %scf
|  8> MaxIter 1500
|  9> end
| 10>  
| 11> %maxcore 3000
| 12>  
| 13> !CPCM
| 14> %cpcm smd true
| 15> SMDsolvent "MeCN"
| 16> surfacetype gepol_ses
| 17> rsolv 2.19
| 18> end 
| 19>  
| 20> * xyz 1 2
| 21> C           1.38821397253669     -0.85710928094571      0.60741622632202
| 22> C           2.66653568645174     -1.38554775804107      0.62328529651635
| 23> C           3.74096697508373     -0.66019599701418      0.08285810563013
| 24> C           3.54023898785237      0.62233127623213     -0.45460571699329
| 25> C           2.27463505486006      1.17691753163962     -0.46404721541233
| 26> C           1.19493732351435      0.42049377974261      0.03782457404784
| 27> O          -0.00001161826735      1.03053434324458     -0.00007618077340
| 28> C          -1.19494650110222      0.42046263969238     -0.03791233087995
| 29> C          -2.27466316694698      1.17692889833622      0.46385316504035
| 30> C          -3.54025869091077      0.62232307991007      0.45446120210222
| 31> C          -3.74095306617908     -0.66026678297616     -0.08285951221376
| 32> C          -2.66650374430337     -1.38566766681220     -0.62318898600472
| 33> C          -1.38818943489976     -0.85721178830951     -0.60735323061330
| 34> H          -0.55743963132106     -1.38478510741341     -1.08197323083020
| 35> H          -2.84302940822415     -2.36075586477487     -1.08456370453300
| 36> H          -4.74708768097790     -1.08795510804427     -0.10418715284565
| 37> H          -4.38474494788350      1.18417342168211      0.86161853827017
| 38> H          -2.07820409834794      2.17105532289927      0.87220985478457
| 39> H           2.07815534201669      2.17098917949467     -0.87253031915770
| 40> H           4.38471105702739      1.18414197451138     -0.86184555829131
| 41> H           4.74710919235526     -1.08786907382573      0.10421696325696
| 42> H           2.84307759651065     -2.36058562840449      1.08475174308550
| 43> H           0.55748160115515     -1.38464569082344      1.08211306949251
| 44> *
| 45> 
| 46>                          ****END OF INPUT****
================================================================================

                       ****************************
                       * Single Point Calculation *
                       ****************************

---------------------------------
CARTESIAN COORDINATES (ANGSTROEM)
---------------------------------
  C      1.388214   -0.857109    0.607416
  C      2.666536   -1.385548    0.623285
  C      3.740967   -0.660196    0.082858
  C      3.540239    0.622331   -0.454606
  C      2.274635    1.176918   -0.464047
  C      1.194937    0.420494    0.037825
  O     -0.000012    1.030534   -0.000076
  C     -1.194947    0.420463   -0.037912
  C     -2.274663    1.176929    0.463853
  C     -3.540259    0.622323    0.454461
  C     -3.740953   -0.660267   -0.082860
  C     -2.666504   -1.385668   -0.623189
  C     -1.388189   -0.857212   -0.607353
  H     -0.557440   -1.384785   -1.081973
  H     -2.843029   -2.360756   -1.084564
  H     -4.747088   -1.087955   -0.104187
  H     -4.384745    1.184173    0.861619
  H     -2.078204    2.171055    0.872210
  H      2.078155    2.170989   -0.872530
  H      4.384711    1.184142   -0.861846
  H      4.747109   -1.087869    0.104217
  H      2.843078   -2.360586    1.084752
  H      0.557482   -1.384646    1.082113

----------------------------
CARTESIAN COORDINATES (A.U.)
----------------------------
  NO LB      ZA    FRAG     MASS         X           Y           Z
   0 C     6.0000    0    12.011    2.623344   -1.619702    1.147850
   1 C     6.0000    0    12.011    5.039022   -2.618306    1.177839
   2 C     6.0000    0    12.011    7.069403   -1.247590    0.156579
   3 C     6.0000    0    12.011    6.690082    1.176036   -0.859080
   4 C     6.0000    0    12.011    4.298437    2.224052   -0.876922
   5 C     6.0000    0    12.011    2.258104    0.794618    0.071478
   6 O     8.0000    0    15.999   -0.000022    1.947428   -0.000144
   7 C     6.0000    0    12.011   -2.258122    0.794559   -0.071644
   8 C     6.0000    0    12.011   -4.298490    2.224073    0.876555
   9 C     6.0000    0    12.011   -6.690119    1.176020    0.858807
  10 C     6.0000    0    12.011   -7.069377   -1.247723   -0.156582
  11 C     6.0000    0    12.011   -5.038962   -2.618532   -1.177657
  12 C     6.0000    0    12.011   -2.623298   -1.619896   -1.147731
  13 H     1.0000    0     1.008   -1.053408   -2.616865   -2.044633
  14 H     1.0000    0     1.008   -5.372547   -4.461182   -2.049528
  15 H     1.0000    0     1.008   -8.970696   -2.055937   -0.196885
  16 H     1.0000    0     1.008   -8.285967    2.237763    1.628223
  17 H     1.0000    0     1.008   -3.927237    4.102700    1.648238
  18 H     1.0000    0     1.008    3.927144    4.102575   -1.648843
  19 H     1.0000    0     1.008    8.285903    2.237704   -1.628652
  20 H     1.0000    0     1.008    8.970736   -2.055775    0.196942
  21 H     1.0000    0     1.008    5.372638   -4.460860    2.049884
  22 H     1.0000    0     1.008    1.053488   -2.616601    2.044897

--------------------------------
INTERNAL COORDINATES (ANGSTROEM)
--------------------------------
 C      0   0   0     0.000000000000     0.00000000     0.00000000
 C      1   0   0     1.383331289218     0.00000000     0.00000000
 C      2   1   0     1.404492548882   120.34622817     0.00000000
 C      3   2   1     1.405003662667   120.61939432     1.39528068
 C      4   3   2     1.381813435955   119.98848672   359.49880985
 C      5   4   3     1.410602487082   118.90739121   358.25874848
 O      6   5   4     1.342195563172   115.31990623   179.70488116
 C      7   6   5     1.342195377710   125.93175222   155.15348555
 C      8   7   6     1.410601960819   115.31973274   155.15480735
 C      9   8   7     1.381813248264   118.90748691   179.70436357
 C     10   9   8     1.405001259315   119.98812553   358.25835791
 C     11  10   9     1.404494118107   120.61978738   359.49902681
 C     12  11  10     1.383330712555   120.34607027     1.39569088
 H     13  12  11     1.092585460173   120.87677845   183.95891777
 H     12  11  10     1.093080479528   119.97172414   183.13103656
 H     11  10   9     1.093471094611   119.73207243   181.07374624
 H     10   9   8     1.092982132132   119.92117930   178.50678549
 H      9   8   7     1.092537733769   118.89993407   358.04094523
 H      5   4   3     1.092538861860   122.17064592   179.97977763
 H      4   3   2     1.092981529880   120.08980408   179.25061858
 H      3   2   1     1.093472735282   119.62965839   179.82234812
 H      2   1   3     1.093076930485   119.65948547   178.27075217
 H      1   2   3     1.092587767424   120.87649398   183.95900657

---------------------------
INTERNAL COORDINATES (A.U.)
---------------------------
 C      0   0   0     0.000000000000     0.00000000     0.00000000
 C      1   0   0     2.614117289107     0.00000000     0.00000000
 C      2   1   0     2.654106274520   120.34622817     0.00000000
 C      3   2   1     2.655072139597   120.61939432     1.39528068
 C      4   3   2     2.611248962127   119.98848672   359.49880985
 C      5   4   3     2.665652384414   118.90739121   358.25874848
 O      6   5   4     2.536382032560   115.31990623   179.70488116
 C      7   6   5     2.536381682087   125.93175222   155.15348555
 C      8   7   6     2.665651389920   115.31973274   155.15480735
 C      9   8   7     2.611248607443   118.90748691   179.70436357
 C     10   9   8     2.655067597919   119.98812553   358.25835791
 C     11  10   9     2.654109239925   120.61978738   359.49902681
 C     12  11  10     2.614116199372   120.34607027     1.39569088
 H     13  12  11     2.064687297632   120.87677845   183.95891777
 H     12  11  10     2.065622748644   119.97172414   183.13103656
 H     11  10   9     2.066360904175   119.73207243   181.07374624
 H     10   9   8     2.065436898999   119.92117930   178.50678549
 H      9   8   7     2.064597107798   118.89993407   358.04094523
 H      5   4   3     2.064599239581   122.17064592   179.97977763
 H      4   3   2     2.065435760907   120.08980408   179.25061858
 H      3   2   1     2.066364004592   119.62965839   179.82234812
 H      2   1   3     2.065616041925   119.65948547   178.27075217
 H      1   2   3     2.064691657703   120.87649398   183.95900657

---------------------
BASIS SET INFORMATION
---------------------
There are 3 groups of distinct atoms

 Group   1 Type C   : 19s6p3d2f contracted to 5s4p3d2f pattern {88111/3111/111/11}
 Group   2 Type O   : 19s6p3d2f contracted to 5s4p3d2f pattern {88111/3111/111/11}
 Group   3 Type H   : 6s3p2d contracted to 4s3p2d pattern {3111/111/11}

Atom   0C    basis set group =>   1
Atom   1C    basis set group =>   1
Atom   2C    basis set group =>   1
Atom   3C    basis set group =>   1
Atom   4C    basis set group =>   1
Atom   5C    basis set group =>   1
Atom   6O    basis set group =>   2
Atom   7C    basis set group =>   1
Atom   8C    basis set group =>   1
Atom   9C    basis set group =>   1
Atom  10C    basis set group =>   1
Atom  11C    basis set group =>   1
Atom  12C    basis set group =>   1
Atom  13H    basis set group =>   3
Atom  14H    basis set group =>   3
Atom  15H    basis set group =>   3
Atom  16H    basis set group =>   3
Atom  17H    basis set group =>   3
Atom  18H    basis set group =>   3
Atom  19H    basis set group =>   3
Atom  20H    basis set group =>   3
Atom  21H    basis set group =>   3
Atom  22H    basis set group =>   3
---------------------------------
AUXILIARY/J BASIS SET INFORMATION
---------------------------------
There are 3 groups of distinct atoms

 Group   1 Type C   : 12s5p4d2f1g contracted to 6s4p3d1f1g pattern {711111/2111/211/2/1}
 Group   2 Type O   : 12s5p4d2f1g contracted to 6s4p3d1f1g pattern {711111/2111/211/2/1}
 Group   3 Type H   : 5s2p1d contracted to 3s1p1d pattern {311/2/1}

Atom   0C    basis set group =>   1
Atom   1C    basis set group =>   1
Atom   2C    basis set group =>   1
Atom   3C    basis set group =>   1
Atom   4C    basis set group =>   1
Atom   5C    basis set group =>   1
Atom   6O    basis set group =>   2
Atom   7C    basis set group =>   1
Atom   8C    basis set group =>   1
Atom   9C    basis set group =>   1
Atom  10C    basis set group =>   1
Atom  11C    basis set group =>   1
Atom  12C    basis set group =>   1
Atom  13H    basis set group =>   3
Atom  14H    basis set group =>   3
Atom  15H    basis set group =>   3
Atom  16H    basis set group =>   3
Atom  17H    basis set group =>   3
Atom  18H    basis set group =>   3
Atom  19H    basis set group =>   3
Atom  20H    basis set group =>   3
Atom  21H    basis set group =>   3
Atom  22H    basis set group =>   3


           ************************************************************
           *        Program running with 4 parallel MPI-processes     *
           *              working on a common directory               *
           ************************************************************
------------------------------------------------------------------------------
                             ORCA STARTUP CALCULATIONS
                           -- RI-GTO INTEGRALS CHOSEN --
------------------------------------------------------------------------------
------------------------------------------------------------------------------
                   ___                                                        
                  /   \      - P O W E R E D   B Y -                         
                 /     \                                                     
                 |  |  |   _    _      __       _____    __    __             
                 |  |  |  | |  | |    /  \     |  _  \  |  |  /  |          
                  \  \/   | |  | |   /    \    | | | |  |  | /  /          
                 / \  \   | |__| |  /  /\  \   | |_| |  |  |/  /          
                |  |  |   |  __  | /  /__\  \  |    /   |      \           
                |  |  |   | |  | | |   __   |  |    \   |  |\   \          
                \     /   | |  | | |  |  |  |  | |\  \  |  | \   \       
                 \___/    |_|  |_| |__|  |__|  |_| \__\ |__|  \__/        
                                                                              
                      - O R C A' S   B I G   F R I E N D -                    
                                      &                                       
                       - I N T E G R A L  F E E D E R -                       
                                                                              
 v1 FN, 2020, v2 2021, v3 2022-2024                                           
------------------------------------------------------------------------------


----------------------
SHARK INTEGRAL PACKAGE
----------------------

Number of atoms                             ...     23
Number of basis functions                   ...    906
Number of shells                            ...    350
Maximum angular momentum                    ...      3
Integral batch strategy                     ... SHARK/LIBINT Hybrid
RI-J (if used) integral strategy            ... SPLIT-RIJ (Revised 2003 algorithm where possible)
Printlevel                                  ...      1
Contraction scheme used                     ... PARTIAL GENERAL contraction
Prescreening option                         ... SCHWARTZ
   Thresh                                   ... 2.500e-11
   Tcut                                     ... 2.500e-12
   Tpresel                                  ... 2.500e-12 
Coulomb Range Separation                    ... NOT USED
Exchange Range Separation                   ... NOT USED
Multipole approximations                    ... NOT USED
Finite Nucleus Model                        ... NOT USED
CABS basis                                  ... NOT available
Auxiliary Coulomb fitting basis             ... AVAILABLE
   # of basis functions in Aux-J            ...    747
   # of shells in Aux-J                     ...    245
   Maximum angular momentum in Aux-J        ...      4
Auxiliary J/K fitting basis                 ... NOT available
Auxiliary Correlation fitting basis         ... NOT available
Auxiliary 'external' fitting basis          ... NOT available

Checking pre-screening integrals            ... done (  0.0 sec) Dimension = 350
Save PGC pre-screening integrals            ... done (  0.0 sec) Dimension = 350
Calculate PGC overlap integrals             ... done (  0.2 sec) Dimension = 272
Calculating pre-screening integrals (ORCA)  ... done (  0.3 sec) Dimension = 272
Check shell pair data                       ... done (  0.0 sec)
Shell pair information
Shell pair cut-off parameter TPreSel        ...   2.5e-12
Total number of shell pairs                 ...     61425
Shell pairs after pre-screening             ...     47594
Total number of primitive shell pairs       ...     78675
Primitive shell pairs kept                  ...     56243
          la=0 lb=0:  10700 shell pairs
          la=1 lb=0:  12170 shell pairs
          la=1 lb=1:   3063 shell pairs
          la=2 lb=0:   8379 shell pairs
          la=2 lb=1:   4274 shell pairs
          la=2 lb=2:   1538 shell pairs
          la=3 lb=0:   3836 shell pairs
          la=3 lb=1:   1928 shell pairs
          la=3 lb=2:   1382 shell pairs
          la=3 lb=3:    324 shell pairs

Calculating one electron integrals          ... done (  0.1 sec)
Calculating RI/J V-Matrix + Cholesky decomp.... done (  0.1 sec)
Calculating Nuclear repulsion               ... done (  0.0 sec) ENN=    701.552255095418 Eh

Diagonalization of the overlap matrix:
Smallest eigenvalue                        ... 5.228e-07
Time for diagonalization                   ...    0.131 sec
Threshold for overlap eigenvalues          ... 1.000e-07
Number of eigenvalues below threshold      ... 0

IMPORTANT:
Smallest eigenvalue of S below the DiffSThresh (1.000e-06) while
Thresh>1e-12 and/or TCut>1e-13! In order to avoid SCF convergence issues,
Thresh will be set to at least 1e-12 and TCut to at least 1e-13.
This can be turned off by adding %SCF DiffSThresh -1 END to the input.

Time for construction of square roots      ...    0.080 sec
Total time needed                          ...    0.258 sec

-------------------
DFT GRID GENERATION
-------------------

General Integration Accuracy     IntAcc      ... 4.388
Radial Grid Type                 RadialGrid  ... OptM3 with GC (2021)
Angular Grid (max. ang.)         AngularGrid ... 4 (Lebedev-302)
Angular grid pruning method      GridPruning ... 4 (adaptive)
Weight generation scheme         WeightScheme... mBecke (2022)
Basis function cutoff            BFCut       ... 1.0000e-11
Integration weight cutoff        WCut        ... 1.0000e-14
Partially contracted basis set               ... off
Rotationally invariant grid construction     ... off
Angular grids for H and He will be reduced by one unit
Diffuse basis detected: some atoms will have their outermost
                        angular grid increased by 1.

Total number of grid points                  ...   115386
Total number of batches                      ...     1817
Average number of points per batch           ...       63
Average number of grid points per atom       ...     5017

---------------------
SHARK GRID GENERATION
---------------------

General Integration Accuracy     IntAcc      ... 4.388
Radial Grid Type                 RadialGrid  ... OptM3 with GC (2021)
Angular Grid (max. ang.)         AngularGrid ... 4 (Lebedev-302)
Angular grid pruning method      GridPruning ... 4 (adaptive)
Weight generation scheme         WeightScheme... mBecke (2022)
Basis function cutoff            BFCut       ... 1.0000e-11
Integration weight cutoff        WCut        ... 1.0000e-14
Partially contracted basis set               ... off
Rotationally invariant grid construction     ... off
Angular grids for H and He will be reduced by one unit
Diffuse basis detected: some atoms will have their outermost
                        angular grid increased by 1.
Steep s-basis detected: some atoms will have their radial
                        grid points doubled.

Total number of grid points                  ...   197198
Total number of batches                      ...     3094
Average number of points per batch           ...       63
Average number of grid points per atom       ...     8574

--------------------
COSX GRID GENERATION
--------------------

GRIDX 1
-------
General Integration Accuracy     IntAcc      ... 3.816
Radial Grid Type                 RadialGrid  ... OptM3 with GC (2021)
Angular Grid (max. ang.)         AngularGrid ... 1 (Lebedev-50)
Angular grid pruning method      GridPruning ... 4 (adaptive)
Weight generation scheme         WeightScheme... mBecke (2022)
Basis function cutoff            BFCut       ... 1.0000e-11
Integration weight cutoff        WCut        ... 1.0000e-14
Partially contracted basis set               ... on
Rotationally invariant grid construction     ... off
Angular grids for H and He will be reduced by one unit
Diffuse basis detected: some atoms will have their outermost
                        angular grid increased by 1.

Total number of grid points                  ...    14518
Total number of batches                      ...      121
Average number of points per batch           ...      119
Average number of grid points per atom       ...      631
UseSFitting                                  ... on

GRIDX 2
-------
General Integration Accuracy     IntAcc      ... 4.020
Radial Grid Type                 RadialGrid  ... OptM3 with GC (2021)
Angular Grid (max. ang.)         AngularGrid ... 2 (Lebedev-110)
Angular grid pruning method      GridPruning ... 4 (adaptive)
Weight generation scheme         WeightScheme... mBecke (2022)
Basis function cutoff            BFCut       ... 1.0000e-11
Integration weight cutoff        WCut        ... 1.0000e-14
Partially contracted basis set               ... on
Rotationally invariant grid construction     ... off
Angular grids for H and He will be reduced by one unit
Diffuse basis detected: some atoms will have their outermost
                        angular grid increased by 1.

Total number of grid points                  ...    35285
Total number of batches                      ...      283
Average number of points per batch           ...      124
Average number of grid points per atom       ...     1534
UseSFitting                                  ... on

GRIDX 3
-------
General Integration Accuracy     IntAcc      ... 4.338
Radial Grid Type                 RadialGrid  ... OptM3 with GC (2021)
Angular Grid (max. ang.)         AngularGrid ... 3 (Lebedev-194)
Angular grid pruning method      GridPruning ... 4 (adaptive)
Weight generation scheme         WeightScheme... mBecke (2022)
Basis function cutoff            BFCut       ... 1.0000e-11
Integration weight cutoff        WCut        ... 1.0000e-14
Partially contracted basis set               ... on
Rotationally invariant grid construction     ... off
Angular grids for H and He will be reduced by one unit
Diffuse basis detected: some atoms will have their outermost
                        angular grid increased by 1.

Total number of grid points                  ...    78041
Total number of batches                      ...      621
Average number of points per batch           ...      125
Average number of grid points per atom       ...     3393
UseSFitting                                  ... on
Initializing property integral containers    ... done (  0.0 sec)

SHARK setup successfully completed in  10.2 seconds

Maximum memory used throughout the entire STARTUP-calculation: 110.9 MB


           ************************************************************
           *        Program running with 4 parallel MPI-processes     *
           *              working on a common directory               *
           ************************************************************
-------------------------------------------------------------------------------
                                 ORCA GUESS
                   Start orbitals & Density for SCF / CASSCF
-------------------------------------------------------------------------------

------------
SCF SETTINGS
------------
Hamiltonian:
 Density Functional     Method          .... DFT(GTOs)
 Exchange Functional    Exchange        .... TPSS
 Correlation Functional Correlation     .... TPSS
 LDA part of GGA corr.  LDAOpt          .... PW91-LDA
 Gradients option       PostSCFGGA      .... off
 Hybrid DFT is turned on
   Fraction HF Exchange ScalHFX         ....  0.100000
   Scaling of DF-GGA-X  ScalDFX         ....  0.900000
   Scaling of DF-GGA-C  ScalDFC         ....  1.000000
   Scaling of DF-LDA-C  ScalLDAC        ....  1.000000
   Perturbative correction              ....  0.000000
   NL short-range parameter             ....  5.200000
 RI-approximation to the Coulomb term is turned on
   Number of AuxJ basis functions       .... 747
   RIJ-COSX (HFX calculated with COS-X)).... on


General Settings:
 Integral files         IntName         .... cs_rporg_061_ox_solv_01
 Hartree-Fock type      HFTyp           .... UHF
 Total Charge           Charge          ....    1
 Multiplicity           Mult            ....    2
 Number of Electrons    NEL             ....   89
 Basis Dimension        Dim             ....  828
 Nuclear Repulsion      ENuc            ....    701.5522550954 Eh

Convergence Acceleration:
 AO-DIIS                CNVDIIS         .... on
   Start iteration      DIISMaxIt       ....     0
   Startup error        DIISStart       ....  0.200000
   # of expansion vecs  DIISMaxEq       ....     5
   Bias factor          DIISBfac        ....   1.050
   Max. coefficient     DIISMaxC        ....  10.000
 MO-DIIS                CNVKDIIS        .... off
 Trust-Rad. Augm. Hess. CNVTRAH         .... auto
   Auto Start mean grad. ratio tolernc. ....  1.125000
   Auto Start start iteration           ....    50
   Auto Start num. interpolation iter.  ....    10
   Max. Number of Micro iterations      ....    24
   Max. Number of Macro iterations      .... Maxiter - #DIIS iter
   Number of Davidson start vectors     ....     2
   Converg. threshold    (grad. norm)   ....   1.000e-05
   Grad. Scal. Fac. for Micro threshold ....   0.100
   Minimum threshold for Micro iter.    ....   1.000e-02
   NR start threshold (gradient norm)   ....   1.000e-04
   Initial trust radius                 ....   0.400
   Minimum AH scaling param. (alpha)    ....   1.000
   Maximum AH scaling param. (alpha)    .... 1000.000
   Quad. conv. algorithm                .... NR
   White noise on init. David. guess    .... on
   Maximum white noise                  ....   0.010
   Pseudo random numbers                .... off
   Inactive MOs                         .... canonical
   Orbital update algorithm             .... Taylor
   Preconditioner                       .... Diag
   Full preconditioner red. dimension   ....   250
 SOSCF                  CNVSOSCF        .... on
   Start iteration      SOSCFMaxIt      ....   150
   Startup grad/error   SOSCFStart      ....  0.001000
   Hessian update       SOSCFHessUp     .... L-BFGS
 Level Shifting         CNVShift        .... on
   Level shift para.    LevelShift      ....    0.2500
   Turn off err/grad.   ShiftErr        ....    0.0000
 Zerner damping         CNVZerner       .... off
 Static damping         CNVDamp         .... on
   Fraction old density DampFac         ....    0.8500
   Max. Damping (<1)    DampMax         ....    0.9800
   Min. Damping (>=0)   DampMin         ....    0.0000
   Turn off err/grad.   DampErr         ....    0.0300

SCF Procedure:
 Maximum # iterations   MaxIter         ....  1500
 SCF integral mode      SCFMode         .... Direct
   Integral package                     .... SHARK and LIBINT hybrid scheme
 Reset frequency        DirectResetFreq ....    20
 Integral Threshold     Thresh          ....  1.000e-12 Eh
 Primitive CutOff       TCut            ....  1.000e-13 Eh

Convergence Tolerance:
 Convergence Check Mode ConvCheckMode   .... Total+1el-Energy
 Convergence forced     ConvForced      .... 0
 Energy Change          TolE            ....  1.000e-08 Eh
 1-El. energy change                    ....  1.000e-05 Eh
 Orbital Gradient       TolG            ....  1.000e-05
 Orbital Rotation angle TolX            ....  1.000e-05
 DIIS Error             TolErr          ....  5.000e-07

------------------------------
INITIAL GUESS: MODEL POTENTIAL
------------------------------
Loading Hartree-Fock densities                     ... done
Calculating cut-offs                               ... done
Initializing the effective Hamiltonian             ... done
Setting up the integral package (SHARK)            ... done
Starting the Coulomb interaction                   ... done (   0.8 sec)
Making the grid                                    ... done (   0.5 sec)
Mapping shells                                     ... done
Starting the XC term evaluation                    ... done (   1.2 sec)
  promolecular density results
     # of electrons  =     89.988288129
     EX              =    -72.465659138
     EC              =     -2.990820364
     EX+EC           =    -75.456479502
Transforming the Hamiltonian                       ... done (   0.1 sec)
Diagonalizing the Hamiltonian                      ... done (   0.1 sec)
Back transforming the eigenvectors                 ... done (   0.1 sec)
Now organizing SCF variables                       ... done
                      ------------------
                      INITIAL GUESS DONE (   3.1 sec)
                      ------------------
             **** ENERGY FILE WAS UPDATED (cs_rporg_061_ox_solv_01.en.tmp) ****
Finished Guess after   4.2 sec
Maximum memory used throughout the entire GUESS-calculation: 85.5 MB


           ************************************************************
           *        Program running with 4 parallel MPI-processes     *
           *              working on a common directory               *
           ************************************************************

-------------------------------------------------------------------------------------------
                                      ORCA LEAN-SCF
                              memory conserving SCF solver
-------------------------------------------------------------------------------------------

--------------------
CPCM SOLVATION MODEL
--------------------
CPCM parameters:
  Epsilon                                         ...      35.6880
  Refrac                                          ...       1.3442
  Rsolv                                           ...       2.1900
  Surface type                                    ...    GEPOL SES
  Discretization scheme                           ... Constant num. charges
  Epsilon function type                           ...         CPCM
Solvent:                                          ... ACETONITRILE
SMD-CDS solvent descriptors:
  Soln                                            ...       1.3442
  Soln25                                          ...       1.3416
  Sola                                            ...       0.0700
  Solb                                            ...       0.3200
  Solg                                            ...      41.2500
  Solc                                            ...       0.0000
  Solh                                            ...       0.0000
Radii:
  Scheme                                          ... Element-dependent radii
  Radius for C  used is    3.4960 Bohr (=   1.8500 Ang.)
  Radius for O  used is    4.0969 Bohr (=   2.1680 Ang.)
  Radius for H  used is    2.2677 Bohr (=   1.2000 Ang.)
Calculating surface                               ...        done! (  0.1s)
Cavity surface points                             ...          763
Cavity Volume                                     ...    1310.0184
Cavity Surface-area                               ...     722.5164
Calculating surface distance matrix               ...        done! (  0.0s)
Performing Cholesky decomposition & store         ...        done! (  0.0s)
Overall time for CPCM initialization              ...                 0.1s

----------------------------------------D-I-I-S--------------------------------------------
Iteration    Energy (Eh)           Delta-E    RMSDP     MaxDP     DIISErr   Damp  Time(sec)
-------------------------------------------------------------------------------------------
               ***  Starting incremental Fock matrix formation  ***
    1    -538.3352573576033819     0.00e+00  5.43e-04  4.93e-02  5.30e-02  0.850  52.1
Warning: op=1 Small HOMO/LUMO gap (   0.033) - skipping pre-diagonalization
         Will do a full diagonalization
    2    -538.3854400768422011    -5.02e-02  4.99e-04  3.81e-02  4.09e-02  0.850  32.6
                               ***Turning on AO-DIIS***
    3    -538.4189860527754945    -3.35e-02  4.33e-04  3.76e-02  3.01e-02  0.850  31.0
    4    -538.4406906617626873    -2.17e-02  3.92e-04  3.62e-02  2.43e-02  0.850  29.8
    5    -538.4563321737422257    -1.56e-02  2.33e-03  2.21e-01  1.92e-02  0.000  29.1
    6    -538.5302496392795319    -7.39e-02  1.55e-04  1.53e-02  6.77e-03  0.000  31.5
    7    -538.5306712860016205    -4.22e-04  4.90e-05  4.94e-03  4.58e-03  0.000  28.4
                              *** Initializing SOSCF ***
---------------------------------------S-O-S-C-F--------------------------------------
Iteration    Energy (Eh)           Delta-E    RMSDP     MaxDP     MaxGrad    Time(sec)
--------------------------------------------------------------------------------------
    8    -538.5308783590586472    -2.07e-04  1.89e-05  2.17e-03  8.96e-04    27.6
               *** Restarting incremental Fock matrix formation ***
    9    -538.5309152108426360    -3.69e-05  2.01e-04  1.57e-02  5.91e-04    49.5
   10    -538.5309301645617097    -1.50e-05  1.68e-04  1.39e-02  7.30e-04    39.7
   11    -538.5309543470092422    -2.42e-05  1.24e-04  9.56e-03  1.79e-04    39.4
   12    -538.5309567217799440    -2.37e-06  7.93e-05  6.26e-03  2.04e-04    36.8
   13    -538.5309577203125855    -9.99e-07  4.12e-05  3.18e-03  1.01e-04    35.5
   14    -538.5309579663177146    -2.46e-07  1.56e-05  1.24e-03  2.92e-05    33.9
   15    -538.5309579737278227    -7.41e-09  9.74e-06  7.25e-04  2.31e-05    32.1
                 **** Energy Check signals convergence ****

               *****************************************************
               *                     SUCCESS                       *
               *           SCF CONVERGED AFTER  15 CYCLES          *
               *****************************************************

Recomputing exchange energy using gridx3       ... done (   54.792 sec)
Old exchange energy                            :     -7.371911367 Eh
New exchange energy                            :     -7.371947188 Eh
Exchange energy change after final integration :     -0.000035821 Eh
Total energy after final integration           :   -538.530993795 Eh

SMD CDS free energy correction energy :                -3.00276     Kcal/mol
Total Energy after SMD CDS correction =              -538.535778990 Eh
             **** ENERGY FILE WAS UPDATED (cs_rporg_061_ox_solv_01.en.tmp) ****

----------------
TOTAL SCF ENERGY
----------------

Total Energy       :       -538.53577898968069 Eh          -14654.30356 eV

Components:
Nuclear Repulsion  :        701.55225509541822 Eh           19090.20739 eV
Electronic Energy  :      -1240.00658122114419 Eh          -33742.29450 eV
One Electron Energy:      -2103.98188172634673 Eh          -57252.25765 eV
Two Electron Energy:        863.97530050520243 Eh           23509.96315 eV
CPCM Dielectric    :         -0.07663184800161 Eh              -2.08526 eV
SMD CDS (Gcds)     :         -0.00478519485576 Eh              -0.13021 eV

Virial components:
Potential Energy   :      -1073.94828331109989 Eh          -29223.61849 eV
Kinetic Energy     :        535.41250432141919 Eh           14569.31493 eV
Virial Ratio       :          2.00583339881503

DFT components:
N(Alpha)           :       45.000058865533 electrons
N(Beta)            :       44.000061499294 electrons
N(Total)           :       89.000120364828 electrons
E(X)               :      -66.904054375626 Eh       
E(C)               :       -2.962971659521 Eh       
E(XC)              :      -69.867026035147 Eh       

CPCM Solvation Model Properties:
Surface-charge          :         -1.04169699078276
Corrected charge        :         -1.00000000000000
Outlying charge corr.   :          0.00011326366902 Eh               0.00308 eV
Free-energy (cav+disp)  :         -0.00478519485576 Eh              -0.13021 eV

---------------
SCF CONVERGENCE
---------------

  Last Energy change         ...    7.4101e-09  Tolerance :   1.0000e-08
  Last MAX-Density change    ...    7.2505e-04  Tolerance :   1.0000e-07
  Last RMS-Density change    ...    9.7422e-06  Tolerance :   5.0000e-09
  Last DIIS Error            ...    8.9611e-04  Tolerance :   5.0000e-07
  Last Orbital Gradient      ...    2.3067e-05  Tolerance :   1.0000e-05
  Last Orbital Rotation      ...    9.4187e-05  Tolerance :   1.0000e-05


----------------------
UHF SPIN CONTAMINATION
----------------------

Warning: in a DFT calculation there is little theoretical justification to 
         calculate <S**2> as in Hartree-Fock theory. We will do it anyways
         but you should keep in mind that the values have only limited relevance

Expectation value of <S**2>     :     0.763555
Ideal value S*(S+1) for S=0.5   :     0.750000
Deviation                       :     0.013555

----------------
ORBITAL ENERGIES
----------------
                 SPIN UP ORBITALS
  NO   OCC          E(Eh)            E(eV) 
   0   1.0000     -19.184633      -522.0404 
   1   1.0000     -10.232369      -278.4369 
   2   1.0000     -10.232347      -278.4363 
   3   1.0000     -10.159589      -276.4565 
   4   1.0000     -10.159495      -276.4539 
   5   1.0000     -10.158234      -276.4196 
   6   1.0000     -10.158222      -276.4193 
   7   1.0000     -10.156212      -276.3646 
   8   1.0000     -10.156203      -276.3643 
   9   1.0000     -10.149003      -276.1684 
  10   1.0000     -10.148965      -276.1674 
  11   1.0000     -10.148605      -276.1576 
  12   1.0000     -10.148593      -276.1573 
  13   1.0000      -1.149032       -31.2668 
  14   1.0000      -0.883797       -24.0493 
  15   1.0000      -0.864315       -23.5192 
  16   1.0000      -0.793387       -21.5891 
  17   1.0000      -0.769221       -20.9316 
  18   1.0000      -0.762571       -20.7506 
  19   1.0000      -0.739877       -20.1331 
  20   1.0000      -0.669051       -18.2058 
  21   1.0000      -0.637160       -17.3380 
  22   1.0000      -0.617966       -16.8157 
  23   1.0000      -0.593338       -16.1455 
  24   1.0000      -0.565220       -15.3804 
  25   1.0000      -0.520648       -14.1675 
  26   1.0000      -0.505455       -13.7541 
  27   1.0000      -0.504782       -13.7358 
  28   1.0000      -0.498086       -13.5536 
  29   1.0000      -0.455168       -12.3857 
  30   1.0000      -0.453632       -12.3440 
  31   1.0000      -0.439965       -11.9721 
  32   1.0000      -0.438085       -11.9209 
  33   1.0000      -0.429978       -11.7003 
  34   1.0000      -0.421958       -11.4821 
  35   1.0000      -0.390547       -10.6273 
  36   1.0000      -0.380028       -10.3411 
  37   1.0000      -0.374615       -10.1938 
  38   1.0000      -0.370630       -10.0854 
  39   1.0000      -0.353250        -9.6124 
  40   1.0000      -0.350237        -9.5304 
  41   1.0000      -0.286775        -7.8035 
  42   1.0000      -0.283024        -7.7015 
  43   1.0000      -0.279459        -7.6045 
  44   1.0000      -0.253979        -6.9111 
  45   0.0000      -0.070762        -1.9255 
  46   0.0000      -0.057778        -1.5722 
  47   0.0000      -0.051767        -1.4087 
  48   0.0000      -0.044204        -1.2028 
  49   0.0000      -0.008490        -0.2310 
  50   0.0000       0.001714         0.0466 
  51   0.0000       0.007905         0.2151 
  52   0.0000       0.013487         0.3670 
  53   0.0000       0.017031         0.4634 
  54   0.0000       0.023509         0.6397 
  55   0.0000       0.031660         0.8615 

                 SPIN DOWN ORBITALS
  NO   OCC          E(Eh)            E(eV) 
   0   1.0000     -19.177597      -521.8490 
   1   1.0000     -10.231320      -278.4084 
   2   1.0000     -10.231297      -278.4078 
   3   1.0000     -10.157861      -276.4094 
   4   1.0000     -10.157767      -276.4069 
   5   1.0000     -10.154845      -276.3274 
   6   1.0000     -10.154833      -276.3271 
   7   1.0000     -10.154637      -276.3217 
   8   1.0000     -10.154629      -276.3215 
   9   1.0000     -10.149778      -276.1895 
  10   1.0000     -10.149740      -276.1885 
  11   1.0000     -10.149308      -276.1767 
  12   1.0000     -10.149295      -276.1764 
  13   1.0000      -1.137775       -30.9604 
  14   1.0000      -0.879499       -23.9324 
  15   1.0000      -0.860015       -23.4022 
  16   1.0000      -0.789157       -21.4741 
  17   1.0000      -0.767132       -20.8747 
  18   1.0000      -0.760633       -20.6979 
  19   1.0000      -0.731986       -19.9183 
  20   1.0000      -0.664315       -18.0769 
  21   1.0000      -0.635306       -17.2875 
  22   1.0000      -0.614784       -16.7291 
  23   1.0000      -0.590333       -16.0638 
  24   1.0000      -0.563204       -15.3256 
  25   1.0000      -0.518388       -14.1061 
  26   1.0000      -0.502296       -13.6682 
  27   1.0000      -0.497780       -13.5453 
  28   1.0000      -0.486070       -13.2266 
  29   1.0000      -0.452021       -12.3001 
  30   1.0000      -0.450743       -12.2653 
  31   1.0000      -0.437317       -11.9000 
  32   1.0000      -0.436983       -11.8909 
  33   1.0000      -0.426049       -11.5934 
  34   1.0000      -0.416273       -11.3274 
  35   1.0000      -0.381627       -10.3846 
  36   1.0000      -0.378794       -10.3075 
  37   1.0000      -0.370204       -10.0738 
  38   1.0000      -0.363053        -9.8792 
  39   1.0000      -0.347821        -9.4647 
  40   1.0000      -0.346690        -9.4339 
  41   1.0000      -0.279239        -7.5985 
  42   1.0000      -0.275010        -7.4834 
  43   1.0000      -0.265617        -7.2278 
  44   0.0000      -0.209942        -5.7128 
  45   0.0000      -0.058138        -1.5820 
  46   0.0000      -0.050993        -1.3876 
  47   0.0000      -0.044048        -1.1986 
  48   0.0000      -0.028109        -0.7649 
  49   0.0000      -0.007953        -0.2164 
  50   0.0000       0.002141         0.0583 
  51   0.0000       0.008101         0.2204 
  52   0.0000       0.013830         0.3763 
  53   0.0000       0.017566         0.4780 
  54   0.0000       0.023871         0.6496 
*Only the first 10 virtual orbitals were printed.

                    ********************************
                    * MULLIKEN POPULATION ANALYSIS *
                    ********************************

--------------------------------------------
MULLIKEN ATOMIC CHARGES AND SPIN POPULATIONS
--------------------------------------------
   0 C :   -0.359975    0.100909
   1 C :   -0.481770   -0.055093
   2 C :   -0.363555    0.224618
   3 C :   -0.273925   -0.050849
   4 C :   -0.816885    0.077363
   5 C :    1.176687    0.111562
   6 O :   -0.797164    0.215231
   7 C :    1.176549    0.111381
   8 C :   -0.812250    0.077397
   9 C :   -0.281175   -0.050868
  10 C :   -0.365727    0.224572
  11 C :   -0.477597   -0.055160
  12 C :   -0.360996    0.100896
  13 H :    0.463823   -0.011909
  14 H :    0.396221    0.001380
  15 H :    0.459500    0.005529
  16 H :    0.356081   -0.000891
  17 H :    0.342270   -0.009954
  18 H :    0.342839   -0.010028
  19 H :    0.356188   -0.000908
  20 H :    0.460041    0.005462
  21 H :    0.394602    0.001419
  22 H :    0.466215   -0.012060
Sum of atomic charges         :    1.0000000
Sum of atomic spin populations:    1.0000000

-----------------------------------------------------
MULLIKEN REDUCED ORBITAL CHARGES AND SPIN POPULATIONS
-----------------------------------------------------
CHARGE
  0 C s       :     3.662557  s :     3.662557
      pz      :     0.916946  p :     2.531111
      px      :     0.808828
      py      :     0.805337
      dz2     :     0.005610  d :     0.183229
      dxz     :    -0.029564
      dyz     :    -0.019334
      dx2y2   :    -0.001256
      dxy     :     0.227772
      f0      :     0.000835  f :    -0.016922
      f+1     :    -0.000498
      f-1     :    -0.001411
      f+2     :     0.001240
      f-2     :    -0.000705
      f+3     :    -0.017899
      f-3     :     0.001516

  1 C s       :     3.596922  s :     3.596922
      pz      :     0.939839  p :     2.801299
      px      :     1.014048
      py      :     0.847412
      dz2     :     0.000574  d :     0.095582
      dxz     :     0.022099
      dyz     :     0.057387
      dx2y2   :     0.006069
      dxy     :     0.009454
      f0      :     0.000411  f :    -0.012033
      f+1     :     0.000408
      f-1     :     0.000122
      f+2     :     0.000601
      f-2     :    -0.002234
      f+3     :    -0.008632
      f-3     :    -0.002709

  2 C s       :     3.432469  s :     3.432469
      pz      :     0.833880  p :     2.655757
      px      :     0.865349
      py      :     0.956528
      dz2     :     0.022706  d :     0.285554
      dxz     :    -0.015874
      dyz     :     0.049750
      dx2y2   :     0.057468
      dxy     :     0.171503
      f0      :     0.000676  f :    -0.010224
      f+1     :     0.001400
      f-1     :    -0.000033
      f+2     :    -0.001387
      f-2     :    -0.002551
      f+3     :    -0.008097
      f-3     :    -0.000231

  3 C s       :     3.417865  s :     3.417865
      pz      :     0.858095  p :     2.778288
      px      :     0.970130
      py      :     0.950063
      dz2     :    -0.000136  d :     0.088192
      dxz     :    -0.042554
      dyz     :    -0.002579
      dx2y2   :     0.002740
      dxy     :     0.130721
      f0      :     0.000332  f :    -0.010420
      f+1     :    -0.000292
      f-1     :     0.001406
      f+2     :    -0.001845
      f-2     :    -0.000058
      f+3     :    -0.009481
      f-3     :    -0.000483

  4 C s       :     3.870581  s :     3.870581
      pz      :     1.005761  p :     2.790328
      px      :     0.877848
      py      :     0.906719
      dz2     :     0.018372  d :     0.172587
      dxz     :     0.010697
      dyz     :     0.067310
      dx2y2   :     0.046170
      dxy     :     0.030039
      f0      :     0.000381  f :    -0.016612
      f+1     :    -0.001913
      f-1     :     0.000047
      f+2     :     0.000946
      f-2     :    -0.000814
      f+3     :    -0.013678
      f-3     :    -0.001580

  5 C s       :     3.143546  s :     3.143546
      pz      :     0.816524  p :     1.732191
      px      :     0.242877
      py      :     0.672790
      dz2     :    -0.037001  d :    -0.068403
      dxz     :     0.035346
      dyz     :     0.020318
      dx2y2   :    -0.077093
      dxy     :    -0.009972
      f0      :     0.004622  f :     0.015979
      f+1     :     0.003518
      f-1     :     0.002529
      f+2     :     0.001750
      f-2     :     0.007423
      f+3     :     0.000189
      f-3     :    -0.004053

  6 O s       :     4.363968  s :     4.363968
      pz      :     1.572104  p :     4.330153
      px      :     1.142495
      py      :     1.615554
      dz2     :    -0.004494  d :     0.095666
      dxz     :     0.043140
      dyz     :     0.010341
      dx2y2   :     0.015807
      dxy     :     0.030872
      f0      :     0.000924  f :     0.007376
      f+1     :     0.000103
      f-1     :    -0.000034
      f+2     :     0.000430
      f-2     :     0.002203
      f+3     :     0.004090
      f-3     :    -0.000340

  7 C s       :     3.143641  s :     3.143641
      pz      :     0.817222  p :     1.727604
      px      :     0.240790
      py      :     0.669593
      dz2     :    -0.036876  d :    -0.063944
      dxz     :     0.035225
      dyz     :     0.020310
      dx2y2   :    -0.073757
      dxy     :    -0.008846
      f0      :     0.004616  f :     0.016150
      f+1     :     0.003510
      f-1     :     0.002531
      f+2     :     0.001753
      f-2     :     0.007464
      f+3     :     0.000329
      f-3     :    -0.004053

  8 C s       :     3.871171  s :     3.871171
      pz      :     1.005532  p :     2.784203
      px      :     0.874434
      py      :     0.904238
      dz2     :     0.018075  d :     0.173421
      dxz     :     0.010903
      dyz     :     0.067081
      dx2y2   :     0.046307
      dxy     :     0.031055
      f0      :     0.000386  f :    -0.016545
      f+1     :    -0.001911
      f-1     :     0.000046
      f+2     :     0.000939
      f-2     :    -0.000808
      f+3     :    -0.013583
      f-3     :    -0.001615

  9 C s       :     3.427854  s :     3.427854
      pz      :     0.858604  p :     2.773610
      px      :     0.969205
      py      :     0.945801
      dz2     :    -0.000112  d :     0.090151
      dxz     :    -0.042595
      dyz     :    -0.002227
      dx2y2   :     0.003540
      dxy     :     0.131545
      f0      :     0.000333  f :    -0.010441
      f+1     :    -0.000291
      f-1     :     0.001399
      f+2     :    -0.001857
      f-2     :    -0.000047
      f+3     :    -0.009486
      f-3     :    -0.000491

 10 C s       :     3.437654  s :     3.437654
      pz      :     0.834537  p :     2.653122
      px      :     0.865709
      py      :     0.952876
      dz2     :     0.022674  d :     0.285169
      dxz     :    -0.016042
      dyz     :     0.049883
      dx2y2   :     0.057302
      dxy     :     0.171353
      f0      :     0.000676  f :    -0.010219
      f+1     :     0.001405
      f-1     :    -0.000027
      f+2     :    -0.001376
      f-2     :    -0.002560
      f+3     :    -0.008109
      f-3     :    -0.000228

 11 C s       :     3.597209  s :     3.597209
      pz      :     0.939502  p :     2.798786
      px      :     1.010268
      py      :     0.849016
      dz2     :     0.000769  d :     0.093694
      dxz     :     0.021776
      dyz     :     0.057468
      dx2y2   :     0.006550
      dxy     :     0.007130
      f0      :     0.000401  f :    -0.012092
      f+1     :     0.000404
      f-1     :     0.000118
      f+2     :     0.000590
      f-2     :    -0.002247
      f+3     :    -0.008637
      f-3     :    -0.002720

 12 C s       :     3.666890  s :     3.666890
      pz      :     0.918481  p :     2.531365
      px      :     0.808441
      py      :     0.804443
      dz2     :     0.004871  d :     0.179732
      dxz     :    -0.029160
      dyz     :    -0.019310
      dx2y2   :    -0.004244
      dxy     :     0.227576
      f0      :     0.000832  f :    -0.016992
      f+1     :    -0.000499
      f-1     :    -0.001416
      f+2     :     0.001218
      f-2     :    -0.000710
      f+3     :    -0.017908
      f-3     :     0.001489

 13 H s       :     0.581492  s :     0.581492
      pz      :     0.005342  p :    -0.054215
      px      :    -0.022672
      py      :    -0.036884
      dz2     :     0.002531  d :     0.008899
      dxz     :     0.002895
      dyz     :     0.000461
      dx2y2   :     0.001107
      dxy     :     0.001906

 14 H s       :     0.565147  s :     0.565147
      pz      :     0.004972  p :     0.031154
      px      :    -0.000385
      py      :     0.026568
      dz2     :     0.002009  d :     0.007478
      dxz     :     0.000358
      dyz     :     0.001781
      dx2y2   :     0.001460
      dxy     :     0.001870

 15 H s       :     0.548588  s :     0.548588
      pz      :     0.008936  p :    -0.014754
      px      :    -0.016678
      py      :    -0.007011
      dz2     :    -0.000432  d :     0.006665
      dxz     :     0.003649
      dyz     :     0.000466
      dx2y2   :     0.001538
      dxy     :     0.001445

 16 H s       :     0.619743  s :     0.619743
      pz      :     0.026511  p :     0.017161
      px      :    -0.006183
      py      :    -0.003166
      dz2     :     0.001786  d :     0.007015
      dxz     :     0.001688
      dyz     :     0.000365
      dx2y2   :     0.001909
      dxy     :     0.001267

 17 H s       :     0.679826  s :     0.679826
      pz      :    -0.003833  p :    -0.027074
      px      :    -0.010765
      py      :    -0.012476
      dz2     :     0.001011  d :     0.004978
      dxz     :     0.000500
      dyz     :     0.002255
      dx2y2   :     0.001087
      dxy     :     0.000125

 18 H s       :     0.679267  s :     0.679267
      pz      :    -0.003771  p :    -0.027081
      px      :    -0.010941
      py      :    -0.012370
      dz2     :     0.001013  d :     0.004976
      dxz     :     0.000499
      dyz     :     0.002255
      dx2y2   :     0.001086
      dxy     :     0.000123

 19 H s       :     0.620224  s :     0.620224
      pz      :     0.026360  p :     0.016545
      px      :    -0.006139
      py      :    -0.003676
      dz2     :     0.001788  d :     0.007043
      dxz     :     0.001682
      dyz     :     0.000359
      dx2y2   :     0.001941
      dxy     :     0.001273

 20 H s       :     0.547686  s :     0.547686
      pz      :     0.008853  p :    -0.014416
      px      :    -0.016771
      py      :    -0.006498
      dz2     :    -0.000430  d :     0.006688
      dxz     :     0.003648
      dyz     :     0.000466
      dx2y2   :     0.001549
      dxy     :     0.001456

 21 H s       :     0.566141  s :     0.566141
      pz      :     0.004975  p :     0.031754
      px      :    -0.000060
      py      :     0.026838
      dz2     :     0.002011  d :     0.007504
      dxz     :     0.000357
      dyz     :     0.001787
      dx2y2   :     0.001465
      dxy     :     0.001884

 22 H s       :     0.579404  s :     0.579404
      pz      :     0.005026  p :    -0.054514
      px      :    -0.022672
      py      :    -0.036868
      dz2     :     0.002536  d :     0.008894
      dxz     :     0.002917
      dyz     :     0.000450
      dx2y2   :     0.001106
      dxy     :     0.001886


SPIN
  0 C s       :    -0.001028  s :    -0.001028
      pz      :     0.054979  p :     0.093703
      px      :     0.002958
      py      :     0.035766
      dz2     :    -0.000978  d :     0.009003
      dxz     :     0.011374
      dyz     :    -0.001227
      dx2y2   :     0.000534
      dxy     :    -0.000699
      f0      :    -0.000062  f :    -0.000770
      f+1     :    -0.000080
      f-1     :    -0.000333
      f+2     :    -0.000605
      f-2     :    -0.000264
      f+3     :     0.000552
      f-3     :     0.000022

  1 C s       :    -0.001838  s :    -0.001838
      pz      :    -0.032840  p :    -0.054561
      px      :    -0.012780
      py      :    -0.008941
      dz2     :    -0.000247  d :     0.001824
      dxz     :     0.011137
      dyz     :    -0.000486
      dx2y2   :    -0.008037
      dxy     :    -0.000542
      f0      :     0.000089  f :    -0.000518
      f+1     :    -0.000094
      f-1     :    -0.000045
      f+2     :    -0.000055
      f-2     :    -0.000075
      f+3     :    -0.000201
      f-3     :    -0.000137

  2 C s       :     0.008048  s :     0.008048
      pz      :     0.169874  p :     0.216921
      px      :     0.012274
      py      :     0.034773
      dz2     :    -0.000898  d :     0.000772
      dxz     :    -0.000160
      dyz     :    -0.000799
      dx2y2   :    -0.000326
      dxy     :     0.002956
      f0      :    -0.000107  f :    -0.001123
      f+1     :    -0.000203
      f-1     :    -0.000341
      f+2     :     0.000010
      f-2     :     0.000020
      f+3     :    -0.000285
      f-3     :    -0.000218

  3 C s       :    -0.003994  s :    -0.003994
      pz      :    -0.027949  p :    -0.046010
      px      :    -0.005245
      py      :    -0.012815
      dz2     :    -0.000174  d :    -0.000459
      dxz     :    -0.007363
      dyz     :     0.002575
      dx2y2   :     0.002269
      dxy     :     0.002236
      f0      :     0.000027  f :    -0.000386
      f+1     :     0.000031
      f-1     :    -0.000171
      f+2     :    -0.000051
      f-2     :    -0.000076
      f+3     :    -0.000106
      f-3     :    -0.000039

  4 C s       :    -0.011558  s :    -0.011558
      pz      :     0.068984  p :     0.085252
      px      :     0.000913
      py      :     0.015355
      dz2     :     0.000256  d :     0.004580
      dxz     :    -0.003485
      dyz     :    -0.000816
      dx2y2   :     0.005987
      dxy     :     0.002637
      f0      :    -0.000171  f :    -0.000911
      f+1     :    -0.000074
      f-1     :    -0.000075
      f+2     :    -0.000322
      f-2     :    -0.000392
      f+3     :     0.000427
      f-3     :    -0.000303

  5 C s       :     0.013088  s :     0.013088
      pz      :     0.076430  p :     0.085751
      px      :    -0.001957
      py      :     0.011279
      dz2     :     0.000411  d :     0.011131
      dxz     :     0.004090
      dyz     :     0.003651
      dx2y2   :     0.001147
      dxy     :     0.001832
      f0      :     0.000695  f :     0.001592
      f+1     :     0.000209
      f-1     :     0.000066
      f+2     :     0.000330
      f-2     :     0.001841
      f+3     :    -0.001450
      f-3     :    -0.000100

  6 O s       :     0.007752  s :     0.007752
      pz      :     0.192095  p :     0.204870
      px      :     0.008437
      py      :     0.004338
      dz2     :    -0.000051  d :     0.002272
      dxz     :    -0.000232
      dyz     :     0.002109
      dx2y2   :    -0.000629
      dxy     :     0.001076
      f0      :     0.000053  f :     0.000337
      f+1     :    -0.000078
      f-1     :    -0.000032
      f+2     :     0.000149
      f-2     :     0.000007
      f+3     :     0.000253
      f-3     :    -0.000016

  7 C s       :     0.013059  s :     0.013059
      pz      :     0.076261  p :     0.085644
      px      :    -0.001896
      py      :     0.011279
      dz2     :     0.000423  d :     0.011093
      dxz     :     0.004108
      dyz     :     0.003596
      dx2y2   :     0.001207
      dxy     :     0.001760
      f0      :     0.000693  f :     0.001585
      f+1     :     0.000209
      f-1     :     0.000067
      f+2     :     0.000329
      f-2     :     0.001829
      f+3     :    -0.001443
      f-3     :    -0.000100

  8 C s       :    -0.011544  s :    -0.011544
      pz      :     0.068972  p :     0.085312
      px      :     0.000987
      py      :     0.015353
      dz2     :     0.000253  d :     0.004535
      dxz     :    -0.003458
      dyz     :    -0.000835
      dx2y2   :     0.005932
      dxy     :     0.002643
      f0      :    -0.000170  f :    -0.000906
      f+1     :    -0.000072
      f-1     :    -0.000074
      f+2     :    -0.000319
      f-2     :    -0.000391
      f+3     :     0.000423
      f-3     :    -0.000302

  9 C s       :    -0.003995  s :    -0.003995
      pz      :    -0.028037  p :    -0.045991
      px      :    -0.005269
      py      :    -0.012686
      dz2     :    -0.000195  d :    -0.000497
      dxz     :    -0.007080
      dyz     :     0.002518
      dx2y2   :     0.002260
      dxy     :     0.002000
      f0      :     0.000028  f :    -0.000385
      f+1     :     0.000030
      f-1     :    -0.000169
      f+2     :    -0.000053
      f-2     :    -0.000075
      f+3     :    -0.000108
      f-3     :    -0.000038

 10 C s       :     0.008022  s :     0.008022
      pz      :     0.169734  p :     0.216890
      px      :     0.012282
      py      :     0.034874
      dz2     :    -0.000903  d :     0.000784
      dxz     :    -0.000040
      dyz     :    -0.000846
      dx2y2   :    -0.000237
      dxy     :     0.002810
      f0      :    -0.000107  f :    -0.001124
      f+1     :    -0.000203
      f-1     :    -0.000341
      f+2     :     0.000010
      f-2     :     0.000021
      f+3     :    -0.000287
      f-3     :    -0.000217

 11 C s       :    -0.001850  s :    -0.001850
      pz      :    -0.032842  p :    -0.054604
      px      :    -0.012832
      py      :    -0.008930
      dz2     :    -0.000240  d :     0.001813
      dxz     :     0.010907
      dyz     :    -0.000527
      dx2y2   :    -0.007916
      dxy     :    -0.000411
      f0      :     0.000088  f :    -0.000519
      f+1     :    -0.000092
      f-1     :    -0.000045
      f+2     :    -0.000055
      f-2     :    -0.000076
      f+3     :    -0.000202
      f-3     :    -0.000136

 12 C s       :    -0.000944  s :    -0.000944
      pz      :     0.055013  p :     0.093790
      px      :     0.002932
      py      :     0.035845
      dz2     :    -0.000977  d :     0.008830
      dxz     :     0.011248
      dyz     :    -0.001244
      dx2y2   :     0.000466
      dxy     :    -0.000663
      f0      :    -0.000060  f :    -0.000780
      f+1     :    -0.000080
      f-1     :    -0.000328
      f+2     :    -0.000601
      f-2     :    -0.000263
      f+3     :     0.000533
      f-3     :     0.000019

 13 H s       :    -0.017024  s :    -0.017024
      pz      :     0.002233  p :     0.004684
      px      :     0.002038
      py      :     0.000413
      dz2     :     0.000145  d :     0.000432
      dxz     :     0.000293
      dyz     :    -0.000016
      dx2y2   :     0.000071
      dxy     :    -0.000061

 14 H s       :     0.003136  s :     0.003136
      pz      :     0.000329  p :    -0.001557
      px      :    -0.000144
      py      :    -0.001741
      dz2     :    -0.000042  d :    -0.000200
      dxz     :    -0.000068
      dyz     :    -0.000051
      dx2y2   :    -0.000039
      dxy     :    -0.000000

 15 H s       :    -0.000775  s :    -0.000775
      pz      :     0.004399  p :     0.005240
      px      :    -0.000924
      py      :     0.001765
      dz2     :     0.000061  d :     0.001063
      dxz     :     0.000606
      dyz     :     0.000123
      dx2y2   :     0.000149
      dxy     :     0.000125

 16 H s       :    -0.000491  s :    -0.000491
      pz      :    -0.002075  p :    -0.000289
      px      :     0.001081
      py      :     0.000705
      dz2     :    -0.000025  d :    -0.000110
      dxz     :    -0.000084
      dyz     :     0.000045
      dx2y2   :    -0.000013
      dxy     :    -0.000033

 17 H s       :    -0.011185  s :    -0.011185
      pz      :     0.000808  p :     0.000972
      px      :    -0.000328
      py      :     0.000492
      dz2     :     0.000111  d :     0.000259
      dxz     :    -0.000020
      dyz     :     0.000198
      dx2y2   :    -0.000020
      dxy     :    -0.000009

 18 H s       :    -0.011270  s :    -0.011270
      pz      :     0.000777  p :     0.000982
      px      :    -0.000326
      py      :     0.000531
      dz2     :     0.000110  d :     0.000260
      dxz     :    -0.000020
      dyz     :     0.000200
      dx2y2   :    -0.000020
      dxy     :    -0.000010

 19 H s       :    -0.000515  s :    -0.000515
      pz      :    -0.002091  p :    -0.000282
      px      :     0.001097
      py      :     0.000712
      dz2     :    -0.000026  d :    -0.000111
      dxz     :    -0.000084
      dyz     :     0.000046
      dx2y2   :    -0.000013
      dxy     :    -0.000033

 20 H s       :    -0.000855  s :    -0.000855
      pz      :     0.004413  p :     0.005252
      px      :    -0.000959
      py      :     0.001797
      dz2     :     0.000061  d :     0.001066
      dxz     :     0.000607
      dyz     :     0.000124
      dx2y2   :     0.000149
      dxy     :     0.000125

 21 H s       :     0.003179  s :     0.003179
      pz      :     0.000342  p :    -0.001560
      px      :    -0.000143
      py      :    -0.001758
      dz2     :    -0.000041  d :    -0.000200
      dxz     :    -0.000068
      dyz     :    -0.000051
      dx2y2   :    -0.000038
      dxy     :    -0.000001

 22 H s       :    -0.017176  s :    -0.017176
      pz      :     0.002254  p :     0.004681
      px      :     0.002063
      py      :     0.000364
      dz2     :     0.000144  d :     0.000435
      dxz     :     0.000295
      dyz     :    -0.000016
      dx2y2   :     0.000071
      dxy     :    -0.000059



                     *******************************
                     * LOEWDIN POPULATION ANALYSIS *
                     *******************************

-------------------------------------------
LOEWDIN ATOMIC CHARGES AND SPIN POPULATIONS
-------------------------------------------
   0 C :    0.245205    0.064652
   1 C :    0.243554    0.026302
   2 C :    0.249835    0.106095
   3 C :    0.236410    0.027104
   4 C :    0.254584    0.058557
   5 C :   -0.322710    0.088071
   6 O :    0.684055    0.182591
   7 C :   -0.322684    0.088026
   8 C :    0.254620    0.058571
   9 C :    0.236411    0.027082
  10 C :    0.249845    0.106084
  11 C :    0.243585    0.026304
  12 C :    0.245085    0.064656
  13 H :   -0.154288    0.010475
  14 H :   -0.149533   -0.002819
  15 H :   -0.147631    0.024067
  16 H :   -0.151357   -0.002701
  17 H :   -0.146167    0.008934
  18 H :   -0.146177    0.008928
  19 H :   -0.151368   -0.002695
  20 H :   -0.147634    0.024069
  21 H :   -0.149559   -0.002820
  22 H :   -0.154082    0.010466

----------------------------------------------------
LOEWDIN REDUCED ORBITAL CHARGES AND SPIN POPULATIONS
----------------------------------------------------
CHARGE
  0 C s       :     2.479388  s :     2.479388
      pz      :     0.649302  p :     2.261632
      px      :     0.840694
      py      :     0.771636
      dz2     :     0.071855  d :     0.681064
      dxz     :     0.125602
      dyz     :     0.095941
      dx2y2   :     0.183005
      dxy     :     0.204661
      f0      :     0.029948  f :     0.332710
      f+1     :     0.020778
      f-1     :     0.037209
      f+2     :     0.049148
      f-2     :     0.040934
      f+3     :     0.092584
      f-3     :     0.062110

  1 C s       :     2.491398  s :     2.491398
      pz      :     0.641173  p :     2.268600
      px      :     0.839433
      py      :     0.787994
      dz2     :     0.068851  d :     0.666723
      dxz     :     0.128083
      dyz     :     0.073249
      dx2y2   :     0.235981
      dxy     :     0.160559
      f0      :     0.029016  f :     0.329725
      f+1     :     0.037067
      f-1     :     0.016011
      f+2     :     0.038664
      f-2     :     0.047804
      f+3     :     0.107052
      f-3     :     0.054111

  2 C s       :     2.497225  s :     2.497225
      pz      :     0.606557  p :     2.244228
      px      :     0.834909
      py      :     0.802762
      dz2     :     0.087046  d :     0.679565
      dxz     :     0.076339
      dyz     :     0.126264
      dx2y2   :     0.192297
      dxy     :     0.197620
      f0      :     0.021525  f :     0.329147
      f+1     :     0.031936
      f-1     :     0.029087
      f+2     :     0.049478
      f-2     :     0.050175
      f+3     :     0.091265
      f-3     :     0.055680

  3 C s       :     2.493448  s :     2.493448
      pz      :     0.632879  p :     2.271940
      px      :     0.835824
      py      :     0.803236
      dz2     :     0.069684  d :     0.669098
      dxz     :     0.100256
      dyz     :     0.092738
      dx2y2   :     0.165476
      dxy     :     0.240943
      f0      :     0.027961  f :     0.329105
      f+1     :     0.018728
      f-1     :     0.033867
      f+2     :     0.045432
      f-2     :     0.039265
      f+3     :     0.103767
      f-3     :     0.060084

  4 C s       :     2.491230  s :     2.491230
      pz      :     0.631122  p :     2.263598
      px      :     0.835432
      py      :     0.797044
      dz2     :     0.069254  d :     0.654783
      dxz     :     0.129092
      dyz     :     0.067002
      dx2y2   :     0.218064
      dxy     :     0.171371
      f0      :     0.028481  f :     0.335806
      f+1     :     0.041522
      f-1     :     0.016613
      f+2     :     0.035278
      f-2     :     0.049647
      f+3     :     0.108106
      f-3     :     0.056159

  5 C s       :     2.457682  s :     2.457682
      pz      :     0.654511  p :     2.193135
      px      :     0.723445
      py      :     0.815179
      dz2     :     0.126591  d :     1.046351
      dxz     :     0.176808
      dyz     :     0.153877
      dx2y2   :     0.275042
      dxy     :     0.314033
      f0      :     0.048945  f :     0.625542
      f+1     :     0.057885
      f-1     :     0.039069
      f+2     :     0.073586
      f-2     :     0.093255
      f+3     :     0.195813
      f-3     :     0.116990

  6 O s       :     2.943598  s :     2.943598
[...]

 10 C s       :     0.003537  s :     0.003537
      pz      :     0.089889  p :     0.112575
      px      :     0.004207
      py      :     0.018479
      dz2     :    -0.002669  d :    -0.006510
      dxz     :    -0.000186
      dyz     :    -0.001749
      dx2y2   :    -0.000979
      dxy     :    -0.000927
      f0      :    -0.000007  f :    -0.003519
      f+1     :    -0.001014
      f-1     :    -0.001483
      f+2     :    -0.000257
      f-2     :    -0.000239
      f+3     :     0.000131
      f-3     :    -0.000649

 11 C s       :    -0.001156  s :    -0.001156
      pz      :    -0.014653  p :    -0.021054
      px      :    -0.003146
      py      :    -0.003255
      dz2     :     0.003145  d :     0.031082
      dxz     :     0.016895
      dyz     :     0.000472
      dx2y2   :     0.002451
      dxy     :     0.008119
      f0      :     0.000979  f :     0.017431
      f+1     :     0.004690
      f-1     :     0.000798
      f+2     :     0.000627
      f-2     :     0.004558
      f+3     :     0.005107
      f-3     :     0.000672

 12 C s       :     0.001657  s :     0.001657
      pz      :     0.030396  p :     0.056147
      px      :     0.005062
      py      :     0.020689
      dz2     :     0.001728  d :     0.001393
      dxz     :    -0.001696
      dyz     :     0.002223
      dx2y2   :     0.000005
      dxy     :    -0.000868
      f0      :    -0.000061  f :     0.005460
      f+1     :     0.000018
      f-1     :     0.001931
      f+2     :     0.002111
      f-2     :    -0.000752
      f+3     :     0.001049
      f-3     :     0.001164

 13 H s       :    -0.001050  s :    -0.001050
      pz      :     0.003400  p :     0.005629
      px      :     0.000636
      py      :     0.001593
      dz2     :     0.002720  d :     0.005896
      dxz     :     0.002008
      dyz     :     0.000346
      dx2y2   :     0.000069
      dxy     :     0.000751

 14 H s       :     0.000834  s :     0.000834
      pz      :    -0.001810  p :    -0.002717
      px      :    -0.000393
      py      :    -0.000515
      dz2     :     0.000084  d :    -0.000936
      dxz     :     0.000114
      dyz     :    -0.000682
      dx2y2   :    -0.000502
      dxy     :     0.000050

 15 H s       :    -0.003189  s :    -0.003189
      pz      :     0.011421  p :     0.015515
      px      :     0.001356
      py      :     0.002738
      dz2     :    -0.000039  d :     0.011741
      dxz     :     0.007864
      dyz     :     0.001336
      dx2y2   :     0.001186
      dxy     :     0.001393

 16 H s       :     0.000540  s :     0.000540
      pz      :    -0.001692  p :    -0.002480
      px      :    -0.000239
      py      :    -0.000549
      dz2     :     0.000207  d :    -0.000762
      dxz     :    -0.001071
      dyz     :     0.000504
      dx2y2   :    -0.000017
      dxy     :    -0.000385

 17 H s       :    -0.001659  s :    -0.001659
      pz      :     0.003995  p :     0.005606
      px      :     0.000065
      py      :     0.001545
      dz2     :     0.001659  d :     0.004988
      dxz     :    -0.000177
      dyz     :     0.001967
      dx2y2   :     0.001365
      dxy     :     0.000173

 18 H s       :    -0.001658  s :    -0.001658
      pz      :     0.003992  p :     0.005601
      px      :     0.000065
      py      :     0.001544
      dz2     :     0.001659  d :     0.004985
      dxz     :    -0.000177
      dyz     :     0.001965
      dx2y2   :     0.001364
      dxy     :     0.000173

 19 H s       :     0.000539  s :     0.000539
      pz      :    -0.001688  p :    -0.002476
      px      :    -0.000239
      py      :    -0.000548
      dz2     :     0.000208  d :    -0.000759
      dxz     :    -0.001070
      dyz     :     0.000504
      dx2y2   :    -0.000017
      dxy     :    -0.000385

 20 H s       :    -0.003189  s :    -0.003189
      pz      :     0.011421  p :     0.015517
      px      :     0.001356
      py      :     0.002740
      dz2     :    -0.000039  d :     0.011741
      dxz     :     0.007864
      dyz     :     0.001337
      dx2y2   :     0.001187
      dxy     :     0.001394

 21 H s       :     0.000834  s :     0.000834
      pz      :    -0.001810  p :    -0.002717
      px      :    -0.000393
      py      :    -0.000515
      dz2     :     0.000084  d :    -0.000936
      dxz     :     0.000114
      dyz     :    -0.000682
      dx2y2   :    -0.000502
      dxy     :     0.000050

 22 H s       :    -0.001052  s :    -0.001052
      pz      :     0.003396  p :     0.005623
      px      :     0.000635
      py      :     0.001592
      dz2     :     0.002719  d :     0.005896
      dxz     :     0.002009
      dyz     :     0.000345
      dx2y2   :     0.000069
      dxy     :     0.000754



                      *****************************
                      * MAYER POPULATION ANALYSIS *
                      *****************************

  NA   - Mulliken gross atomic population
  ZA   - Total nuclear charge
  QA   - Mulliken gross atomic charge
  VA   - Mayer's total valence
  BVA  - Mayer's bonded valence
  FA   - Mayer's free valence

  ATOM       NA         ZA         QA         VA         BVA        FA
  0 C      6.3600     6.0000    -0.3600     3.4358     3.4258     0.0100
  1 C      6.4818     6.0000    -0.4818     3.3526     3.3506     0.0020
  2 C      6.3636     6.0000    -0.3636     3.8634     3.8261     0.0373
  3 C      6.2739     6.0000    -0.2739     3.4019     3.4002     0.0017
  4 C      6.8169     6.0000    -0.8169     3.5490     3.5405     0.0086
  5 C      4.8233     6.0000     1.1767     1.7317     1.7195     0.0122
  6 O      8.7972     8.0000    -0.7972     1.7089     1.6674     0.0415
  7 C      4.8235     6.0000     1.1765     1.7419     1.7297     0.0122
  8 C      6.8123     6.0000    -0.8123     3.5364     3.5279     0.0086
  9 C      6.2812     6.0000    -0.2812     3.4002     3.3985     0.0017
 10 C      6.3657     6.0000    -0.3657     3.8580     3.8207     0.0373
 11 C      6.4776     6.0000    -0.4776     3.3441     3.3421     0.0020
 12 C      6.3610     6.0000    -0.3610     3.4300     3.4200     0.0100
 13 H      0.5362     1.0000     0.4638     0.4763     0.4762     0.0001
 14 H      0.6038     1.0000     0.3962     0.8615     0.8614     0.0000
 15 H      0.5405     1.0000     0.4595     0.6597     0.6597     0.0000
 16 H      0.6439     1.0000     0.3561     0.8704     0.8704    -0.0000
 17 H      0.6577     1.0000     0.3423     0.6382     0.6381     0.0001
 18 H      0.6572     1.0000     0.3428     0.6372     0.6371     0.0001
 19 H      0.6438     1.0000     0.3562     0.8682     0.8682    -0.0000
 20 H      0.5400     1.0000     0.4600     0.6584     0.6584     0.0000
 21 H      0.6054     1.0000     0.3946     0.8641     0.8640     0.0000
 22 H      0.5338     1.0000     0.4662     0.4726     0.4725     0.0001

  Mayer bond orders larger than 0.100000
B(  0-C ,  1-C ) :   1.5134 B(  0-C ,  2-C ) :   0.1345 B(  0-C ,  4-C ) :   0.1873 
B(  0-C ,  5-C ) :   0.9072 B(  0-C , 12-C ) :   0.2127 B(  0-C , 22-H ) :   0.5187 
B(  1-C ,  2-C ) :   1.4139 B(  1-C ,  5-C ) :  -0.2718 B(  1-C , 21-H ) :   0.6764 
B(  2-C ,  3-C ) :   1.3343 B(  2-C ,  4-C ) :   0.3210 B(  2-C , 20-H ) :   0.4937 
B(  3-C ,  4-C ) :   1.5943 B(  3-C ,  5-C ) :  -0.3135 B(  3-C , 19-H ) :   0.7097 
B(  4-C ,  5-C ) :   0.6241 B(  4-C ,  6-O ) :   0.2931 B(  4-C , 18-H ) :   0.4513 
B(  4-C , 19-H ) :   0.1027 B(  5-C ,  6-O ) :   0.5287 B(  5-C ,  7-C ) :   0.1202 
B(  5-C , 18-H ) :   0.1135 B(  6-O ,  7-C ) :   0.5210 B(  6-O ,  8-C ) :   0.2975 
B(  7-C ,  8-C ) :   0.6244 B(  7-C ,  9-C ) :  -0.3173 B(  7-C , 11-C ) :  -0.2692 
B(  7-C , 12-C ) :   0.9095 B(  7-C , 17-H ) :   0.1141 B(  8-C ,  9-C ) :   1.5893 
B(  8-C , 10-C ) :   0.3149 B(  8-C , 12-C ) :   0.1851 B(  8-C , 16-H ) :   0.1034 
B(  8-C , 17-H ) :   0.4512 B(  9-C , 10-C ) :   1.3357 B(  9-C , 16-H ) :   0.7092 
B( 10-C , 11-C ) :   1.4086 B( 10-C , 12-C ) :   0.1357 B( 10-C , 15-H ) :   0.4957 
B( 11-C , 12-C ) :   1.5086 B( 11-C , 14-H ) :   0.6739 B( 12-C , 13-H ) :   0.5199 


-------
TIMINGS
-------

Total SCF time: 0 days 0 hours 9 min 46 sec 

Total time                  ....     586.620 sec
Sum of individual times     ....     586.435 sec  (100.0%)

SCF preparation             ....       1.350 sec  (  0.2%)
Fock matrix formation       ....     567.132 sec  ( 96.7%)
  Startup                   ....       1.327 sec  (  0.2% of F)
  Split-RI-J                ....      21.244 sec  (  3.7% of F)
  Chain of spheres X        ....     316.345 sec  ( 55.8% of F)
  XC integration            ....     214.795 sec  ( 37.9% of F)
    XC Preparation          ....       0.000 sec  (  0.0% of XC)
    Basis function eval.    ....      10.273 sec  (  4.8% of XC)
    Density eval.           ....      74.473 sec  ( 34.7% of XC)
    XC-Functional eval.     ....       1.231 sec  (  0.6% of XC)
    XC-Potential eval.      ....     127.015 sec  ( 59.1% of XC)
  CPCM terms                ....       9.849 sec  (  1.7% of F)
Diagonalization             ....       0.000 sec  (  0.0%)
Density matrix formation    ....       2.825 sec  (  0.5%)
Total Energy calculation    ....       1.362 sec  (  0.2%)
Population analysis         ....       0.505 sec  (  0.1%)
Orbital Transformation      ....       1.663 sec  (  0.3%)
Orbital Orthonormalization  ....       0.000 sec  (  0.0%)
DIIS solution               ....       7.798 sec  (  1.3%)
SOSCF solution              ....       3.800 sec  (  0.6%)
Finished LeanSCF after 586.9 sec

Maximum memory used throughout the entire LEANSCF-calculation: 162.1 MB


-------------------------------------------------------------------------------
                          DFT DISPERSION CORRECTION                            
                                                                               
                              DFTD3 V3.1  Rev 1                                
                          USING Becke-Johnson damping                          
-------------------------------------------------------------------------------
The TPSSH functional is recognized
Active option DFTDOPT                   ...         4   

molecular C6(AA) [au] = 6558.167265 


            DFT-D V3
 parameters
 s6 scaling factor         :     1.0000 
 a1 scaling factor         :     0.4529 
 s8 scaling factor         :     2.2382 
 a2 scaling factor         :     4.6550 
 ad hoc parameters k1-k3   :    16.0000     1.3333    -4.0000 

 Edisp/kcal,au: -19.644776261196  -0.031305940353 
 E6   /kcal   :  -9.291771041 
 E8   /kcal   : -10.353005220 
 % E8         :  52.701059470 

-------------------------   ----------------
Dispersion correction           -0.031305940
-------------------------   ----------------


-------------------------   --------------------
FINAL SINGLE POINT ENERGY      -538.567084930033
-------------------------   --------------------



           ************************************************************
           *        Program running with 4 parallel MPI-processes     *
           *              working on a common directory               *
           ************************************************************

------------------------------------------------------------------------------
                              ORCA PROPERTY CALCULATIONS
------------------------------------------------------------------------------

GBWName                                 ... cs_rporg_061_ox_solv_01.gbw
Number of atoms                         ...     23
Number of basis functions               ...    906
Max core memory                         ...   3000 MB

Electric properties:
Dipole moment                           ... YES
Quadrupole moment                       ...  NO
Static polarizability (Dipole/Dipole)   ...  NO
Static polarizability (Dipole/Quad.)    ...  NO
Static polarizability (Quad./Quad.)     ...  NO
Static polarizability (Velocity)        ...  NO

Atomic electric properties:
Dipole moment                           ...  NO
Quadrupole moment                       ...  NO
Static polarizability                   ...  NO

Choice of electric origin               ... Center of mass
Position of electric origin             ...     0.000000    -0.032262    -0.000051

General magnetic properties:
Magnetizability                         ...  NO

EPR properties:
g-Tensor (aka g-matrix)                 ...  NO
Zero-Field splitting spin-orbit         ...  NO
Zero-field splitting spin-spin          ...  NO
Hyperfine couplings                     ...  NO (   0 nuclei)
Quadrupole couplings                    ...  NO (   0 nuclei)
Contact density                         ...  NO (   0 nuclei)

NMR properties:
Chemical shifts                         ...  NO (   0 nuclei)
Spin-rotation constants                 ...  NO (   0 nuclei)
Spin-spin couplings                     ...  NO (   0 nuclei,    0 pairs)

Choice of magnetic origin               ... GIAO
Position of magnetic origin             ...     0.000000     0.000000     0.000000

Properties with geometric perturbations:
SCF Hessian                             ...  NO
IR spectrum                             ...  NO
VCD spectrum                            ...  NO
X-ray spectroscopy properties:
SCF XES/XAS/RIXS spectra                ...  NO


-------------
DIPOLE MOMENT
-------------

Method             : SCF
Type of density    : Electron Density
Multiplicity       :   2
Irrep              :   0
Energy             :  -538.5357789896806935 Eh
Relativity type    : 
Basis              : AO
                                X                 Y                 Z
Electronic contribution:     -0.000855923       2.136308498       0.001690068
Nuclear contribution   :      0.000026820      -2.597809167       0.000076640
                        -----------------------------------------
Total Dipole Moment    :     -0.000829103      -0.461500669       0.001766709
                        -----------------------------------------
Magnitude (a.u.)       :      0.461504795
Magnitude (Debye)      :      1.173051966



--------------------
Rotational spectrum 
--------------------
 
Rotational constants in cm-1:             0.082583             0.014544             0.013062 
Rotational constants in MHz :          2475.769648           436.018937           391.587616 

Dipole components along the rotational axes: 
x,y,z [a.u.] :     0.000830    -0.461501     0.001742 
x,y,z [Debye]:     0.002109    -1.173042     0.004429 

 

Dipole moment calculation done in   0.1 sec 

Maximum memory used throughout the entire PROP-calculation: 93.2 MB

--------------------------------
SUGGESTED CITATIONS FOR THIS RUN
--------------------------------

Below you find a list of papers that are relevant to this ORCA run
We neither can nor want to force you to cite these papers, but we appreciate if you do
You receive ORCA, which is the product of decades of hard work by many enthusiastic individuals, for free
The only thing we kindly ask in return is that you cite our papers,
We deeply appreciate it, if you show your appreciation for ORCA by not just citing the generic ORCA reference.

Please note that relegating all ORCA citations to the supporting information does *not* help us.
SI sections are not indexed - citations you put there will not count into any citation statistics
But we need these citations in order to attract the funding resources that allow us to do what we are doing

Therefore, if you are a happy ORCA user, please consider citing a few of the papers listed below in the main body of your paper

In addition to the list printed below, the program has created the file cs_rporg_061_ox_solv_01.bibtex that contains the list in bibtex format
You can import this file easily into all common literature databanks and citation aid programs


List of essential papers. We consider these as the minimum necessary citations

  1. Neese,F.
     Software update: the ORCA program system, version 5.0
     WIRES Comput. Molec. Sci., 2022 12(1)e1606
     doi.org/10.1002/wcms.1606

List of papers to cite with high priority. The work reported in these papers was absolutely
necessary for this run to complete.
Our perspective: the developers of density functionals and basis sets usually get cited in chemistry papers
Good! But without the algorithms to do something with them, the functionals or basis sets would not do anything.
Hence, in our opinion, the algorithm design and method developments papers are equally worthy of getting cited

  1. Neese,F.
     An improvement of the resolution of the identity approximation for the formation of the Coulomb matrix
     J. Comp. Chem., 2003 24(14)1740-1747
     doi.org/10.1002/jcc.10318
  2. Neese,F.; Wennmohs,F.; Hansen,A.; Becker,U.
     Efficient, approximate and parallel Hartree-Fock and hybrid DFT calculations. A 'chain-of-spheres' algorithm for the Hartree-Fock exchange
     Chem. Phys., 2009 356(1-3)98-109
     doi.org/10.1016/j.chemphys.2008.10.036
  3. Garcia-Rates,M.; Neese,F.
     Effect of the Solute Cavity on the Solvation Energy and its Derivatives within the Framework of the Gaussian Charge Scheme
     J. Comput. Chem., 2020 41 922-939
     doi.org/10.1002/jcc.26139
  4. Helmich-Paris,B.; de Souza,B.; Neese,F.; Izsák,R.
     An improved chain of spheres for exchange algorithm
     J. Chem. Phys., 2021 155 104109
     doi.org/doi: 10.1063/5.0058766.
  5. Neese,F.
     The SHARK Integral Generation and Digestion System
     J. Comp. Chem., 2022  1-16
     doi.org/10.1002/jcc.26942
  6. Grimme,S.; Antony,J.; Ehrlich,S.; Krieg,H.
     A consistent and accurate ab initio parametrization of density functional dispersion correction (DFT-D) for the 94 elements H-Pu
     J. Chem. Phys., 2010 132 154104-XXXX
     doi.org/10.1063/1.3382344
  7. Grimme,S.; Ehrlich,S.; Goerigk,L.
     Effect of the damping function in dispersion corrected density functional theory
     J. Comput. Chem., 2011 32(7)1456-1465
     doi.org/10.1002/jcc.21759

List of suggested additional citations. These are papers that are important in the 'surrounding' of 
of this run, or papers that preceded the highly important papers. If you like your results we are grateful for a citation.

  1. Izsak,R.; Neese,F.
     An overlap fitted chain of spheres exchange method
     J. Chem. Phys., 2011 135 144105
     doi.org/10.1063/1.3646921
  2. Izsak,R.; Hansen,A.; Neese,F.
     The resolution of identity and chain of spheres approximations for the LPNO-CCSD singles Fock term
     Molec. Phys., 2012 110 2413-2417
     doi.org/10.1080/00268976.2012.687466
  3. Neese,F.
     The ORCA program system
     WIRES Comput. Molec. Sci., 2012 2(1)73-78
     doi.org/10.1002/wcms.81
  4. Izsak,R.; Neese,F.; Klopper,W.
     Robust fitting techniques in the chain of spheres approximation to the Fock exchange: The role of the complementary space
     J. Chem. Phys., 2013 139 
     doi.org/10.1063/1.4819264
  5. Neese,F.
     Software update: the ORCA program system, version 4.0
     WIRES Comput. Molec. Sci., 2018 8(1)1-6
     doi.org/10.1002/wcms.1327
  6. Neese,F.; Wennmohs,F.; Becker,U.; Riplinger,C.
     The ORCA quantum chemistry program package
     J. Chem. Phys., 2020 152 Art. No. L224108
     doi.org/10.1063/5.0004608

List of optional additional citations

  1. Neese,F.
     Approximate second-order SCF convergence for spin unrestricted wavefunctions
     Chem. Phys. Lett., 2000 325(1-3)93-98
     doi.org/10.1016/s0009-2614(00)00662-x

Timings for individual modules:

Sum of individual times          ...      607.563 sec (=  10.126 min)
Startup calculation              ...       11.999 sec (=   0.200 min)   2.0 %
SCF iterations                   ...      593.661 sec (=   9.894 min)  97.7 %
Property calculations            ...        1.903 sec (=   0.032 min)   0.3 %
                             ****ORCA TERMINATED NORMALLY****
TOTAL RUN TIME: 0 days 0 hours 10 minutes 10 seconds 64 msec
