 vasp.6.4.2 20Jul23 (build Sep 06 2024 14:39:43) complex                        
  
 executed on             LinuxIFC date 2025.09.09  23:48:11
 running   60 mpi-ranks, on    6 nodes
 distrk:  each k-point on   60 cores,    1 groups
 distr:  one band on NCORE=  10 cores,    6 groups


--------------------------------------------------------------------------------------------------------


 INCAR:
   SYSTEM = 103_red
   ISTART = 1
   ICHARG = 2
   INIWAV = 1
   LHFCALC = .TRUE.
   HFSCREEN = 0.2
   NELM = 500
   ALGO = Damped
   ISPIN = 2
   EDIFF = 1E-05
   ISMEAR = 0
   SIGMA = 0.05
   PREC = accurate
   ENCUT = 500
   LREAL = auto  	
   LDIAG = .FALSE.
   LWAVE = .TRUE.
   LCHARG = .FALSE.
   LAECHG = .FALSE.
   LVHAR = .FALSE.
   LVTOT = .FALSE.
   EDIFFG = -0.02
   IBRION = 2
   NSW = 0
   ISIF = 2
   POTIM = 0.5
   IVDW = 12
   VDW_A1 = 0.383
   VDW_S8 = 2.310
   VDW_A2 = 5.685
   LPLANE = .TRUE.
   NCORE = 10
   LSCALU = .FALSE.
   NSIM = 4
   LSOL = .TRUE.
   EB_K = 35.6880
   LAMBDA_D_K = 3.04
   NELECT = 29
   TAU = 0

 POTCAR:    PAW_PBE C 08Apr2002                   
 POTCAR:    PAW_PBE N 08Apr2002                   
 POTCAR:    PAW_PBE H 15Jun2001                   
 -----------------------------------------------------------------------------
|                                                                             |
|           W    W    AA    RRRRR   N    N  II  N    N   GGGG   !!!           |
|           W    W   A  A   R    R  NN   N  II  NN   N  G    G  !!!           |
|           W    W  A    A  R    R  N N  N  II  N N  N  G       !!!           |
|           W WW W  AAAAAA  RRRRR   N  N N  II  N  N N  G  GGG   !            |
|           WW  WW  A    A  R   R   N   NN  II  N   NN  G    G                |
|           W    W  A    A  R    R  N    N  II  N    N   GGGG   !!!           |
|                                                                             |
|     You use a magnetic or noncollinear calculation, but did not specify     |
|     the initial magnetic moment with the MAGMOM tag. Note that a            |
|     default of 1 will be used for all atoms. This ferromagnetic setup       |
|     may break the symmetry of the crystal, in particular it may rule        |
|     out finding an antiferromagnetic solution. Thence, we recommend         |
|     setting the initial magnetic moment manually or verifying carefully     |
|     that this magnetic setup is desired.                                    |
|                                                                             |
 -----------------------------------------------------------------------------

 POTCAR:    PAW_PBE C 08Apr2002                   
   SHA256 =  253f7b50bb8d59471dbedb8285d89021f4a42ed1a2c5d38a03a736e69125dd95 C/POTCAR              
   COPYR  = (c) Copyright 08Apr2002 Georg Kresse                                                    
   COPYR  = This file is part of the software VASP. Any use, copying, and all other rights are regul
   COPYR  = If you do not have a valid VASP license, you may not use, copy or distribute this file. 
   VRHFIN =C: s2p2                                                                                  
   LEXCH  = PE                                                                                      
   EATOM  =   147.1560 eV,   10.8157 Ry                                                             
                                                                                                    
   TITEL  = PAW_PBE C 08Apr2002                                                                     
   LULTRA =        F    use ultrasoft PP ?                                                          
   IUNSCR =        1    unscreen: 0-lin 1-nonlin 2-no                                               
   RPACOR =    1.200    partial core radius                                                         
   POMASS =   12.011; ZVAL   =    4.000    mass and valenz                                          
   RCORE  =    1.500    outmost cutoff radius                                                       
   RWIGS  =    1.630; RWIGS  =    0.863    wigner-seitz radius (au A)                               
   ENMAX  =  400.000; ENMIN  =  300.000 eV                                                          
   ICORE  =        2    local potential                                                             
   LCOR   =        T    correct aug charges                                                         
   LPAW   =        T    paw PP                                                                      
   EAUG   =  644.873                                                                                
   DEXC   =    0.000                                                                                
   RMAX   =    1.529    core radius for proj-oper                                                   
   RAUG   =    1.300    factor for augmentation sphere                                              
   RDEP   =    1.501    radius for radial grids                                                     
   RDEPT  =    1.300    core radius for aug-charge                                                  
                                                                                                    
   Atomic configuration                                                                             
    4 entries                                                                                       
     n  l   j            E        occ.                                                              
     1  0  0.50      -273.3789   2.0000                                                             
     2  0  0.50       -13.7508   2.0000                                                             
     2  1  0.50        -5.2854   2.0000                                                             
     3  2  1.50        -5.4423   0.0000                                                             
   Description                                                                                      
     l       E           TYP  RCUT    TYP  RCUT                                                     
     0    -13.7508458     23  1.200                                                                 
     0     -8.2022199     23  1.200                                                                 
     1     -5.2854383     23  1.500                                                                 
     1     34.0145650     23  1.500                                                                 
     2     -5.4423304      7  1.500                                                                 
  local pseudopotential read in
  partial core-charges read in
  partial kinetic energy density read in
  atomic valenz-charges read in
  non local Contribution for L=           0  read in
    real space projection operators read in
  non local Contribution for L=           0  read in
    real space projection operators read in
  non local Contribution for L=           1  read in
    real space projection operators read in
  non local Contribution for L=           1  read in
    real space projection operators read in
    PAW grid and wavefunctions read in
 
   number of l-projection  operators is LMAX  =           4
   number of lm-projection operators is LMMAX =           8
 
 POTCAR:    PAW_PBE N 08Apr2002                   
   SHA256 =  e053789ff3a61a86a1b75d8a110fcc91f86041011e7b0817c7c99e4e8a6349d7 N/POTCAR              
   COPYR  = (c) Copyright 08Apr2002 Georg Kresse                                                    
   COPYR  = This file is part of the software VASP. Any use, copying, and all other rights are regul
   COPYR  = If you do not have a valid VASP license, you may not use, copy or distribute this file. 
   VRHFIN =N: s2p3                                                                                  
   LEXCH  = PE                                                                                      
   EATOM  =   264.5486 eV,   19.4438 Ry                                                             
                                                                                                    
   TITEL  = PAW_PBE N 08Apr2002                                                                     
   LULTRA =        F    use ultrasoft PP ?                                                          
   IUNSCR =        1    unscreen: 0-lin 1-nonlin 2-no                                               
   RPACOR =    1.200    partial core radius                                                         
   POMASS =   14.001; ZVAL   =    5.000    mass and valenz                                          
   RCORE  =    1.500    outmost cutoff radius                                                       
   RWIGS  =    1.400; RWIGS  =    0.741    wigner-seitz radius (au A)                               
   ENMAX  =  400.000; ENMIN  =  300.000 eV                                                          
   ICORE  =        2    local potential                                                             
   LCOR   =        T    correct aug charges                                                         
   LPAW   =        T    paw PP                                                                      
   EAUG   =  627.112                                                                                
   DEXC   =    0.000                                                                                
   RMAX   =    1.529    core radius for proj-oper                                                   
   RAUG   =    1.300    factor for augmentation sphere                                              
   RDEP   =    1.514    radius for radial grids                                                     
   RDEPT  =    1.338    core radius for aug-charge                                                  
                                                                                                    
   Atomic configuration                                                                             
    4 entries                                                                                       
     n  l   j            E        occ.                                                              
     1  0  0.50      -384.7179   2.0000                                                             
     2  0  0.50       -18.5828   2.0000                                                             
     2  1  0.50        -7.0898   3.0000                                                             
     3  2  1.50        -6.8029   0.0000                                                             
   Description                                                                                      
     l       E           TYP  RCUT    TYP  RCUT                                                     
     0    -18.5828119     23  1.200                                                                 
     0    -13.5018863     23  1.200                                                                 
     1     -7.0897853     23  1.500                                                                 
     1      9.5240782     23  1.500                                                                 
     2     -6.8029130      7  1.500                                                                 
  local pseudopotential read in
  partial core-charges read in
  partial kinetic energy density read in
  atomic valenz-charges read in
  non local Contribution for L=           0  read in
    real space projection operators read in
  non local Contribution for L=           0  read in
    real space projection operators read in
  non local Contribution for L=           1  read in
    real space projection operators read in
  non local Contribution for L=           1  read in
    real space projection operators read in
    PAW grid and wavefunctions read in
 
   number of l-projection  operators is LMAX  =           4
   number of lm-projection operators is LMMAX =           8
 
 POTCAR:    PAW_PBE H 15Jun2001                   
   SHA256 =  030f79b5d3ab3cf0e668861823c8fb652ff669f3e15e46930bd03bfd63a607b6 H/POTCAR              
   COPYR  = (c) Copyright 15Jun2001 Georg Kresse                                                    
   COPYR  = This file is part of the software VASP. Any use, copying, and all other rights are regul
   COPYR  = If you do not have a valid VASP license, you may not use, copy or distribute this file. 
   VRHFIN =H: ultrasoft test                                                                        
   LEXCH  = PE                                                                                      
   EATOM  =    12.4884 eV,    0.9179 Ry                                                             
                                                                                                    
   TITEL  = PAW_PBE H 15Jun2001                                                                     
   LULTRA =        F    use ultrasoft PP ?                                                          
   IUNSCR =        0    unscreen: 0-lin 1-nonlin 2-no                                               
   RPACOR =    0.000    partial core radius                                                         
   POMASS =    1.000; ZVAL   =    1.000    mass and valenz                                          
   RCORE  =    1.100    outmost cutoff radius                                                       
   RWIGS  =    0.700; RWIGS  =    0.370    wigner-seitz radius (au A)                               
   ENMAX  =  250.000; ENMIN  =  200.000 eV                                                          
   RCLOC  =    0.701    cutoff for local pot                                                        
   LCOR   =        T    correct aug charges                                                         
   LPAW   =        T    paw PP                                                                      
   EAUG   =  400.000                                                                                
   RMAX   =    1.123    core radius for proj-oper                                                   
   RAUG   =    1.200    factor for augmentation sphere                                              
   RDEP   =    1.112    radius for radial grids                                                     
   RDEPT  =    0.926    core radius for aug-charge                                                  
                                                                                                    
   Atomic configuration                                                                             
    2 entries                                                                                       
     n  l   j            E        occ.                                                              
     1  0  0.50        -6.4927   1.0000                                                             
     2  1  0.50        -3.4015   0.0000                                                             
   Description                                                                                      
     l       E           TYP  RCUT    TYP  RCUT                                                     
     0     -6.4927494     23  1.100                                                                 
     0      6.8029130     23  1.100                                                                 
     1     -4.0817478     23  1.100                                                                 
  local pseudopotential read in
  atomic valenz-charges read in
  non local Contribution for L=           0  read in
    real space projection operators read in
  non local Contribution for L=           0  read in
    real space projection operators read in
  non local Contribution for L=           1  read in
    real space projection operators read in
    PAW grid and wavefunctions read in
 
   number of l-projection  operators is LMAX  =           3
   number of lm-projection operators is LMMAX =           5
 
 Optimization of the real space projectors (new method)

 maximal supplied QI-value         = 25.13
 optimisation between [QCUT,QGAM] = [ 11.31, 22.87] = [ 35.82,146.48] Ry 
 Optimized for a Real-space Cutoff    1.03 Angstroem

   l    n(q)    QCUT    max X(q) W(low)/X(q) W(high)/X(q)  e(spline) 
   0      7    11.310   115.676    0.20E-03    0.90E-03    0.20E-06
   0      7    11.310    87.132    0.20E-03    0.89E-03    0.19E-06
   1      6    11.310     4.429    0.16E-03    0.28E-03    0.12E-06
   1      6    11.310     2.733    0.12E-03    0.21E-03    0.99E-07
 Optimization of the real space projectors (new method)

 maximal supplied QI-value         = 25.13
 optimisation between [QCUT,QGAM] = [ 11.31, 22.87] = [ 35.82,146.48] Ry 
 Optimized for a Real-space Cutoff    1.43 Angstroem

   l    n(q)    QCUT    max X(q) W(low)/X(q) W(high)/X(q)  e(spline) 
   0     10    11.310    79.467    0.42E-04    0.81E-04    0.60E-06
   0     10    11.310    66.151    0.40E-04    0.81E-04    0.60E-06
   1      9    11.310    17.416    0.14E-03    0.88E-04    0.14E-05
   1      9    11.310    12.382    0.15E-03    0.93E-04    0.14E-05
 Optimization of the real space projectors (new method)

 maximal supplied QI-value         = 34.20
 optimisation between [QCUT,QGAM] = [ 11.29, 22.57] = [ 35.68,142.71] Ry 
 Optimized for a Real-space Cutoff    1.20 Angstroem

   l    n(q)    QCUT    max X(q) W(low)/X(q) W(high)/X(q)  e(spline) 
   0      8    11.287    19.460    0.22E-03    0.50E-03    0.19E-06
   0      8    11.287    12.209    0.21E-03    0.48E-03    0.18E-06
   1      8    11.287     4.655    0.21E-03    0.11E-04    0.26E-06
  PAW_PBE C 08Apr2002                   :
 energy of atom  1       EATOM= -147.1560
 kinetic energy error for atom=    0.0076 (will be added to EATOM!!)
  PAW_PBE N 08Apr2002                   :
 energy of atom  2       EATOM= -264.5486
 kinetic energy error for atom=    0.0138 (will be added to EATOM!!)
  PAW_PBE H 15Jun2001                   :
 energy of atom  3       EATOM=  -12.4884
 kinetic energy error for atom=    0.0020 (will be added to EATOM!!)
 
 
 POSCAR: C N H
  positions in direct lattice
  velocities in cartesian coordinates
 exchange correlation table for  LEXCH =        8
   RHO(1)=    0.500       N(1)  =     2000
   RHO(2)=  100.500       N(2)  =     4000
 


--------------------------------------------------------------------------------------------------------


 ion  position               nearest neighbor table
   1  0.513  0.470  0.500-  14 1.11  13 1.11   5 1.43   4 1.54
   2  0.513  0.530  0.500-  12 1.11  11 1.11   5 1.43   3 1.54
   3  0.476  0.519  0.500-   9 1.10  10 1.10   2 1.54   4 1.55
   4  0.476  0.481  0.500-   8 1.10   7 1.10   1 1.54   3 1.55
   5  0.532  0.500  0.501-   6 1.02   1 1.43   2 1.43
   6  0.557  0.500  0.502-   5 1.02
   7  0.464  0.471  0.523-   4 1.10
   8  0.463  0.470  0.479-   4 1.10
   9  0.463  0.529  0.523-   3 1.10
  10  0.463  0.529  0.478-   3 1.10
  11  0.520  0.544  0.477-   2 1.11
  12  0.521  0.547  0.521-   2 1.11
  13  0.520  0.456  0.477-   1 1.11
  14  0.521  0.453  0.520-   1 1.11
 
  LATTYP: Found a simple cubic cell.
 ALAT       =    40.0000000000
  
  Lattice vectors:
  
 A1 = (  40.0000000000,   0.0000000000,   0.0000000000)
 A2 = (   0.0000000000,  40.0000000000,   0.0000000000)
 A3 = (   0.0000000000,   0.0000000000,  40.0000000000)


Analysis of symmetry for initial positions (statically):
=====================================================================
 Subroutine PRICEL returns:
 Original cell was already a primitive cell.
 

 Routine SETGRP: Setting up the symmetry group for a 
 simple cubic supercell.


 Subroutine GETGRP returns: Found  1 space group operations
 (whereof  1 operations were pure point group operations)
 out of a pool of 48 trial point group operations.


The static configuration has the point symmetry C_1 .


Analysis of symmetry for dynamics (positions and initial velocities):
=====================================================================
 Subroutine PRICEL returns:
 Original cell was already a primitive cell.
 

 Routine SETGRP: Setting up the symmetry group for a 
 simple cubic supercell.


 Subroutine GETGRP returns: Found  1 space group operations
 (whereof  1 operations were pure point group operations)
 out of a pool of 48 trial point group operations.


The dynamic configuration has the point symmetry C_1 .


Analysis of constrained symmetry for selective dynamics:
=====================================================================
 Subroutine PRICEL returns:
 Original cell was already a primitive cell.
 

 Routine SETGRP: Setting up the symmetry group for a 
 simple cubic supercell.


 Subroutine GETGRP returns: Found  1 space group operations
 (whereof  1 operations were pure point group operations)
 out of a pool of 48 trial point group operations.


The constrained configuration has the point symmetry C_1 .


Analysis of structural, dynamic, and magnetic symmetry:
=====================================================================
 Subroutine PRICEL returns:
 Original cell was already a primitive cell.
 

 Routine SETGRP: Setting up the symmetry group for a 
 simple cubic supercell.


 Subroutine GETGRP returns: Found  1 space group operations
 (whereof  1 operations were pure point group operations)
 out of a pool of 48 trial point group operations.


The overall configuration has the point symmetry C_1 .


 Subroutine INISYM returns: Found  1 space group operations
 (whereof  1 operations are pure point group operations),
 and found     1 'primitive' translations


----------------------------------------------------------------------------------------

                                     Primitive cell                                     

  volume of cell :   64000.0000

  direct lattice vectors                    reciprocal lattice vectors
    40.000000000  0.000000000  0.000000000     0.025000000  0.000000000  0.000000000
     0.000000000 40.000000000  0.000000000     0.000000000  0.025000000  0.000000000
     0.000000000  0.000000000 40.000000000     0.000000000  0.000000000  0.025000000

  length of vectors
    40.000000000 40.000000000 40.000000000     0.025000000  0.025000000  0.025000000

  position of ions in fractional coordinates (direct lattice)
     0.512726010  0.469874600  0.499639674
     0.512716857  0.530129587  0.499705361
     0.475820478  0.519431242  0.500268603
     0.475833595  0.480556996  0.500346904
     0.531733807  0.500002485  0.501023599
     0.557309144  0.500005575  0.502124885
     0.463624172  0.470705473  0.522802531
     0.462589659  0.470476426  0.478597826
     0.463479928  0.529377581  0.522609185
     0.462704569  0.529419570  0.478392337
     0.520197898  0.543955238  0.476871513
     0.520525613  0.546557018  0.520527096
     0.520145167  0.456148445  0.476725016
     0.520594103  0.453362766  0.520364470

  ion indices of the primitive-cell ions
   primitive index   ion index
                 1           1
                 2           2
                 3           3
                 4           4
                 5           5
                 6           6
                 7           7
                 8           8
                 9           9
                10          10
                11          11
                12          12
                13          13
                14          14

----------------------------------------------------------------------------------------

 
 
 KPOINTS: K-Point Grid                            

Automatic generation of k-mesh.
 Grid dimensions read from file:
 generate k-points for:    1    1    1

 Generating k-lattice:

  Cartesian coordinates                     Fractional coordinates (reciprocal lattice)
     0.025000000  0.000000000  0.000000000     1.000000000  0.000000000  0.000000000
     0.000000000  0.025000000  0.000000000     0.000000000  1.000000000  0.000000000
     0.000000000  0.000000000  0.025000000     0.000000000  0.000000000  1.000000000

  Length of vectors
     0.025000000  0.025000000  0.025000000

  Shift w.r.t. Gamma in fractional coordinates (k-lattice)
     0.000000000  0.000000000  0.000000000

 
 Subroutine IBZKPT returns following result:
 ===========================================
 
 Found      1 irreducible k-points:
 
 Following reciprocal coordinates:
            Coordinates               Weight
  0.000000  0.000000  0.000000      1.000000
 
 Following cartesian coordinates:
            Coordinates               Weight
  0.000000  0.000000  0.000000      1.000000
 
 
 Subroutine IBZKPT_HF returns following result:
 ==============================================
 
 Found      1 k-points in 1st BZ
 the following      1 k-points will be used (e.g. in the exchange kernel)
 Following reciprocal coordinates:   # in IRBZ
  0.000000  0.000000  0.000000    1.00000000   1 t-inv F


--------------------------------------------------------------------------------------------------------




 Dimension of arrays:
   k-points           NKPTS =      1   k-points in BZ     NKDIM =      1   number of bands    NBANDS=     30
   number of dos      NEDOS =    301   number of ions     NIONS =     14
   non local maximal  LDIM  =      4   non local SUM 2l+1 LMDIM =      8
   total plane-waves  NPLWV = ******
   max r-space proj   IRMAX =   4928   max aug-charges    IRDMAX=   5085
   dimension x,y,z NGX =   294 NGY =  294 NGZ =  294
   dimension x,y,z NGXF=   588 NGYF=  588 NGZF=  588
   support grid    NGXF=   588 NGYF=  588 NGZF=  588
   ions per type =               4   1   9
   NGX,Y,Z   is equivalent  to a cutoff of  12.22, 12.22, 12.22 a.u.
   NGXF,Y,Z  is equivalent  to a cutoff of  24.44, 24.44, 24.44 a.u.

 SYSTEM =  103_red                                 
 POSCAR =  C N H                                   

 Startparameter for this run:
   NWRITE =      2    write-flag & timer
   PREC   = accura    normal or accurate (medium, high low for compatibility)
   ISTART =      0    job   : 0-new  1-cont  2-samecut
   ICHARG =      2    charge: 1-file 2-atom 10-const
   ISPIN  =      2    spin polarized calculation?
   LNONCOLLINEAR =      F non collinear calculations
   LSORBIT =      F    spin-orbit coupling
   INIWAV =      1    electr: 0-lowe 1-rand  2-diag
   LASPH  =      F    aspherical Exc in radial PAW
 Electronic Relaxation 1
   ENCUT  =  500.0 eV  36.75 Ry    6.06 a.u.  72.93 72.93 72.93*2*pi/ulx,y,z
   ENINI  =  500.0     initial cutoff
   ENAUG  =  644.9 eV  augmentation charge cutoff
   NELM   =    500;   NELMIN=  2; NELMDL=  0     # of ELM steps 
   EDIFF  = 0.1E-04   stopping-criterion for ELM
   LREAL  =      T    real-space projection
   NLSPLINE    = F    spline interpolate recip. space projectors
   LCOMPAT=      F    compatible to vasp.4.4
   GGA_COMPAT  = T    GGA compatible to vasp.4.4-vasp.4.6
   LMAXPAW     = -100 max onsite density
   LMAXMIX     =    2 max onsite mixed and CHGCAR
   VOSKOWN=      0    Vosko Wilk Nusair interpolation
   ROPT   =   -0.00025  -0.00025  -0.00025
 Ionic relaxation
   EDIFFG = -.2E-01   stopping-criterion for IOM
   NSW    =      0    number of steps for IOM
   NBLOCK =      1;   KBLOCK =      1    inner block; outer block 
   IBRION =     -1    ionic relax: 0-MD 1-quasi-New 2-CG
   NFREE  =      1    steps in history (QN), initial steepest desc. (CG)
   ISIF   =      2    stress and relaxation
   IWAVPR =     10    prediction:  0-non 1-charg 2-wave 3-comb
   ISYM   =      3    0-nonsym 1-usesym 2-fastsym
   LCORR  =      T    Harris-Foulkes like correction to forces

   POTIM  = 0.5000    time-step for ionic-motion
   TEIN   =    0.0    initial temperature
   TEBEG  =    0.0;   TEEND  =   0.0 temperature during run
   SMASS  =  -3.00    Nose mass-parameter (am)
   estimated Nose-frequenzy (Omega)   =  0.10E-29 period in steps = 0.13E+47 mass=  -0.366E-25a.u.
   SCALEE = 1.0000    scale energy and forces
   NPACO  =    256;   APACO  = 10.0  distance and # of slots for P.C.
   PSTRESS=    0.0 pullay stress

  Mass of Ions in am
   POMASS =  12.01 14.00  1.00
  Ionic Valenz
   ZVAL   =   4.00  5.00  1.00
  Atomic Wigner-Seitz radii
   RWIGS  =  -1.00 -1.00 -1.00
  virtual crystal weights 
   VCA    =   1.00  1.00  1.00
   NELECT =      29.0000    total number of electrons
   NUPDOWN=      -1.0000    fix difference up-down

 DOS related values:
   EMIN   =  10.00;   EMAX   =-10.00  energy-range for DOS
   EFERMI =   0.00;   METHOD = LEGACY      
   ISMEAR =     0;   SIGMA  =   0.05  broadening in eV -4-tet -1-fermi 0-gaus

 Electronic relaxation 2 (details)
   IALGO  =     53    algorithm
   LDIAG  =      F    sub-space diagonalisation (order eigenvalues)
   LSUBROT=      F    optimize rotation matrix (better conditioning)
   TURBO    =      0    0=normal 1=particle mesh
   IRESTART =      0    0=no restart 2=restart with 2 vectors
   NREBOOT  =      0    no. of reboots
   NMIN     =      0    reboot dimension
   EREF     =   0.00    reference energy to select bands
   IMIX   =      4    mixing-type and parameters
     AMIX     =   0.40;   BMIX     =  1.00
     AMIX_MAG =   1.60;   BMIX_MAG =  1.00
     AMIN     =   0.10
     WC   =   100.;   INIMIX=   1;  MIXPRE=   1;  MAXMIX= -45

 Intra band minimization:
   WEIMIN = 0.0000     energy-eigenvalue tresh-hold
   EBREAK =  0.83E-07  absolut break condition
   DEPER  =   0.30     relativ break condition  

   TIME   =   0.40     timestep for ELM

  volume/ion in A,a.u.               =    4571.43     30849.52
  Fermi-wavevector in a.u.,A,eV,Ry     =   0.125742  0.237618  0.215123  0.015811
  Thomas-Fermi vector in A             =   0.756126
 
 Write flags
   LWAVE        =      T    write WAVECAR
   LDOWNSAMPLE  =      F    k-point downsampling of WAVECAR
   LCHARG       =      F    write CHGCAR
   LVTOT        =      F    write LOCPOT, total local potential
   LVHAR        =      F    write LOCPOT, Hartree potential only
   LELF         =      F    write electronic localiz. function (ELF)
   LORBIT       =      0    0 simple, 1 ext, 2 COOP (PROOUT), +10 PAW based schemes


 Dipole corrections
   LMONO  =      F    monopole corrections only (constant potential shift)
   LDIPOL =      F    correct potential (dipole corrections)
   IDIPOL =      0    1-x, 2-y, 3-z, 4-all directions 
   EPSILON=  1.0000000 bulk dielectric constant

 Exchange correlation treatment:
   GGA     =    --    GGA type
   LEXCH   =     8    internal setting for exchange type
   LIBXC   =     F    Libxc                    
   VOSKOWN =     0    Vosko Wilk Nusair interpolation
   EXXOEP  =     0    0=HF, 1=EXX-LHF (local Hartree Fock) 2=EXX OEP
   LHFCALC =     T    Hartree Fock is set to
   LSYMGRAD=     F    symmetrize gradient (conserves proper symmetry)
   PRECFOCK=normal    Normal, Fast or Accurate (Low or Medium for compatibility)
   LRHFCALC=     F    long range Hartree Fock
   LRSCOR  =     F    long range correlation only (use DFT for short range part)
   LTHOMAS =     F    Thomas Fermi screening in HF
   LMODELHF=     F    short range full HF, long range fraction AEXX
   FOCKCORR=     1    mode to apply convergence corrections
   LFOCKACE=     F    use Adeptively-Compressed-Exchange operator
   ENCUT4O =  -1.0   cutoff for four orbital integrals eV
   LMAXFOCK=     4    L truncation for augmentation on plane wave grid
   LMAXFOCKAE=  -1    L truncation for all-electron charge restoration on plane wave grid
   NMAXFOCKAE=   1    number of basis functions for all-electron charge restoration
   LFOCKAEDFT=     F  apply the AE augmentation even for DFT
   NKREDX  =     1    reduce k-point grid by
   NKREDY  =     1    reduce k-point grid by
   NKREDZ  =     1    reduce k-point grid by
   SHIFTRED=     F    shift reduced grid of Gamma
   HFKIDENT=     F    idential grid for each k-point
   ODDONLY =     F    use only odd q-grid points
   EVENONLY=     F    use only even q-grid points
   HFALPHA =   -1.0000 decay constant for conv. correction
   MCALPHA =    0.0000 extent of test-charge in conv. correction in multipole expansion
   AEXX    =    0.2500 exact exchange contribution
   HFSCREEN=    0.2000 screening length (either q_TF or 0.3 A-1)
   HFSCREENC=   0.2000 screening length for correlation (either q_TF or 0.3 A-1)
   HFRCUT  =    0.0000 spherical cutoff for potential kernel
   ALDAX   =    0.7500 LDA exchange part
   AGGAX   =    0.7500 GGA exchange part
   ALDAC   =    1.0000 LDA correlation
   AGGAC   =    1.0000 GGA correlation
   ENCUTFOCK=  -1.0 apply spherical cutoff to Coloumb kernel
   NBANDSGWLOW=     1    first orbital included in HF term
   NBLOCK_FOCK=    64    blocking factor in FOCK_ACC

 Linear response parameters
   LEPSILON=     F    determine dielectric tensor
   LRPA    =     F    only Hartree local field effects (RPA)
   LNABLA  =     F    use nabla operator in PAW spheres
   LVEL    =     F    velocity operator in full k-point grid
   CSHIFT  =0.1000    complex shift for real part using Kramers Kronig
   OMEGAMAX=  -1.0    maximum frequency
   DEG_THRESHOLD= 0.2000000E-02 threshold for treating states as degnerate
   RTIME   =   -0.100 relaxation time in fs
  (WPLASMAI=    0.000 imaginary part of plasma frequency in eV, 0.658/RTIME)
   DFIELD  = 0.0000000 0.0000000 0.0000000 field for delta impulse in time
 
  Optional k-point grid parameters
   LKPOINTS_OPT  =     F    use optional k-point grid
   KPOINTS_OPT_MODE=     1    mode for optional k-point grid
 
 Orbital magnetization related:
   ORBITALMAG=     F  switch on orbital magnetization
   LCHIMAG   =     F  perturbation theory with respect to B field
   DQ        =  0.001000  dq finite difference perturbation B field
   LLRAUG    =     F  two centre corrections for induced B field
   LBONE     =     F  B-component reconstruction in AE one-centre
   LVGVCALC  =     T  calculate vGv susceptibility
   LVGVAPPL  =     F  apply vGv susceptibility instead of pGv for G=0

 Random number generation:
   RANDOM_GENERATOR = DEFAULT
   PCG_SEED         = not used
 Solvation model:
   LSOL    =     T         switch on solvation model
   EB_K    = 35.688000     relative permittivity of the bulk solvent
   SIGMA_K =  0.600000     width of the dielectric cavity
   NC_K    =  0.002500     cutoff charge density
   TAU     =  0.000000     cavity surface tension
   LAMBDA_D_K    =  3.040000     Debye length in Angstroms
   LRHOB     =     F     write boundcharge  density
   LRHOION     =     F     write ioniccharge density



--------------------------------------------------------------------------------------------------------


 Static calculation
 charge density and potential will be updated during run
 spin polarized calculation
 Conjugate gradient for all bands (Kresse, et al. variant)
 perform Loewdin sub-space diagonalisation
    ordering is kept fixed
    before iterative eigenvector-optimisation
 modified Broyden-mixing scheme, WC =      100.0
 initial mixing is a Kerker type mixing with AMIX =  0.4000 and BMIX =      1.0000
 Hartree-type preconditioning will be used
 using additional bands           15
 real space projection scheme for non local part
 use partial core corrections
 no Harris-corrections to forces 
 use gradient corrections 
 use of overlap-Matrix (Vanderbilt PP)
 Gauss-broadening in eV      SIGMA  =   0.05


--------------------------------------------------------------------------------------------------------


  energy-cutoff  :      500.00
  volume of cell :    64000.00
      direct lattice vectors                 reciprocal lattice vectors
    40.000000000  0.000000000  0.000000000     0.025000000  0.000000000  0.000000000
     0.000000000 40.000000000  0.000000000     0.000000000  0.025000000  0.000000000
     0.000000000  0.000000000 40.000000000     0.000000000  0.000000000  0.025000000

  length of vectors
    40.000000000 40.000000000 40.000000000     0.025000000  0.025000000  0.025000000


 
 k-points in units of 2pi/SCALE and weight: K-Point Grid                            
   0.00000000  0.00000000  0.00000000       1.000
 
 k-points in reciprocal lattice and weights: K-Point Grid                            
   0.00000000  0.00000000  0.00000000       1.000
 
 position of ions in fractional coordinates (direct lattice) 
   0.51272601  0.46987460  0.49963967
   0.51271686  0.53012959  0.49970536
   0.47582048  0.51943124  0.50026860
   0.47583360  0.48055700  0.50034690
   0.53173381  0.50000248  0.50102360
   0.55730914  0.50000557  0.50212488
   0.46362417  0.47070547  0.52280253
   0.46258966  0.47047643  0.47859783
   0.46347993  0.52937758  0.52260919
   0.46270457  0.52941957  0.47839234
   0.52019790  0.54395524  0.47687151
   0.52052561  0.54655702  0.52052710
   0.52014517  0.45614845  0.47672502
   0.52059410  0.45336277  0.52036447
 
 position of ions in cartesian coordinates  (Angst):
  20.50904039 18.79498401 19.98558696
  20.50867426 21.20518346 19.98821444
  19.03281910 20.77724968 20.01074411
  19.03334381 19.22227983 20.01387618
  21.26935227 20.00009939 20.04094398
  22.29236575 20.00022299 20.08499539
  18.54496690 18.82821891 20.91210125
  18.50358637 18.81905705 19.14391303
  18.53919711 21.17510322 20.90436740
  18.50818278 21.17678279 19.13569349
  20.80791594 21.75820950 19.07486051
  20.82102451 21.86228070 20.82108384
  20.80580667 18.24593781 19.06900065
  20.82376414 18.13451065 20.81457878
 


--------------------------------------------------------------------------------------------------------


 k-point   1 :   0.0000 0.0000 0.0000  plane waves: 1624525

 maximum and minimum number of plane-waves per node :    162473   162437

 maximum number of plane-waves:   1624525
 maximum index in each direction: 
   IXMAX=   72   IYMAX=   72   IZMAX=   72
   IXMIN=  -72   IYMIN=  -72   IZMIN=  -72


 real space projection operators:
  total allocation   :       1720.73 KBytes
  max/ min on nodes  :        184.28        163.71


 parallel 3D FFT for wavefunctions:
    minimum data exchange during FFTs selected (reduces bandwidth)
 parallel 3D FFT for charge:
    minimum data exchange during FFTs selected (reduces bandwidth)


 FFT grid for exact exchange (Hartree Fock) 
  NGX =224; NGY =224; NGZ =224

 
 Radii for the augmentation spheres in the non-local exchange
 for species   1 augmentation radius   0.874 (default was   0.699)
       energy cutoff for augmentation   2000.0
 for species   2 augmentation radius   0.886 (default was   0.709)
       energy cutoff for augmentation   2000.0
 for species   3 augmentation radius   0.650 (default was   0.520)
       energy cutoff for augmentation   2000.0

 real space projection operators:
  total allocation   :        300.52 KBytes
  max/ min on nodes  :         45.00         12.09

 Maximum index for augmentation-charges in exchange           76
  SETUP_FOCK is finished

 total amount of memory used by VASP MPI-rank0   882045. kBytes
=======================================================================

   base      :      30000. kBytes
   nonlr-proj:       1530. kBytes
   fftplans  :     259670. kBytes
   grid      :     512830. kBytes
   one-center:         12. kBytes
   HF        :          9. kBytes
   wavefun   :      77994. kBytes
 
     INWAV:  cpu time      0.0001: real time      0.0014
 Broyden mixing: mesh for mixing (old mesh)
   NGX =145   NGY =145   NGZ =145
  (NGX  =588   NGY  =588   NGZ  =588)
  gives a total of ****** points

 initial charge density was supplied:
 charge density of overlapping atoms calculated
 number of electron      30.0000000 magnetization      14.0000000
 charge density for first step will be calculated from the start-wavefunctions


--------------------------------------------------------------------------------------------------------


 Maximum index for non-local projection operator          512
 Maximum index for augmentation-charges          324 (set IRDMAX)


--------------------------------------------------------------------------------------------------------


 First call to EWALD:  gamma=   0.044
 Maximum number of real-space cells 3x 3x 3
 Maximum number of reciprocal cells 3x 3x 3

    FEWALD:  cpu time      0.2339: real time      0.2339


--------------------------------------- Ionic step        1  -------------------------------------------




--------------------------------------- Iteration      1(   1)  ---------------------------------------


    POTLOK:  cpu time    612.9966: real time    612.9947
    SETDIJ:  cpu time      0.0766: real time      0.0766
    TRIAL :  cpu time     21.7490: real time     21.7486
    CORREC:  cpu time      0.0037: real time      0.0037
    --------------------------------------------
      LOOP:  cpu time    634.8971: real time    634.8951

 eigenvalue-minimisations  :   120
 total energy-change (2. order) : 0.3339637E+03  (-0.1651400E+03)
 number of electron      30.0000000 magnetization      14.0000000
 augmentation part       30.0000000 magnetization      14.0000000

 Free energy of the ion-electron system (eV)
  ---------------------------------------------------
  alpha Z        PSCENC =         0.05888504
  Ewald energy   TEWEN  =      2435.88573766
  -Hartree energ DENC   =     -3058.71604402
  -exchange      EXHF   =         0.00000000
  -V(xc)+E(xc)   XCENC  =        97.65509917
  PAW double counting   =       654.52042397     -774.91388135
  entropy T*S    EENTRO =        -0.01845622
  eigenvalues    EBANDS =        33.51499217
  atomic energy  EATOM  =       951.41134137
  ---------------------------------------------------
  free energy    TOTEN  =       333.96371976 eV

  energy without entropy =      333.98217598  energy(sigma->0) =      333.97294787
  exchange ACFDT corr.  =         0.00000000  see jH, gK, PRB 81, 115126


--------------------------------------------------------------------------------------------------------




--------------------------------------- Iteration      1(   2)  ---------------------------------------


    TRIAL :  cpu time     34.7435: real time     34.7427
    CORREC:  cpu time      0.0038: real time      0.0038
    --------------------------------------------
      LOOP:  cpu time     34.7533: real time     34.7619

 eigenvalue-minimisations  :   240
 total energy-change (2. order) :-0.5108484E+02  (-0.5028998E+02)
 number of electron      30.0000000 magnetization      14.0000000
 augmentation part       30.0000000 magnetization      14.0000000

 Free energy of the ion-electron system (eV)
  ---------------------------------------------------
  alpha Z        PSCENC =         0.05888504
  Ewald energy   TEWEN  =      2435.88573766
  -Hartree energ DENC   =     -3058.71604402
  -exchange      EXHF   =         0.00000000
  -V(xc)+E(xc)   XCENC  =        97.65509917
  PAW double counting   =       654.52042397     -774.91388135
  entropy T*S    EENTRO =        -0.04129644
  eigenvalues    EBANDS =       -17.54700787
  atomic energy  EATOM  =       951.41134137
  ---------------------------------------------------
  free energy    TOTEN  =       282.87887950 eV

  energy without entropy =      282.92017594  energy(sigma->0) =      282.89952772
  exchange ACFDT corr.  =         0.00000000  see jH, gK, PRB 81, 115126


--------------------------------------------------------------------------------------------------------




--------------------------------------- Iteration      1(   3)  ---------------------------------------


    TRIAL :  cpu time     33.7183: real time     33.7174
    CORREC:  cpu time      0.0045: real time      0.0045
    --------------------------------------------
      LOOP:  cpu time     33.7293: real time     33.7324

 eigenvalue-minimisations  :   240
 total energy-change (2. order) :-0.7621953E+02  (-0.7335363E+02)
 number of electron      30.0000000 magnetization      14.0000000
 augmentation part       30.0000000 magnetization      14.0000000

 Free energy of the ion-electron system (eV)
  ---------------------------------------------------
  alpha Z        PSCENC =         0.05888504
  Ewald energy   TEWEN  =      2435.88573766
  -Hartree energ DENC   =     -3058.71604402
  -exchange      EXHF   =         0.00000000
  -V(xc)+E(xc)   XCENC  =        97.65509917
  PAW double counting   =       654.52042397     -774.91388135
  entropy T*S    EENTRO =        -0.05019863
  eigenvalues    EBANDS =       -93.75763549
  atomic energy  EATOM  =       951.41134137
  ---------------------------------------------------
  free energy    TOTEN  =       206.65934969 eV

  energy without entropy =      206.70954832  energy(sigma->0) =      206.68444901
  exchange ACFDT corr.  =         0.00000000  see jH, gK, PRB 81, 115126


--------------------------------------------------------------------------------------------------------




--------------------------------------- Iteration      1(   4)  ---------------------------------------


    TRIAL :  cpu time     35.7666: real time     35.7657
    CORREC:  cpu time      0.0024: real time      0.0024
    --------------------------------------------
      LOOP:  cpu time     35.7772: real time     35.7827

 eigenvalue-minimisations  :   240
 total energy-change (2. order) :-0.1087693E+03  (-0.1031998E+03)
 number of electron      30.0000000 magnetization      14.0000000
 augmentation part       30.0000000 magnetization      14.0000000

 Free energy of the ion-electron system (eV)
  ---------------------------------------------------
  alpha Z        PSCENC =         0.05888504
  Ewald energy   TEWEN  =      2435.88573766
  -Hartree energ DENC   =     -3058.71604402
  -exchange      EXHF   =         0.00000000
  -V(xc)+E(xc)   XCENC  =        97.65509917
  PAW double counting   =       654.52042397     -774.91388135
  entropy T*S    EENTRO =        -0.04446130
  eigenvalues    EBANDS =      -202.53270203
  atomic energy  EATOM  =       951.41134137
  ---------------------------------------------------
  free energy    TOTEN  =        97.89002049 eV

  energy without entropy =       97.93448178  energy(sigma->0) =       97.91225114
  exchange ACFDT corr.  =         0.00000000  see jH, gK, PRB 81, 115126


--------------------------------------------------------------------------------------------------------




--------------------------------------- Iteration      1(   5)  ---------------------------------------


    POTLOK:  cpu time     59.9208: real time     59.9193
    SETDIJ:  cpu time      0.2243: real time      0.2243
    TRIAL :  cpu time    516.3010: real time    516.2926
    CORREC:  cpu time      0.0037: real time      0.0037
    CHARGE:  cpu time      3.5604: real time      3.5603
    --------------------------------------------
      LOOP:  cpu time    580.0145: real time    580.0101

 eigenvalue-minimisations  :   240
 total energy-change (2. order) : 0.2251041E+02  (-0.9032365E+02)
 number of electron      29.0000001 magnetization       1.2449738
 augmentation part        0.1420460 magnetization       0.1659641

 Free energy of the ion-electron system (eV)
  ---------------------------------------------------
  alpha Z        PSCENC =         0.05888504
  Ewald energy   TEWEN  =      2435.88573766
  -Hartree energ DENC   =     -3058.71604402
  -exchange      EXHF   =        17.53870421
  -V(xc)+E(xc)   XCENC  =        75.08139700
  PAW double counting   =       672.64957346     -674.92306352
  entropy T*S    EENTRO =        -0.02788670
  eigenvalues    EBANDS =      -293.12383577
  atomic energy  EATOM  =       951.41134137
  ---------------------------------------------------
  free energy    TOTEN  =       120.40043071 eV

  energy without entropy =      120.42831741  energy(sigma->0) =      120.41437406
  exchange ACFDT corr.  =         0.00000000  see jH, gK, PRB 81, 115126


--------------------------------------------------------------------------------------------------------




--------------------------------------- Iteration      1(   6)  ---------------------------------------


    POTLOK:  cpu time    662.3813: real time    662.3693
    SETDIJ:  cpu time      0.1781: real time      0.1781
    TRIAL :  cpu time     97.1427: real time     97.1425
    CORREC:  cpu time      0.1885: real time      0.1885
    CHARGE:  cpu time      3.5391: real time      3.5390
    --------------------------------------------
      LOOP:  cpu time    763.4397: real time    763.4328

 eigenvalue-minimisations  :     0
 total energy-change (2. order) : 0.1243323E+03  (-0.8825078E+03)
 number of electron      29.0000001 magnetization       0.8111338
 augmentation part        0.2504107 magnetization       0.2103189

 Free energy of the ion-electron system (eV)
  ---------------------------------------------------
  alpha Z        PSCENC =         0.05888504
  Ewald energy   TEWEN  =      2435.88573766
  -Hartree energ DENC   =     -1035.19599125
  -exchange      EXHF   =        28.88947808
  -V(xc)+E(xc)   XCENC  =        40.29053369
  PAW double counting   =      1527.26835027    -1528.72488701
  entropy T*S    EENTRO =        -0.01644222
  eigenvalues    EBANDS =      -765.59488823
  atomic energy  EATOM  =       951.41134137
  ---------------------------------------------------
  free energy    TOTEN  =       244.73276051 eV

  energy without entropy =      244.74920273  energy(sigma->0) =      244.74098162
  exchange ACFDT corr.  =        -0.00178708  see jH, gK, PRB 81, 115126


--------------------------------------------------------------------------------------------------------




--------------------------------------- Iteration      1(   7)  ---------------------------------------


    POTLOK:  cpu time    665.6135: real time    665.6101
    SETDIJ:  cpu time      0.0841: real time      0.0841
    TRIAL :  cpu time     96.4064: real time     96.4100
    CORREC:  cpu time      0.0142: real time      0.0142
    CHARGE:  cpu time      3.4573: real time      3.4573
    --------------------------------------------
      LOOP:  cpu time    765.5848: real time    765.5901

 eigenvalue-minimisations  :     0
 total energy-change (2. order) : 0.8662509E+02  (-0.1922199E+04)
 number of electron      29.0000001 magnetization      -0.9879030
 augmentation part        0.4805608 magnetization       0.2139460

 Free energy of the ion-electron system (eV)
  ---------------------------------------------------
  alpha Z        PSCENC =         0.05888504
  Ewald energy   TEWEN  =      2435.88573766
  -Hartree energ DENC   =     -1316.25362573
  -exchange      EXHF   =        31.79537318
  -V(xc)+E(xc)   XCENC  =        45.84285585
  PAW double counting   =      1152.17587743    -1154.03079198
  entropy T*S    EENTRO =        -0.03177604
  eigenvalues    EBANDS =      -792.08752230
  atomic energy  EATOM  =       951.41134137
  ---------------------------------------------------
  free energy    TOTEN  =       331.35785227 eV

  energy without entropy =      331.38962832  energy(sigma->0) =      331.37374030
  exchange ACFDT corr.  =        -0.00114277  see jH, gK, PRB 81, 115126


--------------------------------------------------------------------------------------------------------




--------------------------------------- Iteration      1(   8)  ---------------------------------------


    POTLOK:  cpu time    665.8501: real time    665.8481
    SETDIJ:  cpu time      0.0878: real time      0.0878
    TRIAL :  cpu time     96.8589: real time     96.8604
    CORREC:  cpu time      0.1453: real time      0.1452
    CHARGE:  cpu time      3.2591: real time      3.2591
    --------------------------------------------
      LOOP:  cpu time    766.2064: real time    766.2123

 eigenvalue-minimisations  :     0
 total energy-change (2. order) :-0.1416030E+03  (-0.8432317E+03)
 number of electron      29.0000001 magnetization      -1.0000000
 augmentation part        0.5226136 magnetization       0.1889254

 Free energy of the ion-electron system (eV)
  ---------------------------------------------------
  alpha Z        PSCENC =         0.05888504
  Ewald energy   TEWEN  =      2435.88573766
  -Hartree energ DENC   =     -1638.25283200
  -exchange      EXHF   =        35.65606848
  -V(xc)+E(xc)   XCENC  =        50.12368059
  PAW double counting   =      1745.52422897    -1747.41184645
  entropy T*S    EENTRO =        -0.02688081
  eigenvalues    EBANDS =      -843.14590484
  atomic energy  EATOM  =       951.41134137
  ---------------------------------------------------
  free energy    TOTEN  =       189.75487519 eV

  energy without entropy =      189.78175600  energy(sigma->0) =      189.76831560
  exchange ACFDT corr.  =        -0.02194653  see jH, gK, PRB 81, 115126


--------------------------------------------------------------------------------------------------------




--------------------------------------- Iteration      1(   9)  ---------------------------------------


    POTLOK:  cpu time    683.4036: real time    683.4052
    SETDIJ:  cpu time      0.0866: real time      0.0866
    TRIAL :  cpu time     96.7541: real time     96.7549
    CORREC:  cpu time      0.0060: real time      0.0060
    CHARGE:  cpu time      4.2353: real time      4.2353
    --------------------------------------------
      LOOP:  cpu time    784.4972: real time    784.5061

 eigenvalue-minimisations  :     0
 total energy-change (2. order) :-0.1493038E+03  (-0.1817451E+03)
 number of electron      29.0000000 magnetization      -1.0000000
 augmentation part        0.5694640 magnetization       0.1484962

 Free energy of the ion-electron system (eV)
  ---------------------------------------------------
  alpha Z        PSCENC =         0.05888504
  Ewald energy   TEWEN  =      2435.88573766
  -Hartree energ DENC   =     -2263.67428034
  -exchange      EXHF   =        48.21206888
  -V(xc)+E(xc)   XCENC  =        61.37850540
  PAW double counting   =      2912.86925068    -2915.02735613
  entropy T*S    EENTRO =        -0.00000409
  eigenvalues    EBANDS =      -606.12238793
  atomic energy  EATOM  =       951.41134137
  ---------------------------------------------------
  free energy    TOTEN  =        40.45105413 eV

  energy without entropy =       40.45105822  energy(sigma->0) =       40.45105618
  exchange ACFDT corr.  =        -0.01236274  see jH, gK, PRB 81, 115126


--------------------------------------------------------------------------------------------------------




--------------------------------------- Iteration      1(  10)  ---------------------------------------


    POTLOK:  cpu time    654.7917: real time    654.7851
    SETDIJ:  cpu time      0.0857: real time      0.0857
    TRIAL :  cpu time     96.4613: real time     96.4612
    CORREC:  cpu time      0.0963: real time      0.0963
    CHARGE:  cpu time      3.9959: real time      3.9958
    --------------------------------------------
      LOOP:  cpu time    755.4481: real time    755.4472

 eigenvalue-minimisations  :     0
 total energy-change (2. order) :-0.6545174E+02  (-0.4634630E+02)
 number of electron      29.0000000 magnetization      -0.9999999
 augmentation part        0.5981014 magnetization       0.1131467

 Free energy of the ion-electron system (eV)
  ---------------------------------------------------
  alpha Z        PSCENC =         0.05888504
  Ewald energy   TEWEN  =      2435.88573766
  -Hartree energ DENC   =     -2632.69425416
  -exchange      EXHF   =        56.81812726
  -V(xc)+E(xc)   XCENC  =        68.37917767
  PAW double counting   =      3433.85924177    -3436.28188448
  entropy T*S    EENTRO =        -0.00000000
  eigenvalues    EBANDS =      -434.84366783
  atomic energy  EATOM  =       951.41134137
  ---------------------------------------------------
  free energy    TOTEN  =       -25.00068466 eV

  energy without entropy =      -25.00068466  energy(sigma->0) =      -25.00068466
  exchange ACFDT corr.  =        -0.00000142  see jH, gK, PRB 81, 115126


--------------------------------------------------------------------------------------------------------




--------------------------------------- Iteration      1(  11)  ---------------------------------------


    POTLOK:  cpu time    623.0114: real time    623.0000
    SETDIJ:  cpu time      0.0804: real time      0.0804
    TRIAL :  cpu time     95.1794: real time     95.1804
    CORREC:  cpu time      0.0050: real time      0.0050
    CHARGE:  cpu time      3.8027: real time      3.8028
    --------------------------------------------
      LOOP:  cpu time    722.0892: real time    722.0862

 eigenvalue-minimisations  :     0
 total energy-change (2. order) :-0.2346085E+02  (-0.2041148E+02)
 number of electron      29.0000000 magnetization      -0.9999999
 augmentation part        0.6293647 magnetization       0.0886454

 Free energy of the ion-electron system (eV)
  ---------------------------------------------------
  alpha Z        PSCENC =         0.05888504
  Ewald energy   TEWEN  =      2435.88573766
  -Hartree energ DENC   =     -2725.08196840
  -exchange      EXHF   =        59.07921613
  -V(xc)+E(xc)   XCENC  =        70.08007515
  PAW double counting   =      3188.66068855    -3191.18990464
  entropy T*S    EENTRO =        -0.00000000
  eigenvalues    EBANDS =      -440.18935475
  atomic energy  EATOM  =       951.41134137
  ---------------------------------------------------
  free energy    TOTEN  =       -48.46153699 eV

  energy without entropy =      -48.46153699  energy(sigma->0) =      -48.46153699
  exchange ACFDT corr.  =        -0.00000000  see jH, gK, PRB 81, 115126


--------------------------------------------------------------------------------------------------------




--------------------------------------- Iteration      1(  12)  ---------------------------------------


    POTLOK:  cpu time    631.3532: real time    631.3479
    SETDIJ:  cpu time      0.1410: real time      0.1410
    TRIAL :  cpu time     95.9716: real time     95.9714
    CORREC:  cpu time      0.0058: real time      0.0058
    CHARGE:  cpu time      4.7943: real time      4.7943
    --------------------------------------------
      LOOP:  cpu time    732.2816: real time    732.2830

 eigenvalue-minimisations  :     0
 total energy-change (2. order) :-0.1172847E+02  (-0.8216201E+01)
 number of electron      29.0000000 magnetization      -0.9999999
 augmentation part        0.6588337 magnetization       0.0715235

 Free energy of the ion-electron system (eV)
  ---------------------------------------------------
  alpha Z        PSCENC =         0.05888504
  Ewald energy   TEWEN  =      2435.88573766
  -Hartree energ DENC   =     -2752.10808084
  -exchange      EXHF   =        60.08339396
  -V(xc)+E(xc)   XCENC  =        70.77351667
  PAW double counting   =      2887.53656631    -2890.14960969
  entropy T*S    EENTRO =        -0.00000000
  eigenvalues    EBANDS =      -456.99953465
  atomic energy  EATOM  =       951.41134137
  ---------------------------------------------------
  free energy    TOTEN  =       -60.19000608 eV

  energy without entropy =      -60.19000608  energy(sigma->0) =      -60.19000608
  exchange ACFDT corr.  =         0.00000000  see jH, gK, PRB 81, 115126


--------------------------------------------------------------------------------------------------------




--------------------------------------- Iteration      1(  13)  ---------------------------------------


    POTLOK:  cpu time    601.3352: real time    601.3265
    SETDIJ:  cpu time      0.0815: real time      0.0814
    TRIAL :  cpu time     97.8828: real time     97.8835
    CORREC:  cpu time      0.0021: real time      0.0021
    CHARGE:  cpu time      3.4434: real time      3.4433
    --------------------------------------------
      LOOP:  cpu time    702.7576: real time    702.7552

 eigenvalue-minimisations  :     0
 total energy-change (2. order) :-0.4822557E+01  (-0.3541434E+01)
 number of electron      29.0000000 magnetization      -0.9999999
 augmentation part        0.6835070 magnetization       0.0572437

 Free energy of the ion-electron system (eV)
  ---------------------------------------------------
  alpha Z        PSCENC =         0.05888504
  Ewald energy   TEWEN  =      2435.88573766
  -Hartree energ DENC   =     -2761.62717996
  -exchange      EXHF   =        60.72809062
  -V(xc)+E(xc)   XCENC  =        71.29309223
  PAW double counting   =      2646.85472618    -2649.54628340
  entropy T*S    EENTRO =        -0.00000000
  eigenvalues    EBANDS =      -461.87616155
  atomic energy  EATOM  =       951.41134137
  ---------------------------------------------------
  free energy    TOTEN  =       -65.01256295 eV

  energy without entropy =      -65.01256295  energy(sigma->0) =      -65.01256295
  exchange ACFDT corr.  =        -0.00000000  see jH, gK, PRB 81, 115126


--------------------------------------------------------------------------------------------------------




--------------------------------------- Iteration      1(  14)  ---------------------------------------


    POTLOK:  cpu time    590.3241: real time    590.3127
    SETDIJ:  cpu time      0.0846: real time      0.0846
    TRIAL :  cpu time     99.2138: real time     99.2153
    CORREC:  cpu time      0.0031: real time      0.0031
    CHARGE:  cpu time      3.2879: real time      3.2879
    --------------------------------------------
      LOOP:  cpu time    692.9241: real time    692.9198

 eigenvalue-minimisations  :     0
 total energy-change (2. order) :-0.2395310E+01  (-0.2006033E+01)
 number of electron      29.0000000 magnetization      -0.6652050
 augmentation part        0.7074488 magnetization       0.0535615

 Free energy of the ion-electron system (eV)
  ---------------------------------------------------
  alpha Z        PSCENC =         0.05888504
  Ewald energy   TEWEN  =      2435.88573766
  -Hartree energ DENC   =     -2774.07763725
  -exchange      EXHF   =        61.28287351
  -V(xc)+E(xc)   XCENC  =        71.79257551
  PAW double counting   =      2496.31964323    -2499.07770312
  entropy T*S    EENTRO =        -0.01929659
  eigenvalues    EBANDS =      -459.69226404
  atomic energy  EATOM  =       951.41134137
  ---------------------------------------------------
  free energy    TOTEN  =       -67.40787341 eV

  energy without entropy =      -67.38857682  energy(sigma->0) =      -67.39822511
  exchange ACFDT corr.  =        -0.03033393  see jH, gK, PRB 81, 115126


--------------------------------------------------------------------------------------------------------




--------------------------------------- Iteration      1(  15)  ---------------------------------------


    POTLOK:  cpu time    582.8775: real time    582.8668
    SETDIJ:  cpu time      0.0904: real time      0.0904
    TRIAL :  cpu time     96.0969: real time     96.0946
    CORREC:  cpu time      0.0254: real time      0.0254
    CHARGE:  cpu time      3.4578: real time      3.4577
    --------------------------------------------
      LOOP:  cpu time    682.5565: real time    682.5490

 eigenvalue-minimisations  :     0
 total energy-change (2. order) :-0.2072835E+01  (-0.1047670E+02)
 number of electron      28.9999999 magnetization       1.0000000
 augmentation part        0.7769227 magnetization       0.0879457

 Free energy of the ion-electron system (eV)
  ---------------------------------------------------
  alpha Z        PSCENC =         0.05888504
  Ewald energy   TEWEN  =      2435.88573766
  -Hartree energ DENC   =     -2803.32018605
  -exchange      EXHF   =        61.82079871
  -V(xc)+E(xc)   XCENC  =        72.38094200
  PAW double counting   =      2416.37945658    -2419.19055672
  entropy T*S    EENTRO =        -0.00647454
  eigenvalues    EBANDS =      -454.09296364
  atomic energy  EATOM  =       951.41134137
  ---------------------------------------------------
  free energy    TOTEN  =       -69.48070828 eV

  energy without entropy =      -69.47423374  energy(sigma->0) =      -69.47747101
  exchange ACFDT corr.  =        -0.18658230  see jH, gK, PRB 81, 115126


--------------------------------------------------------------------------------------------------------




--------------------------------------- Iteration      1(  16)  ---------------------------------------


    POTLOK:  cpu time    610.7471: real time    610.7350
    SETDIJ:  cpu time      0.2653: real time      0.2653
    TRIAL :  cpu time     96.1810: real time     96.1793
    CORREC:  cpu time      0.0011: real time      0.0011
    CHARGE:  cpu time      3.4887: real time      3.4886
    --------------------------------------------
      LOOP:  cpu time    710.7030: real time    710.6941

 eigenvalue-minimisations  :     0
 total energy-change (2. order) :-0.7494258E+01  (-0.9072659E+01)
 number of electron      28.9999999 magnetization       1.0000000
 augmentation part        0.7730567 magnetization       0.0905126

 Free energy of the ion-electron system (eV)
  ---------------------------------------------------
  alpha Z        PSCENC =         0.05888504
  Ewald energy   TEWEN  =      2435.88573766
  -Hartree energ DENC   =     -3001.63892526
  -exchange      EXHF   =        64.81838897
  -V(xc)+E(xc)   XCENC  =        75.43444174
  PAW double counting   =      2459.07106898    -2462.01178267
  entropy T*S    EENTRO =        -0.00000000
  eigenvalues    EBANDS =      -400.91858908
  atomic energy  EATOM  =       951.41134137
  ---------------------------------------------------
  free energy    TOTEN  =       -76.97496632 eV

  energy without entropy =      -76.97496632  energy(sigma->0) =      -76.97496632
  exchange ACFDT corr.  =        -0.01097855  see jH, gK, PRB 81, 115126


--------------------------------------------------------------------------------------------------------




--------------------------------------- Iteration      1(  17)  ---------------------------------------


    POTLOK:  cpu time    619.7469: real time    619.7308
    SETDIJ:  cpu time      0.0843: real time      0.0843
    TRIAL :  cpu time     95.6566: real time     95.6541
    CORREC:  cpu time      0.1896: real time      0.1896
    CHARGE:  cpu time      3.2688: real time      3.2687
    --------------------------------------------
      LOOP:  cpu time    718.9543: real time    718.9425

 eigenvalue-minimisations  :     0
 total energy-change (2. order) :-0.3568917E+01  (-0.3161047E+01)
 number of electron      28.9999999 magnetization       1.0000000
 augmentation part        0.7712437 magnetization       0.0917883

 Free energy of the ion-electron system (eV)
  ---------------------------------------------------
  alpha Z        PSCENC =         0.05888504
  Ewald energy   TEWEN  =      2435.88573766
  -Hartree energ DENC   =     -3023.23747603
  -exchange      EXHF   =        64.89484896
  -V(xc)+E(xc)   XCENC  =        75.39101281
  PAW double counting   =      2423.65710986    -2426.55447177
  entropy T*S    EENTRO =        -0.00000000
  eigenvalues    EBANDS =      -421.70652587
  atomic energy  EATOM  =       951.41134137
  ---------------------------------------------------
  free energy    TOTEN  =       -80.54388367 eV

  energy without entropy =      -80.54388367  energy(sigma->0) =      -80.54388367
  exchange ACFDT corr.  =        -0.00000000  see jH, gK, PRB 81, 115126


--------------------------------------------------------------------------------------------------------




--------------------------------------- Iteration      1(  18)  ---------------------------------------


    POTLOK:  cpu time    602.5560: real time    602.5450
    SETDIJ:  cpu time      0.0820: real time      0.0820
    TRIAL :  cpu time     97.6291: real time     97.6266
    CORREC:  cpu time      0.3440: real time      0.3440
    CHARGE:  cpu time      2.9160: real time      2.9159
    --------------------------------------------
      LOOP:  cpu time    703.5525: real time    703.5451

 eigenvalue-minimisations  :     0
 total energy-change (2. order) :-0.2347289E+01  (-0.1747161E+01)
 number of electron      28.9999999 magnetization       0.9999999
 augmentation part        0.7767000 magnetization       0.0946322

 Free energy of the ion-electron system (eV)
  ---------------------------------------------------
  alpha Z        PSCENC =         0.05888504
  Ewald energy   TEWEN  =      2435.88573766
  -Hartree energ DENC   =     -3039.90769452
  -exchange      EXHF   =        65.08346604
  -V(xc)+E(xc)   XCENC  =        75.43335411
  PAW double counting   =      2402.88027661    -2405.74834664
  entropy T*S    EENTRO =        -0.00000000
  eigenvalues    EBANDS =      -434.49181333
  atomic energy  EATOM  =       951.41134137
  ---------------------------------------------------
  free energy    TOTEN  =       -82.89117253 eV

  energy without entropy =      -82.89117253  energy(sigma->0) =      -82.89117253
  exchange ACFDT corr.  =        -0.00000000  see jH, gK, PRB 81, 115126


--------------------------------------------------------------------------------------------------------




--------------------------------------- Iteration      1(  19)  ---------------------------------------


    POTLOK:  cpu time    575.4865: real time    575.4870
    SETDIJ:  cpu time      0.0892: real time      0.0893
    TRIAL :  cpu time     95.8873: real time     95.8874
    CORREC:  cpu time      0.1889: real time      0.1889
    CHARGE:  cpu time      4.4604: real time      4.4603
    --------------------------------------------
      LOOP:  cpu time    676.1252: real time    676.1318

 eigenvalue-minimisations  :     0
 total energy-change (2. order) :-0.1215910E+01  (-0.6951999E+00)
 number of electron      28.9999999 magnetization       0.9999999
 augmentation part        0.7832993 magnetization       0.0989586

 Free energy of the ion-electron system (eV)
  ---------------------------------------------------
  alpha Z        PSCENC =         0.05888504
  Ewald energy   TEWEN  =      2435.88573766
  -Hartree energ DENC   =     -3053.50569720
  -exchange      EXHF   =        65.45147383
  -V(xc)+E(xc)   XCENC  =        75.67028046
  PAW double counting   =      2398.13231502    -2401.00402174
  entropy T*S    EENTRO =        -0.00000000
  eigenvalues    EBANDS =      -434.01796001
  atomic energy  EATOM  =       951.41134137
  ---------------------------------------------------
  free energy    TOTEN  =       -84.10708213 eV

  energy without entropy =      -84.10708213  energy(sigma->0) =      -84.10708213
  exchange ACFDT corr.  =        -0.00000000  see jH, gK, PRB 81, 115126


--------------------------------------------------------------------------------------------------------




--------------------------------------- Iteration      1(  20)  ---------------------------------------


    POTLOK:  cpu time    578.9260: real time    578.9115
    SETDIJ:  cpu time      0.0821: real time      0.0820
    TRIAL :  cpu time     97.2528: real time     97.2503
    CORREC:  cpu time      0.0883: real time      0.0883
    CHARGE:  cpu time      4.2868: real time      4.2867
    --------------------------------------------
      LOOP:  cpu time    680.6445: real time    680.6336

 eigenvalue-minimisations  :     0
 total energy-change (2. order) :-0.4513938E+00  (-0.2121186E+00)
 number of electron      28.9999999 magnetization       0.9999999
 augmentation part        0.7882438 magnetization       0.1028376

 Free energy of the ion-electron system (eV)
  ---------------------------------------------------
  alpha Z        PSCENC =         0.05888504
  Ewald energy   TEWEN  =      2435.88573766
  -Hartree energ DENC   =     -3060.09753787
  -exchange      EXHF   =        65.72330921
  -V(xc)+E(xc)   XCENC  =        75.85860523
  PAW double counting   =      2397.51886115    -2400.40362223
  entropy T*S    EENTRO =        -0.00000000
  eigenvalues    EBANDS =      -430.76176528
  atomic energy  EATOM  =       951.41134137
  ---------------------------------------------------
  free energy    TOTEN  =       -84.55847596 eV

  energy without entropy =      -84.55847596  energy(sigma->0) =      -84.55847596
  exchange ACFDT corr.  =        -0.00000000  see jH, gK, PRB 81, 115126


--------------------------------------------------------------------------------------------------------




--------------------------------------- Iteration      1(  21)  ---------------------------------------


    POTLOK:  cpu time    578.8229: real time    578.8162
    SETDIJ:  cpu time      0.0830: real time      0.0830
    TRIAL :  cpu time     97.1205: real time     97.1187
    CORREC:  cpu time      0.1633: real time      0.1633
    CHARGE:  cpu time      3.4532: real time      3.4531
    --------------------------------------------
      LOOP:  cpu time    679.6583: real time    679.6584

 eigenvalue-minimisations  :     0
 total energy-change (2. order) :-0.1357841E+00  (-0.1100041E+00)
 number of electron      28.9999999 magnetization       0.9999999
 augmentation part        0.7908787 magnetization       0.1053108

 Free energy of the ion-electron system (eV)
  ---------------------------------------------------
  alpha Z        PSCENC =         0.05888504
  Ewald energy   TEWEN  =      2435.88573766
  -Hartree energ DENC   =     -3062.14146369
  -exchange      EXHF   =        65.85252023
  -V(xc)+E(xc)   XCENC  =        75.94543590
  PAW double counting   =      2396.92565856    -2399.82041126
  entropy T*S    EENTRO =        -0.00000000
  eigenvalues    EBANDS =      -429.12810032
  atomic energy  EATOM  =       951.41134137
  ---------------------------------------------------
  free energy    TOTEN  =       -84.69426008 eV

  energy without entropy =      -84.69426008  energy(sigma->0) =      -84.69426008
  exchange ACFDT corr.  =         0.00000000  see jH, gK, PRB 81, 115126


--------------------------------------------------------------------------------------------------------




--------------------------------------- Iteration      1(  22)  ---------------------------------------


    POTLOK:  cpu time    585.3612: real time    585.3458
    SETDIJ:  cpu time      0.1748: real time      0.1748
    TRIAL :  cpu time     98.5483: real time     98.5458
    CORREC:  cpu time      0.1180: real time      0.1180
    CHARGE:  cpu time      3.4700: real time      3.4700
    --------------------------------------------
      LOOP:  cpu time    687.6778: real time    687.6656

 eigenvalue-minimisations  :     0
 total energy-change (2. order) :-0.8455711E-01  (-0.7730691E-01)
 number of electron      28.9999999 magnetization       0.9999999
 augmentation part        0.7918981 magnetization       0.1067123

 Free energy of the ion-electron system (eV)
  ---------------------------------------------------
  alpha Z        PSCENC =         0.05888504
  Ewald energy   TEWEN  =      2435.88573766
  -Hartree energ DENC   =     -3062.31386478
  -exchange      EXHF   =        65.89841900
  -V(xc)+E(xc)   XCENC  =        75.96665023
  PAW double counting   =      2396.52518682    -2399.42432019
  entropy T*S    EENTRO =        -0.00000000
  eigenvalues    EBANDS =      -429.36623271
  atomic energy  EATOM  =       951.41134137
  ---------------------------------------------------
  free energy    TOTEN  =       -84.77881719 eV

  energy without entropy =      -84.77881719  energy(sigma->0) =      -84.77881719
  exchange ACFDT corr.  =         0.00000000  see jH, gK, PRB 81, 115126


--------------------------------------------------------------------------------------------------------




--------------------------------------- Iteration      1(  23)  ---------------------------------------


    POTLOK:  cpu time    577.7524: real time    577.7450
    SETDIJ:  cpu time      0.0891: real time      0.0891
    TRIAL :  cpu time     96.3823: real time     96.3860
    CORREC:  cpu time      0.1829: real time      0.1829
    CHARGE:  cpu time      3.6591: real time      3.6591
    --------------------------------------------
      LOOP:  cpu time    678.0814: real time    678.0833

 eigenvalue-minimisations  :     0
 total energy-change (2. order) :-0.6125964E-01  (-0.4461150E-01)
 number of electron      28.9999999 magnetization       0.9999999
 augmentation part        0.7925138 magnetization       0.1075385

 Free energy of the ion-electron system (eV)
  ---------------------------------------------------
  alpha Z        PSCENC =         0.05888504
  Ewald energy   TEWEN  =      2435.88573766
  -Hartree energ DENC   =     -3061.74433989
  -exchange      EXHF   =        65.90787997
  -V(xc)+E(xc)   XCENC  =        75.95944542
  PAW double counting   =      2397.02764531    -2399.92745386
  entropy T*S    EENTRO =        -0.00000000
  eigenvalues    EBANDS =      -430.33086764
  atomic energy  EATOM  =       951.41134137
  ---------------------------------------------------
  free energy    TOTEN  =       -84.84007683 eV

  energy without entropy =      -84.84007683  energy(sigma->0) =      -84.84007683
  exchange ACFDT corr.  =        -0.00000000  see jH, gK, PRB 81, 115126


--------------------------------------------------------------------------------------------------------




--------------------------------------- Iteration      1(  24)  ---------------------------------------


    POTLOK:  cpu time    563.9123: real time    563.9100
    SETDIJ:  cpu time      0.0845: real time      0.0845
    TRIAL :  cpu time     99.3200: real time     99.3182
    CORREC:  cpu time      0.0016: real time      0.0016
    CHARGE:  cpu time      3.8355: real time      3.8355
    --------------------------------------------
      LOOP:  cpu time    667.1641: real time    667.1656

 eigenvalue-minimisations  :     0
 total energy-change (2. order) :-0.3570924E-01  (-0.2296067E-01)
 number of electron      28.9999999 magnetization       0.9999999
 augmentation part        0.7930765 magnetization       0.1080482

 Free energy of the ion-electron system (eV)
  ---------------------------------------------------
  alpha Z        PSCENC =         0.05888504
  Ewald energy   TEWEN  =      2435.88573766
  -Hartree energ DENC   =     -3061.45529611
  -exchange      EXHF   =        65.91639493
  -V(xc)+E(xc)   XCENC  =        75.95668715
  PAW double counting   =      2398.66988874    -2401.56984053
  entropy T*S    EENTRO =        -0.00000000
  eigenvalues    EBANDS =      -430.86748946
  atomic energy  EATOM  =       951.41134137
  ---------------------------------------------------
  free energy    TOTEN  =       -84.87578607 eV

  energy without entropy =      -84.87578607  energy(sigma->0) =      -84.87578607
  exchange ACFDT corr.  =        -0.00000000  see jH, gK, PRB 81, 115126


--------------------------------------------------------------------------------------------------------




--------------------------------------- Iteration      1(  25)  ---------------------------------------


    POTLOK:  cpu time    544.0941: real time    544.0798
    SETDIJ:  cpu time      0.0883: real time      0.0882
    TRIAL :  cpu time     97.3892: real time     97.3867
    CORREC:  cpu time      0.0007: real time      0.0007
    CHARGE:  cpu time      3.4688: real time      3.4687
    --------------------------------------------
      LOOP:  cpu time    645.0486: real time    645.0377

 eigenvalue-minimisations  :     0
 total energy-change (2. order) :-0.1843526E-01  (-0.1138677E-01)
 number of electron      28.9999999 magnetization       0.9999999
 augmentation part        0.7934932 magnetization       0.1083438

 Free energy of the ion-electron system (eV)
  ---------------------------------------------------
  alpha Z        PSCENC =         0.05888504
  Ewald energy   TEWEN  =      2435.88573766
  -Hartree energ DENC   =     -3061.51173214
  -exchange      EXHF   =        65.92846072
[...]

 eigenvalue-minimisations  :     0
 total energy-change (2. order) :-0.1213074E-03  (-0.1651232E-04)
 number of electron      28.9999999 magnetization       0.9999999
 augmentation part        0.7950594 magnetization       0.1093289

 Free energy of the ion-electron system (eV)
  ---------------------------------------------------
  alpha Z        PSCENC =         0.05888504
  Ewald energy   TEWEN  =      2435.88573766
  -Hartree energ DENC   =     -3061.83302187
  -exchange      EXHF   =        65.96738866
  -V(xc)+E(xc)   XCENC  =        75.98028862
  PAW double counting   =      2407.68951415    -2410.59203975
  entropy T*S    EENTRO =        -0.00000000
  eigenvalues    EBANDS =      -430.90033378
  atomic energy  EATOM  =       951.41134137
  ---------------------------------------------------
  free energy    TOTEN  =       -84.91678823 eV

  energy without entropy =      -84.91678823  energy(sigma->0) =      -84.91678823
  exchange ACFDT corr.  =        -0.00000000  see jH, gK, PRB 81, 115126


--------------------------------------------------------------------------------------------------------




--------------------------------------- Iteration      1(  54)  ---------------------------------------


    POTLOK:  cpu time    430.2859: real time    430.2839
    SETDIJ:  cpu time      0.0811: real time      0.0811
    TRIAL :  cpu time     98.5217: real time     98.5193
    CORREC:  cpu time      0.0079: real time      0.0079
    CHARGE:  cpu time      3.2586: real time      3.2586
    --------------------------------------------
      LOOP:  cpu time    532.1592: real time    532.1623

 eigenvalue-minimisations  :     0
 total energy-change (2. order) : 0.1951501E-05  (-0.3735968E-04)
 number of electron      28.9999999 magnetization       0.9999999
 augmentation part        0.7950685 magnetization       0.1093340

 Free energy of the ion-electron system (eV)
  ---------------------------------------------------
  alpha Z        PSCENC =         0.05888504
  Ewald energy   TEWEN  =      2435.88573766
  -Hartree energ DENC   =     -3061.82619357
  -exchange      EXHF   =        65.96721704
  -V(xc)+E(xc)   XCENC  =        75.98011032
  PAW double counting   =      2407.68080461    -2410.58331926
  entropy T*S    EENTRO =        -0.00000000
  eigenvalues    EBANDS =      -430.90736729
  atomic energy  EATOM  =       951.41134137
  ---------------------------------------------------
  free energy    TOTEN  =       -84.91678628 eV

  energy without entropy =      -84.91678628  energy(sigma->0) =      -84.91678628
  exchange ACFDT corr.  =        -0.00000000  see jH, gK, PRB 81, 115126


--------------------------------------------------------------------------------------------------------




--------------------------------------- Iteration      1(  55)  ---------------------------------------


    POTLOK:  cpu time    423.5779: real time    423.5722
    SETDIJ:  cpu time      0.0819: real time      0.0819
    TRIAL :  cpu time     98.0094: real time     98.0070
    CORREC:  cpu time      0.2203: real time      0.2203
    CHARGE:  cpu time      2.9032: real time      2.9031
    --------------------------------------------
      LOOP:  cpu time    524.8012: real time    524.7989

 eigenvalue-minimisations  :     0
 total energy-change (2. order) :-0.5807236E-05  (-0.1419713E-04)
 number of electron      28.9999999 magnetization       0.9999999
 augmentation part        0.7950658 magnetization       0.1093345

 Free energy of the ion-electron system (eV)
  ---------------------------------------------------
  alpha Z        PSCENC =         0.05888504
  Ewald energy   TEWEN  =      2435.88573766
  -Hartree energ DENC   =     -3061.83360085
  -exchange      EXHF   =        65.96745445
  -V(xc)+E(xc)   XCENC  =        75.98032375
  PAW double counting   =      2407.68935576    -2410.59188945
  entropy T*S    EENTRO =        -0.00000000
  eigenvalues    EBANDS =      -430.90004707
  atomic energy  EATOM  =       951.41134137
  ---------------------------------------------------
  free energy    TOTEN  =       -84.91679208 eV

  energy without entropy =      -84.91679208  energy(sigma->0) =      -84.91679208
  exchange ACFDT corr.  =        -0.00000000  see jH, gK, PRB 81, 115126


--------------------------------------------------------------------------------------------------------




--------------------------------------- Iteration      1(  56)  ---------------------------------------


    POTLOK:  cpu time    385.4818: real time    385.4742
    SETDIJ:  cpu time      0.0842: real time      0.0842
    TRIAL :  cpu time     98.2962: real time     98.2940
    CORREC:  cpu time      0.3280: real time      0.3280
    CHARGE:  cpu time      4.0631: real time      4.0630
    --------------------------------------------
      LOOP:  cpu time    488.2588: real time    488.2541

 eigenvalue-minimisations  :     0
 total energy-change (2. order) :-0.3961273E-05  (-0.8780790E-05)
 number of electron      28.9999999 magnetization       0.9999999
 augmentation part        0.7950681 magnetization       0.1093381

 Free energy of the ion-electron system (eV)
  ---------------------------------------------------
  alpha Z        PSCENC =         0.05888504
  Ewald energy   TEWEN  =      2435.88573766
  -Hartree energ DENC   =     -3061.83044805
  -exchange      EXHF   =        65.96737950
  -V(xc)+E(xc)   XCENC  =        75.98024480
  PAW double counting   =      2407.68721922    -2410.58974653
  entropy T*S    EENTRO =        -0.00000000
  eigenvalues    EBANDS =      -430.90316432
  atomic energy  EATOM  =       951.41134137
  ---------------------------------------------------
  free energy    TOTEN  =       -84.91679605 eV

  energy without entropy =      -84.91679605  energy(sigma->0) =      -84.91679605
  exchange ACFDT corr.  =        -0.00000000  see jH, gK, PRB 81, 115126


--------------------------------------------------------------------------------------------------------


  average scaling for gradient   2.4829


 average (electrostatic) potential at core
  the test charge radii are     0.6991  0.7089  0.5201
  (the norm of the test charge is              1.0000)
       1 -56.3696       2 -56.3699       3 -55.0904       4 -55.0900       5 -71.3732
       6 -41.1123       7 -37.7122       8 -37.7241       9 -37.7139      10 -37.7211
      11 -38.6442      12 -38.6154      13 -38.6451      14 -38.6156
 
 
 
 E-fermi :  -8.0807     XC(G=0):  -0.0125     alpha+bet : -0.0114

 Fermi energy:        -8.0807448425

 spin component 1

 k-point     1 :       0.0000    0.0000    0.0000
  band No.  band energies     occupation 
      1     -28.0267      1.00000
      2     -21.8949      1.00000
      3     -21.3591      1.00000
      4     -16.9155      1.00000
      5     -17.4501      1.00000
      6     -15.7349      1.00000
      7     -14.6392      1.00000
      8     -12.6238      1.00000
      9     -12.2345      1.00000
     10     -11.8949      1.00000
     11     -10.1667      1.00000
     12     -11.4279      1.00000
     13     -10.0845      1.00000
     14      -9.0549      1.00000
     15      -8.3491      1.00000
     16      -0.3362      0.00000
     17       0.0144      0.00000
     18       0.0779      0.00000
     19       0.0882      0.00000
     20       0.1006      0.00000
     21       0.1312      0.00000
     22       0.0798      0.00000
     23       0.1485      0.00000
     24       0.1058      0.00000
     25       0.1693      0.00000
     26       0.1957      0.00000
     27       0.1937      0.00000
     28       0.2303      0.00000
     29       0.2161      0.00000
     30       0.1577      0.00000
 Fermi energy:        -8.0807448425

 spin component 2

 k-point     1 :       0.0000    0.0000    0.0000
  band No.  band energies     occupation 
      1     -27.0619      1.00000
      2     -21.6560      1.00000
      3     -21.2279      1.00000
      4     -17.1536      1.00000
      5     -15.4331      1.00000
      6     -16.8532      1.00000
      7     -13.7989      1.00000
      8     -12.3043      1.00000
      9     -11.8971      1.00000
     10     -11.3718      1.00000
     11      -0.3049      0.00000
     12     -11.1605      1.00000
     13       0.0145      0.00000
     14     -10.1436      1.00000
     15       0.0843      0.00000
     16     -10.0474      1.00000
     17      -8.9373      1.00000
     18       0.0847      0.00000
     19      -4.4775      0.00000
     20       0.1034      0.00000
     21       0.0887      0.00000
     22       0.1297      0.00000
     23       0.1008      0.00000
     24       0.1563      0.00000
     25       0.1959      0.00000
     26       0.1818      0.00000
     27       0.1950      0.00000
     28       0.2084      0.00000
     29       0.2024      0.00000
     30       0.1690      0.00000


--------------------------------------------------------------------------------------------------------


 soft charge-density along one line, spin component           1
         0         1         2         3         4         5         6         7         8         9
 total charge-density along one line
 
 soft charge-density along one line, spin component           2
         0         1         2         3         4         5         6         7         8         9
 total charge-density along one line
 
 pseudopotential strength for first ion, spin component:           1
 10.062  13.381   0.007   0.000   0.005  -0.021  -0.001  -0.014
 13.381  17.794   0.009   0.000   0.006  -0.027  -0.001  -0.019
  0.007   0.009  -4.283  -0.001  -0.007   8.353   0.001   0.013
  0.000   0.000  -0.001  -4.275  -0.000   0.001   8.338   0.000
  0.005   0.006  -0.007  -0.000  -4.276   0.013   0.000   8.341
 -0.021  -0.027   8.353   0.001   0.013 -18.413  -0.002  -0.026
 -0.001  -0.001   0.001   8.338   0.000  -0.002 -18.384  -0.001
 -0.014  -0.019   0.013   0.000   8.341  -0.026  -0.001 -18.391
 pseudopotential strength for first ion, spin component:           2
 10.064  13.384   0.007   0.000   0.005  -0.022  -0.000  -0.016
 13.384  17.798   0.009   0.000   0.007  -0.029  -0.001  -0.022
  0.007   0.009  -4.287  -0.001  -0.008   8.360   0.001   0.016
  0.000   0.000  -0.001  -4.272  -0.000   0.001   8.333   0.001
  0.005   0.007  -0.008  -0.000  -4.278   0.016   0.001   8.344
 -0.022  -0.029   8.360   0.001   0.016 -18.425  -0.003  -0.031
 -0.000  -0.001   0.001   8.333   0.001  -0.003 -18.374  -0.001
 -0.016  -0.022   0.016   0.001   8.344  -0.031  -0.001 -18.395
 total augmentation occupancy for first ion, spin component:           1
  8.696  -3.975   0.164  -0.000   0.192   0.057   0.001   0.039
 -3.975   1.865  -0.183  -0.002  -0.170  -0.042  -0.001  -0.025
  0.164  -0.183   1.576  -0.011  -0.115   0.155   0.000   0.005
 -0.000  -0.002  -0.011   1.658  -0.003   0.000   0.135   0.000
  0.192  -0.170  -0.115  -0.003   1.592   0.005   0.000   0.143
  0.057  -0.042   0.155   0.000   0.005   0.017   0.000   0.002
  0.001  -0.001   0.000   0.135   0.000   0.000   0.011   0.000
  0.039  -0.025   0.005   0.000   0.143   0.002   0.000   0.014
 total augmentation occupancy for first ion, spin component:           2
  0.032  -0.029  -0.017  -0.003  -0.003  -0.002  -0.001   0.001
 -0.029   0.021   0.009   0.003  -0.005   0.000   0.000  -0.001
 -0.017   0.009  -0.028  -0.001  -0.010   0.000   0.000  -0.000
 -0.003   0.003  -0.001   0.029  -0.001   0.000   0.001  -0.000
 -0.003  -0.005  -0.010  -0.001  -0.011  -0.000  -0.000  -0.000
 -0.002   0.000   0.000   0.000  -0.000   0.000   0.000   0.000
 -0.001   0.000   0.000   0.001  -0.000   0.000   0.000  -0.000
  0.001  -0.001  -0.000  -0.000  -0.000   0.000  -0.000   0.000


------------------------ aborting loop because EDIFF is reached ----------------------------------------


    FORLOC:  cpu time      0.3599: real time      0.3598
    FORHF :  cpu time     48.0894: real time     48.0882
    FORNL :  cpu time      3.7904: real time      3.7903
    STRESS:  cpu time     11.6166: real time     11.6163
    FORCOR:  cpu time     23.8218: real time     23.8212
    OFIELD:  cpu time      0.0298: real time      0.0298
 WARNING: Using user supplied parameters
     VDW_A1 = 0.383
     VDW_A2 = 5.685
     VDW_S8 = 2.31
     because the xc functional is not supported. Required parameters not
     defined in the INCAR file will be replaced with PBE defaults ones.


 ---------------------------------------------------------------------------------------------

         DFTD3 V3.0 Rev 1        
 IVDW         = 12
 DF unknown   
 parameters
 VDW_S6       =    1.0000
 VDW_S8       =    2.3100
 VDW_A1       =    0.3830
 VDW_A2       =    5.6850
 k1-k3        =   16.0000    1.3333   -4.0000
 VDW_RADIUS   =   50.2022 A
 VDW_CNRADIUS =   21.1671 A
 Edisp (eV)   -0.16910

 E6    (eV) :    -0.0921
 E8    (eV) :    -0.0770
 % E8        : 45.56
    FORVDW:  cpu time      0.0079: real time      0.0079

  FORCE on cell =-STRESS in cart. coord.  units (eV):
  Direction    XX          YY          ZZ          XY          YZ          ZX
  --------------------------------------------------------------------------------------
  Alpha Z     0.05889     0.05889     0.05889
  Ewald    1074.14787  1098.15649   263.58167    -0.02069     0.32153     8.42658
  Hartree  1196.22655  1220.11965   645.48595    -0.01137     0.14278     2.52673
  E(xc)     -81.18159   -81.18095   -81.75036    -0.00003     0.00046     0.02079
  Local   -2542.55315 -2591.06436 -1188.16234     0.03147    -0.43765    -9.87764
  n-local   -49.15762   -47.95684   -50.87918    -0.00026     0.00002    -0.06769
  augment     0.57588     0.52430     0.49091     0.00001    -0.00010    -0.00295
  Kinetic   430.43604   428.44895   439.39654     0.00295    -0.02625    -0.95228
  Fock      -29.30240   -29.23844   -29.34969     0.00007    -0.00058    -0.02531
  vdW        -0.03772    -0.04335    -0.00702     0.00000    -0.00001     0.00008
  -------------------------------------------------------------------------------------
  Total      -0.78725    -2.17567    -1.13463     0.00216     0.00020     0.04832
  in kB      -0.01971    -0.05447    -0.02840     0.00005     0.00000     0.00121
  external pressure =       -0.03 kB  Pullay stress =        0.00 kB


 VOLUME and BASIS-vectors are now :
 -----------------------------------------------------------------------------
  energy-cutoff  :      500.00
  volume of cell :    64000.00
      direct lattice vectors                 reciprocal lattice vectors
    40.000000000  0.000000000  0.000000000     0.025000000  0.000000000  0.000000000
     0.000000000 40.000000000  0.000000000     0.000000000  0.025000000  0.000000000
     0.000000000  0.000000000 40.000000000     0.000000000  0.000000000  0.025000000

  length of vectors
    40.000000000 40.000000000 40.000000000     0.025000000  0.025000000  0.025000000


 FORCES acting on ions:
    Electron-Ion                     Ewald-Force                    Non-Local-Force
 -----------------------------------------------------------------------------------------------
   -.389E+02 0.185E+03 0.509E+01   0.324E+02 -.192E+03 -.526E+01   0.432E+01 0.544E+01 0.108E+00
   -.388E+02 -.185E+03 0.453E+01   0.324E+02 0.192E+03 -.468E+01   0.432E+01 -.543E+01 0.107E+00
   0.140E+03 -.999E+02 -.786E+00   -.144E+03 0.100E+03 0.838E+00   0.208E+01 -.237E+00 -.207E-01
   0.140E+03 0.999E+02 -.140E+01   -.144E+03 -.100E+03 0.147E+01   0.207E+01 0.244E+00 -.258E-01
   -.222E+03 -.338E-01 -.119E+02   0.220E+03 0.359E-01 0.124E+02   -.143E+01 -.611E-03 -.468E+00
   -.101E+03 -.115E-01 -.451E+01   0.108E+03 0.123E-01 0.480E+01   -.762E+01 -.912E-03 -.336E+00
   0.475E+02 0.369E+02 -.559E+02   -.505E+02 -.390E+02 0.604E+02   0.253E+01 0.201E+01 -.453E+01
   0.497E+02 0.373E+02 0.536E+02   -.529E+02 -.394E+02 -.580E+02   0.274E+01 0.206E+01 0.439E+01
   0.478E+02 -.371E+02 -.555E+02   -.508E+02 0.392E+02 0.600E+02   0.255E+01 -.203E+01 -.450E+01
   0.494E+02 -.371E+02 0.540E+02   -.526E+02 0.392E+02 -.584E+02   0.271E+01 -.204E+01 0.441E+01
   -.240E+02 -.555E+02 0.577E+02   0.250E+02 0.585E+02 -.622E+02   -.143E+01 -.280E+01 0.445E+01
   -.246E+02 -.611E+02 -.516E+02   0.256E+02 0.647E+02 0.557E+02   -.151E+01 -.336E+01 -.410E+01
   -.239E+02 0.553E+02 0.580E+02   0.249E+02 -.583E+02 -.625E+02   -.141E+01 0.278E+01 0.446E+01
   -.247E+02 0.614E+02 -.513E+02   0.258E+02 -.649E+02 0.554E+02   -.152E+01 0.338E+01 -.409E+01
 -----------------------------------------------------------------------------------------------
   -.884E+01 -.648E-02 0.184E+00   0.391E-13 0.711E-13 0.213E-13   0.839E+01 0.787E-02 -.151E+00
 
 
 POSITION                                       TOTAL-FORCE (eV/Angst)
 -----------------------------------------------------------------------------------
     20.50904     18.79498     19.98559         0.034382     -0.197212     -0.036434
     20.50867     21.20518     19.98821         0.033382      0.197650     -0.029038
     19.03282     20.77725     20.01074         0.034608     -0.045213      0.004903
     19.03334     19.22228     20.01388         0.027838      0.051834      0.012612
     21.26935     20.00010     20.04094         0.039837      0.001688     -0.006314
     22.29237     20.00022     20.08500        -0.277318     -0.000141     -0.021396
     18.54497     18.82822     20.91210         0.113049      0.101933     -0.196109
     18.50359     18.81906     19.14391         0.128475      0.102473      0.188798
     18.53920     21.17510     20.90437         0.113253     -0.103305     -0.195640
     18.50818     21.17678     19.13569         0.129095     -0.106252      0.195108
     20.80792     21.75821     19.07486        -0.089168     -0.207298      0.218355
     20.82102     21.86228     20.82108        -0.100339     -0.243819     -0.178246
     20.80581     18.24594     19.06900        -0.088093      0.206855      0.217439
     20.82376     18.13451     20.81458        -0.099002      0.240808     -0.174038
 -----------------------------------------------------------------------------------
    total drift:                               -0.015248      0.001774      0.005886


--------------------------------------------------------------------------------------------------------



  FREE ENERGIE OF THE ION-ELECTRON SYSTEM (eV)
  ---------------------------------------------------
  free  energy   TOTEN  =       -85.08589435 eV

  energy  without entropy=      -85.08589435  energy(sigma->0) =      -85.08589435
 


--------------------------------------------------------------------------------------------------------


    POTLOK:  cpu time    396.1598: real time    396.1530


--------------------------------------------------------------------------------------------------------


 writing wavefunctions
     LOOP+:  cpu time  33414.4801: real time  33414.8154
    4ORBIT:  cpu time      0.0000: real time      0.0000

 total amount of memory used by VASP MPI-rank0   883161. kBytes
=======================================================================

   base      :      30000. kBytes
   nonlr-proj:       2646. kBytes
   fftplans  :     259670. kBytes
   grid      :     512830. kBytes
   one-center:         12. kBytes
   HF        :          9. kBytes
   wavefun   :      77994. kBytes
   fock_wrk  :          0. kBytes
 
  
  
 General timing and accounting informations for this job:
 ========================================================
  
                  Total CPU time used (sec):    33461.078
                            User time (sec):    15350.126
                          System time (sec):    18110.951
                         Elapsed time (sec):    33462.566
  
                   Maximum memory used (kb):     2344928.
                   Average memory used (kb):          N/A
  
                          Minor page faults:    151956147
                          Major page faults:            1
                 Voluntary context switches:         9694
