
                                 *****************
                                 * O   R   C   A *
                                 *****************

                                            #,                                       
                                            ###                                      
                                            ####                                     
                                            #####                                    
                                            ######                                   
                                           ########,                                 
                                     ,,################,,,,,                         
                               ,,#################################,,                 
                          ,,##########################################,,             
                       ,#########################################, ''#####,          
                    ,#############################################,,   '####,        
                  ,##################################################,,,,####,       
                ,###########''''           ''''###############################       
              ,#####''   ,,,,##########,,,,          '''####'''          '####       
            ,##' ,,,,###########################,,,                        '##       
           ' ,,###''''                  '''############,,,                           
         ,,##''                                '''############,,,,        ,,,,,,###''
      ,#''                                            '''#######################'''  
     '                                                          ''''####''''         
             ,#######,   #######,   ,#######,      ##                                
            ,#'     '#,  ##    ##  ,#'     '#,    #''#        ,####,   ,####,        
            ##       ##  ##   ,#'  ##            #'  '#       #'       #'  '#        
            ##       ##  #######   ##           ,######,      #####,   #    #        
            '#,     ,#'  ##    ##  '#,     ,#' ,#      #,     #,   #   #,  ,#        
             '#######'   ##     ##  '#######'  #'      '#     '####' # '####'        



                #########################################################
                #                        -***-                          #
                #          Department of theory and spectroscopy        #
                #                                                       #
                #                      Frank Neese                      #
                #                                                       #
                #     Directorship, Architecture, Infrastructure        #
                #                    SHARK, DRIVERS                     #
                #        Core code/Algorithms in most modules           #
                #                                                       #
                #        Max Planck Institute fuer Kohlenforschung      #
                #                Kaiser Wilhelm Platz 1                 #
                #                 D-45470 Muelheim/Ruhr                 #
                #                      Germany                          #
                #                                                       #
                #                  All rights reserved                  #
                #                        -***-                          #
                #########################################################


                         Program Version 6.0.0  -   RELEASE  -


 With contributions from (in alphabetic order):
   Daniel Aravena         : Magnetic Suceptibility
   Michael Atanasov       : Ab Initio Ligand Field Theory (pilot matlab implementation)
   Alexander A. Auer      : GIAO ZORA, VPT2 properties, NMR spectrum
   Ute Becker             : All parallelization in ORCA, NUMFREQ, NUMCALC
   Giovanni Bistoni       : ED, misc. LED, open-shell LED, HFLD
   Martin Brehm           : Molecular dynamics
   Dmytro Bykov           : pre 5.0 version of the SCF Hessian
   Marcos Casanova-Páez   : Triplet and SCS-CIS(D). UHF-(DLPNO)-IP/EA/STEOM-CCSD. UHF-CVS-IP/STEOM-CCSD
   Vijay G. Chilkuri      : MRCI spin determinant printing, contributions to CSF-ICE
   Pauline Colinet        : FMM embedding
   Dipayan Datta          : RHF DLPNO-CCSD density
   Achintya Kumar Dutta   : EOM-CC, STEOM-CC
   Nicolas Foglia         : Exact transition moments, OPA infrastructure, MCD improvements
   Dmitry Ganyushin       : Spin-Orbit,Spin-Spin,Magnetic field MRCI
   Miquel Garcia          : C-PCM and meta-GGA Hessian, CCSD/C-PCM, Gaussian charge scheme
   Tiago L. C. Gouveia    : GS-ROHF, GS-ROCIS
   Yang Guo               : DLPNO-NEVPT2, F12-NEVPT2, CIM, IAO-localization
   Andreas Hansen         : Spin unrestricted coupled pair/coupled cluster methods
   Ingolf Harden          : AUTO-CI MPn and infrastructure 
   Benjamin Helmich-Paris : MC-RPA, TRAH-(SCF,CASSCF), AVAS, COSX integrals, SCF dyn. polar.
   Lee Huntington         : MR-EOM, pCC
   Robert Izsak           : Overlap fitted RIJCOSX, COSX-SCS-MP3, EOM
   Riya Kayal             : Wick's Theorem for AUTO-CI, AUTO-CI UHF-CCSDT
   Emily Kempfer          : AUTO-CI, RHF CISDT and CCSDT
   Christian Kollmar      : KDIIS, OOCD, Brueckner-CCSD(T), CCSD density, CASPT2, CASPT2-K, improved NEVPT2
   Axel Koslowski         : Symmetry handling
   Simone Kossmann        : Meta GGA functionals, TD-DFT gradient, OOMP2, (MP2 Hessian; deprecated post 5.0)
   Lucas Lang             : DCDCAS
   Marvin Lechner         : AUTO-CI (C++ implementation), FIC-MRCC
   Spencer Leger          : CASSCF response
   Dagmar Lenk            : GEPOL surface, SMD, ORCA-2-JSON
   Dimitrios Liakos       : Extrapolation schemes; Compound Job, initial MDCI parallelization
   Dimitrios Manganas     : Further ROCIS development; embedding schemes. LFT, Crystal Embedding
   Dimitrios Pantazis     : SARC Basis sets
   Anastasios Papadopoulos: AUTO-CI, single reference methods and gradients
   Taras Petrenko         : pre 6.0 DFT Hessian and TD-DFT gradient, (ASA, deprecated), ECA, 1-Electron XAS/XES, NRVS
   Peter Pinski           : DLPNO-MP2, DLPNO-MP2 Gradient
   Christoph Reimann      : Effective Core Potentials
   Marius Retegan         : Local ZFS, SOC
   Christoph Riplinger    : Optimizer, TS searches, QM/MM, DLPNO-CCSD(T), (RO)-DLPNO pert. Triples
   Michael Roemelt        : Original ROCIS implementation
   Masaaki Saitow         : Open-shell DLPNO-CCSD energy and density
   Barbara Sandhoefer     : DKH picture change effects
   Kantharuban Sivalingam : CASSCF convergence/infrastructure, NEVPT2 and variants, FIC-MRCI
   Bernardo de Souza      : ESD, SOC TD-DFT
   Georgi Stoychev        : AutoAux, RI-MP2 NMR, DLPNO-MP2 response, X2C
   Van Anh Tran           : RI-MP2 g-tensors
   Willem Van den Heuvel  : Paramagnetic NMR
   Zikuan Wang            : NOTCH, Electric field optimization 
   Frank Wennmohs         : Technical directorship and infrastructure
   Hang Xu                : AUTO-CI-Response properties 


 We gratefully acknowledge several colleagues who have allowed us to
 interface, adapt or use parts of their codes:
   Stefan Grimme, W. Hujo, H. Kruse, P. Pracht,  : VdW corrections, initial TS optimization,
                  C. Bannwarth, S. Ehlert,         DFT functionals, gCP, sTDA/sTD-DF
                  L. Wittmann, M. Mueller
   Ed Valeev, F. Pavosevic, A. Kumar             : LibInt (2-el integral package), F12 methods
   Garnet Chan, S. Sharma, J. Yang, R. Olivares  : DMRG
   Ulf Ekstrom                                   : XCFun DFT Library
   Mihaly Kallay                                 : mrcc  (arbitrary order and MRCC methods)
   Frank Weinhold                                : gennbo (NPA and NBO analysis)
   Simon Mueller                                 : openCOSMO-RS
   Christopher J. Cramer and Donald G. Truhlar   : smd solvation model
   Lars Goerigk                                  : TD-DFT with DH, B97 family of functionals
   V. Asgeirsson, H. Jonsson                     : NEB implementation
   FAccTs GmbH                                   : IRC, NEB, NEB-TS, DLPNO-Multilevel, CI-OPT
                                                   MM, QMMM, 2- and 3-layer-ONIOM, Crystal-QMMM,
                                                   LR-CPCM, SF, NACMEs, symmetry and pop. for TD-DFT,
                                                   nearIR, NL-DFT gradient (VV10), updates on ESD,
                                                   ML-optimized integration grids, MBIS, APM,
                                                   GOAT, DOCKER, SOLVATOR, interface openCOSMO-RS
   S Lehtola, MJT Oliveira, MAL Marques          : LibXC Library
   Liviu Ungur et al                             : ANISO software


 Your calculation uses the libint2 library for the computation of 2-el integrals
 For citations please refer to: http://libint.valeyev.net

 Your ORCA version has been built with support for libXC version: 6.2.2
 For citations please refer to: https://libxc.gitlab.io

 This ORCA versions uses:
   CBLAS   interface :  Fast vector & matrix operations
   LAPACKE interface :  Fast linear algebra routines
   SCALAPACK package :  Parallel linear algebra routines
   Shared memory     :  Shared parallel matrices
   BLAS/LAPACK       :  OpenBLAS 0.3.27  USE64BITINT DYNAMIC_ARCH NO_AFFINITY Sandybridge SINGLE_THREADED
        Core in use  :  Sandybridge
   Copyright (c) 2011-2014, The OpenBLAS Project


NOTE: MaxCore=3500 MB was set to SCF,MP2,MDCI,CIPSI,MRCI and CIS
      => If you want to overwrite this, your respective input block should be placed after the MaxCore statement
Your calculation utilizes the atom-pairwise dispersion correction
with the Becke-Johnson damping scheme (D3BJ)


Warning: RI is on but no J-basis has been assigned. Assigning Def2/J (nothing to worry about!)
================================================================================

----- Orbital basis set information -----
Your calculation utilizes the basis: def2-SV(P)
   F. Weigend and R. Ahlrichs, Phys. Chem. Chem. Phys. 7, 3297 (2005).

----- AuxJ basis set information -----
Your calculation utilizes the auxiliary basis: def2/J
   F. Weigend, Phys. Chem. Chem. Phys. 8, 1057 (2006).

================================================================================
                                        WARNINGS
                       Please study these warnings very carefully!
================================================================================


WARNING: your system is open-shell and RHF/RKS was chosen
  ===> : WILL SWITCH to UHF/UKS


WARNING: Geometry Optimization
  ===> : Switching off AutoStart
         For restart on a previous wavefunction, please use MOREAD

================================================================================
                                       INPUT FILE
================================================================================
NAME = cs_rporg_w01_red_opt_01.inp
|  1> !PBE0 def2-SV(p) Opt Freq d3 TightSCF SlowConv RIJCOSX defgrid2
|  2> 
|  3> %pal
|  4> nprocs 15
|  5> end
|  6> 
|  7> %scf
|  8> MaxIter 1500
|  9> end
| 10> 
| 11> %maxcore 3500
| 12> 
| 13>  
| 14> 
| 15> * xyz -1 2
| 16> C        0.004558812      0.000000000     -3.489690367
| 17> C       -0.056108968     -0.041695056      0.734815434
| 18> C        1.100442554     -0.178592914      1.507595227
| 19> C        0.996422886     -0.206810306      2.892232778
| 20> C       -0.260589785     -0.097742889      3.477472972
| 21> C       -1.365695149      0.035745257      2.642920802
| 22> N       -1.272951864      0.063773284      1.305431273
| 23> H        2.085183304     -0.263891796      1.043943022
| 24> H        1.893469747     -0.313467420      3.508699830
| 25> H       -0.382723826     -0.115841507      4.563891648
| 26> H       -2.374762822      0.124846981      3.057190647
| 27> C       -0.003918387     -0.005826117     -0.738868984
| 28> C        1.001184344      0.684949404     -1.421612535
| 29> C        1.004814116      0.687444036     -2.810431477
| 30> C       -0.962051684     -0.664321019     -2.741428371
| 31> N       -0.971945302     -0.671120592     -1.400488027
| 32> H        1.784447261      1.223261391     -0.884320244
| 33> H        1.785498525      1.223983885     -3.357018433
| 34> H       -0.026054626     -0.021039663     -4.582471223
| 35> H       -1.768598059     -1.218634998     -3.231321350
| 36> *
| 37> 
| 38>                          ****END OF INPUT****
================================================================================

                       *****************************
                       * Geometry Optimization Run *
                       *****************************

Geometry optimization settings:
Update method            Update   .... BFGS
Choice of coordinates    CoordSys .... (2022) Redundant Internals
Initial Hessian          InHess   .... Almloef's Model
Max. no of cycles        MaxIter  .... 60

Convergence Tolerances:
Energy Change            TolE     ....  5.0000e-06 Eh
Max. Gradient            TolMAXG  ....  3.0000e-04 Eh/bohr
RMS Gradient             TolRMSG  ....  1.0000e-04 Eh/bohr
Max. Displacement        TolMAXD  ....  4.0000e-03 bohr
RMS Displacement         TolRMSD  ....  2.0000e-03 bohr
Strict Convergence                .... False

------------------------------------------------------------------------------
                        ORCA OPTIMIZATION COORDINATE SETUP
------------------------------------------------------------------------------

The optimization will be done in redundant internal coordinates (2022)
Making redundant internal coordinates   ...  (2022 redundants) done
Evaluating the initial hessian          ...  (Almloef) done
Evaluating the coordinates              ...  done
Calculating the B-matrix                .... done
Calculating the G-matrix                .... done
Diagonalizing the G-matrix              .... done
Small eigenvalue found = 1.606e-02
The first mode is                       ....   43
The number of degrees of freedom        ....   54

    -----------------------------------------------------------------
                    Redundant Internal Coordinates


    -----------------------------------------------------------------
         Definition                    Initial Value    Approx d2E/dq
    -----------------------------------------------------------------
      1. B(C   2,C   1)                  1.3977         0.607390   
      2. B(C   3,C   2)                  1.3888         0.627497   
      3. B(C   4,C   3)                  1.3909         0.622833   
      4. B(C   5,C   4)                  1.3912         0.621952   
      5. B(N   6,C   5)                  1.3410         0.669979   
      6. B(N   6,C   1)                  1.3481         0.652663   
      7. B(H   7,C   2)                  1.0918         0.357765   
      8. B(H   8,C   3)                  1.0937         0.355286   
      9. B(H   9,C   4)                  1.0934         0.355615   
     10. B(H  10,C   5)                  1.0944         0.354288   
     11. B(C  11,C   1)                  1.4750         0.457147   
     12. B(C  12,C  11)                  1.3977         0.607390   
     13. B(C  13,C  12)                  1.3888         0.627497   
     14. B(C  13,C   0)                  1.3909         0.622833   
     15. B(C  14,C   0)                  1.3912         0.621952   
     16. B(N  15,C  14)                  1.3410         0.669979   
     17. B(N  15,C  11)                  1.3481         0.652664   
     18. B(H  16,C  12)                  1.0918         0.357765   
     19. B(H  17,C  13)                  1.0937         0.355286   
     20. B(H  18,C   0)                  1.0934         0.355614   
     21. B(H  19,C  14)                  1.0944         0.354288   
     22. A(C  14,C   0,H  18)          120.5897         0.352349   
     23. A(C  13,C   0,C  14)          118.2297         0.434668   
     24. A(C  13,C   0,H  18)          121.1807         0.352433   
     25. A(C   2,C   1,N   6)          121.3680         0.433620   
     26. A(N   6,C   1,C  11)          116.9306         0.412153   
     27. A(C   2,C   1,C  11)          121.7013         0.409575   
     28. A(C   1,C   2,C   3)          119.4224         0.433401   
     29. A(C   1,C   2,H   7)          121.2787         0.351298   
     30. A(C   3,C   2,H   7)          119.2989         0.353239   
     31. A(C   4,C   3,H   8)          120.7810         0.352378   
     32. A(C   2,C   3,C   4)          119.0521         0.435363   
     33. A(C   2,C   3,H   8)          120.1669         0.352823   
     34. A(C   5,C   4,H   9)          120.5897         0.352349   
     35. A(C   3,C   4,H   9)          121.1807         0.352433   
     36. A(C   3,C   4,C   5)          118.2297         0.434668   
     37. A(N   6,C   5,H  10)          116.0784         0.354391   
     38. A(C   4,C   5,H  10)          120.8721         0.352126   
     39. A(C   4,C   5,N   6)          123.0495         0.437533   
     40. A(C   1,N   6,C   5)          118.8783         0.438456   
     41. A(C  12,C  11,N  15)          121.3680         0.433620   
     42. A(C   1,C  11,N  15)          116.9306         0.412153   
     43. A(C   1,C  11,C  12)          121.7013         0.409575   
     44. A(C  13,C  12,H  16)          119.2989         0.353239   
     45. A(C  11,C  12,H  16)          121.2787         0.351298   
     46. A(C  11,C  12,C  13)          119.4224         0.433401   
     47. A(C  12,C  13,H  17)          120.1669         0.352823   
     48. A(C   0,C  13,H  17)          120.7810         0.352378   
     49. A(C   0,C  13,C  12)          119.0521         0.435363   
     50. A(C   0,C  14,H  19)          120.8721         0.352126   
     51. A(C   0,C  14,N  15)          123.0495         0.437533   
     52. A(N  15,C  14,H  19)          116.0784         0.354391   
     53. A(C  11,N  15,C  14)          118.8783         0.438456   
     54. D(H   7,C   2,C   1,C  11)     -0.0000         0.025467   
     55. D(C   3,C   2,C   1,N   6)      0.0000         0.025467   
     56. D(H   7,C   2,C   1,N   6)    180.0000         0.025467   
     57. D(C   3,C   2,C   1,C  11)   -180.0000         0.025467   
     58. D(H   8,C   3,C   2,C   1)    180.0000         0.027287   
     59. D(C   4,C   3,C   2,H   7)   -180.0000         0.027287   
     60. D(C   4,C   3,C   2,C   1)     -0.0000         0.027287   
     61. D(H   8,C   3,C   2,H   7)      0.0000         0.027287   
     62. D(H   9,C   4,C   3,H   8)      0.0000         0.026858   
     63. D(H   9,C   4,C   3,C   2)    180.0000         0.026858   
     64. D(C   5,C   4,C   3,C   2)      0.0000         0.026858   
     65. D(C   5,C   4,C   3,H   8)   -180.0000         0.026858   
     66. D(H  10,C   5,C   4,C   3)    180.0000         0.026777   
     67. D(N   6,C   5,C   4,H   9)   -180.0000         0.026777   
     68. D(N   6,C   5,C   4,C   3)     -0.0000         0.026777   
     69. D(H  10,C   5,C   4,H   9)     -0.0000         0.026777   
     70. D(C   1,N   6,C   5,H  10)   -180.0000         0.033345   
     71. D(C   1,N   6,C   5,C   4)      0.0000         0.033345   
     72. D(C   5,N   6,C   1,C  11)    180.0000         0.031502   
     73. D(C   5,N   6,C   1,C   2)     -0.0000         0.031502   
     74. D(N  15,C  11,C   1,N   6)    -40.2216         0.014238   
     75. D(N  15,C  11,C   1,C   2)    139.7784         0.014238   
     76. D(C  12,C  11,C   1,N   6)    139.7784         0.014238   
     77. D(C  12,C  11,C   1,C   2)    -40.2216         0.014238   
     78. D(H  16,C  12,C  11,N  15)    180.0000         0.025467   
     79. D(H  16,C  12,C  11,C   1)      0.0000         0.025467   
     80. D(C  13,C  12,C  11,N  15)      0.0000         0.025467   
     81. D(C  13,C  12,C  11,C   1)   -180.0000         0.025467   
     82. D(H  17,C  13,C   0,C  14)    180.0000         0.026858   
     83. D(C  12,C  13,C   0,H  18)   -180.0000         0.026858   
     84. D(C  12,C  13,C   0,C  14)      0.0000         0.026858   
     85. D(H  17,C  13,C  12,H  16)      0.0000         0.027287   
     86. D(H  17,C  13,C  12,C  11)   -180.0000         0.027287   
     87. D(C   0,C  13,C  12,H  16)    180.0000         0.027287   
     88. D(C   0,C  13,C  12,C  11)     -0.0000         0.027287   
     89. D(H  17,C  13,C   0,H  18)     -0.0000         0.026858   
     90. D(H  19,C  14,C   0,H  18)     -0.0000         0.026777   
     91. D(H  19,C  14,C   0,C  13)   -180.0000         0.026777   
     92. D(N  15,C  14,C   0,H  18)    180.0000         0.026777   
     93. D(N  15,C  14,C   0,C  13)      0.0000         0.026777   
     94. D(C  11,N  15,C  14,H  19)    180.0000         0.033345   
     95. D(C  11,N  15,C  14,C   0)     -0.0000         0.033345   
     96. D(C  14,N  15,C  11,C  12)      0.0000         0.031502   
     97. D(C  14,N  15,C  11,C   1)    180.0000         0.031502   
    -----------------------------------------------------------------

Number of atoms                         .... 20
Number of degrees of freedom            .... 97


         *************************************************************
         *                GEOMETRY OPTIMIZATION CYCLE   1            *
         *************************************************************
---------------------------------
CARTESIAN COORDINATES (ANGSTROEM)
---------------------------------
  C      0.004559    0.000000   -3.489690
  C     -0.056109   -0.041695    0.734815
  C      1.100443   -0.178593    1.507595
  C      0.996423   -0.206810    2.892233
  C     -0.260590   -0.097743    3.477473
  C     -1.365695    0.035745    2.642921
  N     -1.272952    0.063773    1.305431
  H      2.085183   -0.263892    1.043943
  H      1.893470   -0.313467    3.508700
  H     -0.382724   -0.115842    4.563892
  H     -2.374763    0.124847    3.057191
  C     -0.003918   -0.005826   -0.738869
  C      1.001184    0.684949   -1.421613
  C      1.004814    0.687444   -2.810431
  C     -0.962052   -0.664321   -2.741428
  N     -0.971945   -0.671121   -1.400488
  H      1.784447    1.223261   -0.884320
  H      1.785499    1.223984   -3.357018
  H     -0.026055   -0.021040   -4.582471
  H     -1.768598   -1.218635   -3.231321

----------------------------
CARTESIAN COORDINATES (A.U.)
----------------------------
  NO LB      ZA    FRAG     MASS         X           Y           Z
   0 C     6.0000    0    12.011    0.008615    0.000000   -6.594559
   1 C     6.0000    0    12.011   -0.106031   -0.078792    1.388600
   2 C     6.0000    0    12.011    2.079535   -0.337492    2.848942
   3 C     6.0000    0    12.011    1.882966   -0.390815    5.465528
   4 C     6.0000    0    12.011   -0.492443   -0.184707    6.571472
   5 C     6.0000    0    12.011   -2.580790    0.067549    4.994397
   6 N     7.0000    0    14.007   -2.405530    0.120514    2.466908
   7 H     1.0000    0     1.008    3.940425   -0.498683    1.972766
   8 H     1.0000    0     1.008    3.578139   -0.592368    6.630482
   9 H     1.0000    0     1.008   -0.723243   -0.218909    8.624505
  10 H     1.0000    0     1.008   -4.487651    0.235927    5.777253
  11 C     6.0000    0    12.011   -0.007405   -0.011010   -1.396260
  12 C     6.0000    0    12.011    1.891964    1.294367   -2.686458
  13 C     6.0000    0    12.011    1.898823    1.299081   -5.310946
  14 C     6.0000    0    12.011   -1.818014   -1.255385   -5.180549
  15 N     7.0000    0    14.007   -1.836710   -1.268234   -2.646539
  16 H     1.0000    0     1.008    3.372117    2.311629   -1.671123
  17 H     1.0000    0     1.008    3.374103    2.312994   -6.343845
  18 H     1.0000    0     1.008   -0.049236   -0.039759   -8.659616
  19 H     1.0000    0     1.008   -3.342166   -2.302886   -6.106312

--------------------------------
INTERNAL COORDINATES (ANGSTROEM)
--------------------------------
 C      0   0   0     0.000000000000     0.00000000     0.00000000
 C      1   0   0     4.225147135889     0.00000000     0.00000000
 C      2   1   0     1.397691330385   122.81297111     0.00000000
 C      3   2   1     1.388825928683   119.42239398   181.12351191
 C      4   3   2     1.390856801105   119.05209130     0.00000000
 C      5   4   3     1.391241990135   118.22966304     0.00000000
 N      6   5   4     1.340994081790   123.04947699     0.00000000
 H      3   2   1     1.091770860200   121.27868577     1.12351147
 H      4   3   2     1.093663767800   120.16688635   180.00000000
 H      5   4   3     1.093412009951   121.18066901   179.99999915
 H      6   5   4     1.094429618747   120.87211144   179.99999915
 C      2   1   7     1.475044474376     1.46232514   219.75571493
 C     12   2   7     1.397691338139   121.70132506   139.77836261
 C     13  12   2     1.388825925770   119.42239337   180.00000000
 C      1   2   3     1.391241992581    56.46514854   139.17868000
 N     15   1   2     1.340994080538   123.04947609     0.00000000
 H     13  12   2     1.091770854375   121.27868582     0.00000000
 H     14  13  12     1.093663776711   120.16688596   180.00000085
 H      1   2   3     1.093412021722   177.05481575   139.17867300
 H     15   1   2     1.094429610900   120.87211149   180.00000000

---------------------------
INTERNAL COORDINATES (A.U.)
---------------------------
 C      0   0   0     0.000000000000     0.00000000     0.00000000
 C      1   0   0     7.984370962351     0.00000000     0.00000000
 C      2   1   0     2.641253834185   122.81297111     0.00000000
 C      3   2   1     2.624500652899   119.42239398   181.12351191
 C      4   3   2     2.628338445589   119.05209130     0.00000000
 C      5   4   3     2.629066347367   118.22966304     0.00000000
 N      6   5   4     2.534111561792   123.04947699     0.00000000
 H      3   2   1     2.063147926774   121.27868577     1.12351147
 H      4   3   2     2.066725003734   120.16688635   180.00000000
 H      5   4   3     2.066249250349   121.18066901   179.99999915
 H      6   5   4     2.068172252283   120.87211144   179.99999915
 C      2   1   7     2.787430091924     1.46232514   219.75571493
 C     12   2   7     2.641253848836   121.70132506   139.77836261
 C     13  12   2     2.624500647395   119.42239337   180.00000000
 C      1   2   3     2.629066351989    56.46514854   139.17868000
 N     15   1   2     2.534111559426   123.04947609     0.00000000
 H     13  12   2     2.063147915766   121.27868582     0.00000000
 H     14  13  12     2.066725020574   120.16688596   180.00000085
 H      1   2   3     2.066249272591   177.05481575   139.17867300
 H     15   1   2     2.068172237454   120.87211149   180.00000000

---------------------
BASIS SET INFORMATION
---------------------
There are 3 groups of distinct atoms

 Group   1 Type C   : 7s4p1d contracted to 3s2p1d pattern {511/31/1}
 Group   2 Type N   : 7s4p1d contracted to 3s2p1d pattern {511/31/1}
 Group   3 Type H   : 4s contracted to 2s pattern {31}

Atom   0C    basis set group =>   1
Atom   1C    basis set group =>   1
Atom   2C    basis set group =>   1
Atom   3C    basis set group =>   1
Atom   4C    basis set group =>   1
Atom   5C    basis set group =>   1
Atom   6N    basis set group =>   2
Atom   7H    basis set group =>   3
Atom   8H    basis set group =>   3
Atom   9H    basis set group =>   3
Atom  10H    basis set group =>   3
Atom  11C    basis set group =>   1
Atom  12C    basis set group =>   1
Atom  13C    basis set group =>   1
Atom  14C    basis set group =>   1
Atom  15N    basis set group =>   2
Atom  16H    basis set group =>   3
Atom  17H    basis set group =>   3
Atom  18H    basis set group =>   3
Atom  19H    basis set group =>   3
---------------------------------
AUXILIARY/J BASIS SET INFORMATION
---------------------------------
There are 3 groups of distinct atoms

 Group   1 Type C   : 12s5p4d2f1g contracted to 6s4p3d1f1g pattern {711111/2111/211/2/1}
 Group   2 Type N   : 12s5p4d2f1g contracted to 6s4p3d1f1g pattern {711111/2111/211/2/1}
 Group   3 Type H   : 5s2p1d contracted to 3s1p1d pattern {311/2/1}

Atom   0C    basis set group =>   1
Atom   1C    basis set group =>   1
Atom   2C    basis set group =>   1
Atom   3C    basis set group =>   1
Atom   4C    basis set group =>   1
Atom   5C    basis set group =>   1
Atom   6N    basis set group =>   2
Atom   7H    basis set group =>   3
Atom   8H    basis set group =>   3
Atom   9H    basis set group =>   3
Atom  10H    basis set group =>   3
Atom  11C    basis set group =>   1
Atom  12C    basis set group =>   1
Atom  13C    basis set group =>   1
Atom  14C    basis set group =>   1
Atom  15N    basis set group =>   2
Atom  16H    basis set group =>   3
Atom  17H    basis set group =>   3
Atom  18H    basis set group =>   3
Atom  19H    basis set group =>   3


           ************************************************************
           *        Program running with 15 parallel MPI-processes    *
           *              working on a common directory               *
           ************************************************************
------------------------------------------------------------------------------
                             ORCA STARTUP CALCULATIONS
                           -- RI-GTO INTEGRALS CHOSEN --
------------------------------------------------------------------------------
------------------------------------------------------------------------------
                   ___                                                        
                  /   \      - P O W E R E D   B Y -                         
                 /     \                                                     
                 |  |  |   _    _      __       _____    __    __             
                 |  |  |  | |  | |    /  \     |  _  \  |  |  /  |          
                  \  \/   | |  | |   /    \    | | | |  |  | /  /          
                 / \  \   | |__| |  /  /\  \   | |_| |  |  |/  /          
                |  |  |   |  __  | /  /__\  \  |    /   |      \           
                |  |  |   | |  | | |   __   |  |    \   |  |\   \          
                \     /   | |  | | |  |  |  |  | |\  \  |  | \   \       
                 \___/    |_|  |_| |__|  |__|  |_| \__\ |__|  \__/        
                                                                              
                      - O R C A' S   B I G   F R I E N D -                    
                                      &                                       
                       - I N T E G R A L  F E E D E R -                       
                                                                              
 v1 FN, 2020, v2 2021, v3 2022-2024                                           
------------------------------------------------------------------------------


----------------------
SHARK INTEGRAL PACKAGE
----------------------

Number of atoms                             ...     20
Number of basis functions                   ...    184
Number of shells                            ...     88
Maximum angular momentum                    ...      2
Integral batch strategy                     ... SHARK/LIBINT Hybrid
RI-J (if used) integral strategy            ... SPLIT-RIJ (Revised 2003 algorithm where possible)
Printlevel                                  ...      1
Contraction scheme used                     ... SEGMENTED contraction
Prescreening option                         ... SCHWARTZ
   Thresh                                   ... 2.500e-11
   Tcut                                     ... 2.500e-12
   Tpresel                                  ... 2.500e-12 
Coulomb Range Separation                    ... NOT USED
Exchange Range Separation                   ... NOT USED
Multipole approximations                    ... NOT USED
Finite Nucleus Model                        ... NOT USED
CABS basis                                  ... NOT available
Auxiliary Coulomb fitting basis             ... AVAILABLE
   # of basis functions in Aux-J            ...    676
   # of shells in Aux-J                     ...    220
   Maximum angular momentum in Aux-J        ...      4
Auxiliary J/K fitting basis                 ... NOT available
Auxiliary Correlation fitting basis         ... NOT available
Auxiliary 'external' fitting basis          ... NOT available

Checking pre-screening integrals            ... done (  0.1 sec) Dimension = 88
Check shell pair data                       ... done (  0.1 sec)
Shell pair information
Shell pair cut-off parameter TPreSel        ...   2.5e-12
Total number of shell pairs                 ...      3916
Shell pairs after pre-screening             ...      3510
Total number of primitive shell pairs       ...     15756
Primitive shell pairs kept                  ...      9695
          la=0 lb=0:   1203 shell pairs
          la=1 lb=0:   1162 shell pairs
          la=1 lb=1:    292 shell pairs
          la=2 lb=0:    524 shell pairs
          la=2 lb=1:    266 shell pairs
          la=2 lb=2:     63 shell pairs

Calculating one electron integrals          ... done (  0.0 sec)
Calculating RI/J V-Matrix + Cholesky decomp.... done (  0.1 sec)
Calculating Nuclear repulsion               ... done (  0.0 sec) ENN=    609.085359958830 Eh

Diagonalization of the overlap matrix:
Smallest eigenvalue                        ... 5.828e-04
Time for diagonalization                   ...    0.006 sec
Threshold for overlap eigenvalues          ... 1.000e-07
Number of eigenvalues below threshold      ... 0
Time for construction of square roots      ...    0.028 sec
Total time needed                          ...    0.123 sec

-------------------
DFT GRID GENERATION
-------------------

General Integration Accuracy     IntAcc      ... 4.388
Radial Grid Type                 RadialGrid  ... OptM3 with GC (2021)
Angular Grid (max. ang.)         AngularGrid ... 4 (Lebedev-302)
Angular grid pruning method      GridPruning ... 4 (adaptive)
Weight generation scheme         WeightScheme... mBecke (2022)
Basis function cutoff            BFCut       ... 1.0000e-11
Integration weight cutoff        WCut        ... 1.0000e-14
Partially contracted basis set               ... off
Rotationally invariant grid construction     ... off
Angular grids for H and He will be reduced by one unit

Total number of grid points                  ...    97823
Total number of batches                      ...     1540
Average number of points per batch           ...       63
Average number of grid points per atom       ...     4891

--------------------
COSX GRID GENERATION
--------------------

GRIDX 1
-------
General Integration Accuracy     IntAcc      ... 3.816
Radial Grid Type                 RadialGrid  ... OptM3 with GC (2021)
Angular Grid (max. ang.)         AngularGrid ... 1 (Lebedev-50)
Angular grid pruning method      GridPruning ... 4 (adaptive)
Weight generation scheme         WeightScheme... mBecke (2022)
Basis function cutoff            BFCut       ... 1.0000e-11
Integration weight cutoff        WCut        ... 1.0000e-14
Partially contracted basis set               ... on
Rotationally invariant grid construction     ... off
Angular grids for H and He will be reduced by one unit

Total number of grid points                  ...    12452
Total number of batches                      ...      106
Average number of points per batch           ...      117
Average number of grid points per atom       ...      623
UseSFitting                                  ... on

GRIDX 2
-------
General Integration Accuracy     IntAcc      ... 4.020
Radial Grid Type                 RadialGrid  ... OptM3 with GC (2021)
Angular Grid (max. ang.)         AngularGrid ... 2 (Lebedev-110)
Angular grid pruning method      GridPruning ... 4 (adaptive)
Weight generation scheme         WeightScheme... mBecke (2022)
Basis function cutoff            BFCut       ... 1.0000e-11
Integration weight cutoff        WCut        ... 1.0000e-14
Partially contracted basis set               ... on
Rotationally invariant grid construction     ... off
Angular grids for H and He will be reduced by one unit

Total number of grid points                  ...    27532
Total number of batches                      ...      224
Average number of points per batch           ...      122
Average number of grid points per atom       ...     1377
UseSFitting                                  ... on

GRIDX 3
-------
General Integration Accuracy     IntAcc      ... 4.338
Radial Grid Type                 RadialGrid  ... OptM3 with GC (2021)
Angular Grid (max. ang.)         AngularGrid ... 3 (Lebedev-194)
Angular grid pruning method      GridPruning ... 4 (adaptive)
Weight generation scheme         WeightScheme... mBecke (2022)
Basis function cutoff            BFCut       ... 1.0000e-11
Integration weight cutoff        WCut        ... 1.0000e-14
Partially contracted basis set               ... on
Rotationally invariant grid construction     ... off
Angular grids for H and He will be reduced by one unit

Total number of grid points                  ...    60567
Total number of batches                      ...      483
Average number of points per batch           ...      125
Average number of grid points per atom       ...     3028
UseSFitting                                  ... on
Initializing property integral containers    ... done (  0.2 sec)

SHARK setup successfully completed in   4.8 seconds

Maximum memory used throughout the entire STARTUP-calculation: 24.5 MB


           ************************************************************
           *        Program running with 15 parallel MPI-processes    *
           *              working on a common directory               *
           ************************************************************
-------------------------------------------------------------------------------
                                 ORCA GUESS
                   Start orbitals & Density for SCF / CASSCF
-------------------------------------------------------------------------------

------------
SCF SETTINGS
------------
Hamiltonian:
 Density Functional     Method          .... DFT(GTOs)
 Exchange Functional    Exchange        .... PBE
   PBE kappa parameter   XKappa         ....  0.804000
   PBE mue parameter    XMuePBE         ....  0.219520
 Correlation Functional Correlation     .... PBE
   PBE beta parameter  CBetaPBE         ....  0.066725
 LDA part of GGA corr.  LDAOpt          .... PW91-LDA
 Gradients option       PostSCFGGA      .... off
 Hybrid DFT is turned on
   Fraction HF Exchange ScalHFX         ....  0.250000
   Scaling of DF-GGA-X  ScalDFX         ....  0.750000
   Scaling of DF-GGA-C  ScalDFC         ....  1.000000
   Scaling of DF-LDA-C  ScalLDAC        ....  1.000000
   Perturbative correction              ....  0.000000
   NL short-range parameter             ....  6.900000
 RI-approximation to the Coulomb term is turned on
   Number of AuxJ basis functions       .... 676
   RIJ-COSX (HFX calculated with COS-X)).... on


General Settings:
 Integral files         IntName         .... cs_rporg_w01_red_opt_01
 Hartree-Fock type      HFTyp           .... UHF
 Total Charge           Charge          ....   -1
 Multiplicity           Mult            ....    2
 Number of Electrons    NEL             ....   83
 Basis Dimension        Dim             ....  184
 Nuclear Repulsion      ENuc            ....    609.0853599588 Eh

Convergence Acceleration:
 AO-DIIS                CNVDIIS         .... on
   Start iteration      DIISMaxIt       ....     0
   Startup error        DIISStart       ....  0.200000
   # of expansion vecs  DIISMaxEq       ....     5
   Bias factor          DIISBfac        ....   1.050
   Max. coefficient     DIISMaxC        ....  10.000
 MO-DIIS                CNVKDIIS        .... off
 Trust-Rad. Augm. Hess. CNVTRAH         .... auto
   Auto Start mean grad. ratio tolernc. ....  1.125000
   Auto Start start iteration           ....    50
   Auto Start num. interpolation iter.  ....    10
   Max. Number of Micro iterations      ....    24
   Max. Number of Macro iterations      .... Maxiter - #DIIS iter
   Number of Davidson start vectors     ....     2
   Converg. threshold    (grad. norm)   ....   1.000e-05
   Grad. Scal. Fac. for Micro threshold ....   0.100
   Minimum threshold for Micro iter.    ....   1.000e-02
   NR start threshold (gradient norm)   ....   1.000e-04
   Initial trust radius                 ....   0.400
   Minimum AH scaling param. (alpha)    ....   1.000
   Maximum AH scaling param. (alpha)    .... 1000.000
   Quad. conv. algorithm                .... NR
   White noise on init. David. guess    .... on
   Maximum white noise                  ....   0.010
   Pseudo random numbers                .... off
   Inactive MOs                         .... canonical
   Orbital update algorithm             .... Taylor
   Preconditioner                       .... Diag
   Full preconditioner red. dimension   ....   250
 SOSCF                  CNVSOSCF        .... on
   Start iteration      SOSCFMaxIt      ....   150
   Startup grad/error   SOSCFStart      ....  0.001000
   Hessian update       SOSCFHessUp     .... L-BFGS
 Level Shifting         CNVShift        .... on
   Level shift para.    LevelShift      ....    0.2500
   Turn off err/grad.   ShiftErr        ....    0.0000
 Zerner damping         CNVZerner       .... off
 Static damping         CNVDamp         .... on
   Fraction old density DampFac         ....    0.8500
   Max. Damping (<1)    DampMax         ....    0.9800
   Min. Damping (>=0)   DampMin         ....    0.0000
   Turn off err/grad.   DampErr         ....    0.0300

SCF Procedure:
 Maximum # iterations   MaxIter         ....  1500
 SCF integral mode      SCFMode         .... Direct
   Integral package                     .... SHARK and LIBINT hybrid scheme
 Reset frequency        DirectResetFreq ....    20
 Integral Threshold     Thresh          ....  2.500e-11 Eh
 Primitive CutOff       TCut            ....  2.500e-12 Eh

Convergence Tolerance:
 Convergence Check Mode ConvCheckMode   .... Total+1el-Energy
 Convergence forced     ConvForced      .... 0
 Energy Change          TolE            ....  1.000e-08 Eh
 1-El. energy change                    ....  1.000e-05 Eh
 Orbital Gradient       TolG            ....  1.000e-05
 Orbital Rotation angle TolX            ....  1.000e-05
 DIIS Error             TolErr          ....  5.000e-07

------------------------------
INITIAL GUESS: MODEL POTENTIAL
------------------------------
Loading Hartree-Fock densities                     ... done
Calculating cut-offs                               ... done
Initializing the effective Hamiltonian             ... done
Setting up the integral package (SHARK)            ... done
Starting the Coulomb interaction                   ... done (   0.2 sec)
Making the grid                                    ... done (   0.3 sec)
Mapping shells                                     ... done
Starting the XC term evaluation                    ... done (   0.1 sec)
  promolecular density results
     # of electrons  =     81.993735000
     EX              =    -66.537368017
     EC              =     -2.727922633
     EX+EC           =    -69.265290650
Transforming the Hamiltonian                       ... done (   0.1 sec)
Diagonalizing the Hamiltonian                      ... done (   0.0 sec)
Back transforming the eigenvectors                 ... done (   0.1 sec)
Now organizing SCF variables                       ... done
                      ------------------
                      INITIAL GUESS DONE (   1.7 sec)
                      ------------------
             **** ENERGY FILE WAS UPDATED (cs_rporg_w01_red_opt_01.en.tmp) ****
Finished Guess after   3.7 sec
Maximum memory used throughout the entire GUESS-calculation: 13.5 MB


           ************************************************************
           *        Program running with 15 parallel MPI-processes    *
           *              working on a common directory               *
           ************************************************************

-------------------------------------------------------------------------------------------
                                      ORCA LEAN-SCF
                              memory conserving SCF solver
-------------------------------------------------------------------------------------------

----------------------------------------D-I-I-S--------------------------------------------
Iteration    Energy (Eh)           Delta-E    RMSDP     MaxDP     DIISErr   Damp  Time(sec)
-------------------------------------------------------------------------------------------
               ***  Starting incremental Fock matrix formation  ***
    1    -494.0817422739712583     0.00e+00  1.04e-03  1.97e-02  9.99e-02  0.850   5.5
Warning: op=0 Small HOMO/LUMO gap (   0.048) - skipping pre-diagonalization
         Will do a full diagonalization
    2    -494.1637373725973248    -8.20e-02  1.15e-03  2.27e-02  7.44e-02  0.850   6.0
                               ***Turning on AO-DIIS***
    3    -494.2197261017095116    -5.60e-02  6.18e-04  1.20e-02  5.01e-02  0.850   6.7
    4    -494.2568900050791854    -3.72e-02  4.05e-04  7.11e-03  4.00e-02  0.850   6.3
    5    -494.2839850387661045    -2.71e-02  3.05e-04  4.96e-03  3.40e-02  0.850   7.2
    6    -494.3052526138501435    -2.13e-02  2.49e-04  4.34e-03  2.91e-02  0.850   7.6
    7    -494.3226105893786553    -1.74e-02  1.42e-03  2.70e-02  2.46e-02  0.000   5.3
    8    -494.4101887608401285    -8.76e-02  1.93e-04  4.92e-03  4.29e-03  0.000   5.3
    9    -494.4103805912213829    -1.92e-04  7.29e-05  1.65e-03  2.89e-03  0.000   7.5
   10    -494.4105507841159124    -1.70e-04  5.16e-05  1.03e-03  1.08e-03  0.000   7.9
                              *** Initializing SOSCF ***
---------------------------------------S-O-S-C-F--------------------------------------
Iteration    Energy (Eh)           Delta-E    RMSDP     MaxDP     MaxGrad    Time(sec)
--------------------------------------------------------------------------------------
   11    -494.4105946791798942    -4.39e-05  5.00e-05  1.02e-03  5.62e-04     6.1
               *** Restarting incremental Fock matrix formation ***
   12    -494.4107539943267966    -1.59e-04  1.11e-04  2.28e-03  1.57e-03     5.0
   13    -494.4108019402174250    -4.79e-05  4.15e-04  8.65e-03  1.12e-03     6.6
   14    -494.4108614511194446    -5.95e-05  6.51e-05  1.92e-03  9.78e-04     6.3
   15    -494.4108719376681620    -1.05e-05  6.43e-05  1.20e-03  6.43e-04     5.1
   16    -494.4108823511862738    -1.04e-05  1.39e-05  3.07e-04  1.78e-04     6.1
   17    -494.4108824506517976    -9.95e-08  1.61e-05  3.94e-04  2.24e-04     6.3
   18    -494.4108837841999957    -1.33e-06  5.35e-06  1.31e-04  4.89e-05     7.5
   19    -494.4108838329991613    -4.88e-08  1.97e-06  5.08e-05  3.94e-05     7.6
   20    -494.4108839150810581    -8.21e-08  9.64e-07  2.54e-05  1.47e-05     7.6
   21    -494.4108839213492956    -6.27e-09  1.03e-06  2.70e-05  7.77e-06     5.3
                 **** Energy Check signals convergence ****

               *****************************************************
               *                     SUCCESS                       *
               *           SCF CONVERGED AFTER  21 CYCLES          *
               *****************************************************

Recomputing exchange energy using gridx3       ... done (    1.447 sec)
Old exchange energy                            :    -16.999259959 Eh
New exchange energy                            :    -16.999268605 Eh
Exchange energy change after final integration :     -0.000008645 Eh
Total energy after final integration           :   -494.410892567 Eh
             **** ENERGY FILE WAS UPDATED (cs_rporg_w01_red_opt_01.en.tmp) ****

----------------
TOTAL SCF ENERGY
----------------

Total Energy       :       -494.41089256670438 Eh          -13453.60435 eV

Components:
Nuclear Repulsion  :        609.08535995882994 Eh           16574.05525 eV
Electronic Energy  :      -1103.49624388017924 Eh          -30027.65937 eV
One Electron Energy:      -1889.64806423296841 Eh          -51419.93797 eV
Two Electron Energy:        786.15182035278917 Eh           21392.27859 eV

Virial components:
Potential Energy   :       -984.41177986454136 Eh          -26787.20637 eV
Kinetic Energy     :        490.00088729783698 Eh           13333.60201 eV
Virial Ratio       :          2.00899999445549

DFT components:
N(Alpha)           :       41.999979798196 electrons
N(Beta)            :       40.999981794079 electrons
N(Total)           :       82.999961592275 electrons
E(X)               :      -50.885168714442 Eh       
E(C)               :       -2.784409197673 Eh       
E(XC)              :      -53.669577912115 Eh       

---------------
SCF CONVERGENCE
---------------

  Last Energy change         ...    6.2682e-09  Tolerance :   1.0000e-08
  Last MAX-Density change    ...    2.7019e-05  Tolerance :   1.0000e-07
  Last RMS-Density change    ...    1.0255e-06  Tolerance :   5.0000e-09
  Last DIIS Error            ...    5.6155e-04  Tolerance :   5.0000e-07
  Last Orbital Gradient      ...    7.7671e-06  Tolerance :   1.0000e-05
  Last Orbital Rotation      ...    9.8758e-05  Tolerance :   1.0000e-05


----------------------
UHF SPIN CONTAMINATION
----------------------

Warning: in a DFT calculation there is little theoretical justification to 
         calculate <S**2> as in Hartree-Fock theory. We will do it anyways
         but you should keep in mind that the values have only limited relevance

Expectation value of <S**2>     :     0.761850
Ideal value S*(S+1) for S=0.5   :     0.750000
Deviation                       :     0.011850

----------------
ORBITAL ENERGIES
----------------
                 SPIN UP ORBITALS
  NO   OCC          E(Eh)            E(eV) 
   0   1.0000     -14.198607      -386.3638 
   1   1.0000     -14.198562      -386.3625 
   2   1.0000     -10.100688      -274.8537 
   3   1.0000     -10.100682      -274.8535 
   4   1.0000     -10.082863      -274.3687 
   5   1.0000     -10.082822      -274.3675 
   6   1.0000     -10.082772      -274.3662 
   7   1.0000     -10.082617      -274.3620 
   8   1.0000     -10.074325      -274.1363 
   9   1.0000     -10.074308      -274.1359 
  10   1.0000     -10.065705      -273.9017 
  11   1.0000     -10.065703      -273.9017 
  12   1.0000      -0.793056       -21.5802 
  13   1.0000      -0.772700       -21.0262 
  14   1.0000      -0.653565       -17.7844 
  15   1.0000      -0.647793       -17.6273 
  16   1.0000      -0.635307       -17.2876 
  17   1.0000      -0.588279       -16.0079 
  18   1.0000      -0.499992       -13.6055 
  19   1.0000      -0.486859       -13.2481 
  20   1.0000      -0.464324       -12.6349 
  21   1.0000      -0.446552       -12.1513 
  22   1.0000      -0.388807       -10.5800 
  23   1.0000      -0.355925        -9.6852 
  24   1.0000      -0.340561        -9.2671 
  25   1.0000      -0.326569        -8.8864 
  26   1.0000      -0.315449        -8.5838 
  27   1.0000      -0.298888        -8.1332 
  28   1.0000      -0.278245        -7.5714 
  29   1.0000      -0.263758        -7.1772 
  30   1.0000      -0.254141        -6.9155 
  31   1.0000      -0.248442        -6.7604 
  32   1.0000      -0.237707        -6.4683 
  33   1.0000      -0.224606        -6.1118 
  34   1.0000      -0.204016        -5.5515 
  35   1.0000      -0.147355        -4.0097 
  36   1.0000      -0.137604        -3.7444 
  37   1.0000      -0.131040        -3.5658 
  38   1.0000      -0.094523        -2.5721 
  39   1.0000      -0.090741        -2.4692 
  40   1.0000      -0.086821        -2.3625 
  41   1.0000       0.068008         1.8506 
  42   0.0000       0.142565         3.8794 
  43   0.0000       0.145852         3.9688 
  44   0.0000       0.173241         4.7141 
  45   0.0000       0.207103         5.6356 
  46   0.0000       0.210675         5.7328 
  47   0.0000       0.238709         6.4956 
  48   0.0000       0.249920         6.8007 
  49   0.0000       0.266562         7.2535 
  50   0.0000       0.275735         7.5031 
  51   0.0000       0.281257         7.6534 
  52   0.0000       0.292708         7.9650 

                 SPIN DOWN ORBITALS
  NO   OCC          E(Eh)            E(eV) 
   0   1.0000     -14.195090      -386.2680 
   1   1.0000     -14.195044      -386.2668 
   2   1.0000     -10.101923      -274.8873 
   3   1.0000     -10.101917      -274.8871 
   4   1.0000     -10.082082      -274.3474 
   5   1.0000     -10.082070      -274.3471 
   6   1.0000     -10.080298      -274.2988 
   7   1.0000     -10.080117      -274.2939 
   8   1.0000     -10.074193      -274.1327 
   9   1.0000     -10.074176      -274.1323 
  10   1.0000     -10.062299      -273.8091 
  11   1.0000     -10.062298      -273.8091 
  12   1.0000      -0.787071       -21.4173 
  13   1.0000      -0.767509       -20.8850 
  14   1.0000      -0.648552       -17.6480 
  15   1.0000      -0.642669       -17.4879 
  16   1.0000      -0.630062       -17.1449 
  17   1.0000      -0.584595       -15.9076 
  18   1.0000      -0.491487       -13.3740 
  19   1.0000      -0.486160       -13.2291 
  20   1.0000      -0.463556       -12.6140 
  21   1.0000      -0.441794       -12.0218 
  22   1.0000      -0.387328       -10.5397 
  23   1.0000      -0.354107        -9.6358 
  24   1.0000      -0.338125        -9.2009 
  25   1.0000      -0.323552        -8.8043 
  26   1.0000      -0.312231        -8.4962 
  27   1.0000      -0.297593        -8.0979 
  28   1.0000      -0.276883        -7.5344 
  29   1.0000      -0.256876        -6.9900 
  30   1.0000      -0.252467        -6.8700 
  31   1.0000      -0.240928        -6.5560 
  32   1.0000      -0.226486        -6.1630 
  33   1.0000      -0.223239        -6.0746 
  34   1.0000      -0.201478        -5.4825 
  35   1.0000      -0.127175        -3.4606 
  36   1.0000      -0.124026        -3.3749 
  37   1.0000      -0.119558        -3.2533 
  38   1.0000      -0.086565        -2.3555 
  39   1.0000      -0.082520        -2.2455 
  40   1.0000      -0.077912        -2.1201 
  41   0.0000       0.141135         3.8405 
  42   0.0000       0.148439         4.0392 
  43   0.0000       0.150616         4.0985 
  44   0.0000       0.196820         5.3557 
  45   0.0000       0.208143         5.6638 
  46   0.0000       0.211488         5.7549 
  47   0.0000       0.239290         6.5114 
  48   0.0000       0.250383         6.8133 
  49   0.0000       0.266943         7.2639 
  50   0.0000       0.276578         7.5261 
  51   0.0000       0.282459         7.6861 
*Only the first 10 virtual orbitals were printed.

                    ********************************
                    * MULLIKEN POPULATION ANALYSIS *
                    ********************************

--------------------------------------------
MULLIKEN ATOMIC CHARGES AND SPIN POPULATIONS
--------------------------------------------
   0 C :   -0.196148    0.246954
   1 C :    0.004243    0.161444
   2 C :   -0.142239    0.000848
   3 C :   -0.077602    0.048502
   4 C :   -0.196249    0.246970
   5 C :   -0.044028   -0.087023
   6 N :   -0.192777    0.147445
   7 H :    0.041882   -0.001509
   8 H :    0.035505   -0.004396
   9 H :    0.027629   -0.015641
  10 H :    0.043516    0.003365
  11 C :    0.003780    0.161423
  12 C :   -0.142153    0.000841
  13 C :   -0.077667    0.048501
  14 C :   -0.044374   -0.087028
  15 N :   -0.192122    0.147476
  16 H :    0.041998   -0.001506
  17 H :    0.035576   -0.004396
  18 H :    0.027615   -0.015637
  19 H :    0.043616    0.003366
Sum of atomic charges         :   -1.0000000
Sum of atomic spin populations:    1.0000000

-----------------------------------------------------
MULLIKEN REDUCED ORBITAL CHARGES AND SPIN POPULATIONS
-----------------------------------------------------
CHARGE
  0 C s       :     3.156309  s :     3.156309
      pz      :     0.868647  p :     3.004452
      px      :     1.034466
      py      :     1.101338
      dz2     :     0.011750  d :     0.035387
      dxz     :     0.007370
      dyz     :     0.004676
      dx2y2   :     0.005987
      dxy     :     0.005605

  1 C s       :     3.041227  s :     3.041227
      pz      :     0.973374  p :     2.893061
      px      :     0.881483
      py      :     1.038204
      dz2     :     0.015670  d :     0.061469
      dxz     :     0.018951
      dyz     :     0.008452
      dx2y2   :     0.009626
      dxy     :     0.008770

  2 C s       :     3.196827  s :     3.196827
      pz      :     0.953279  p :     2.907834
      px      :     0.918450
      py      :     1.036106
      dz2     :     0.008806  d :     0.037577
      dxz     :     0.012379
      dyz     :     0.007392
      dx2y2   :     0.005695
      dxy     :     0.003306

  3 C s       :     3.134120  s :     3.134120
      pz      :     0.962538  p :     2.904280
      px      :     0.899419
      py      :     1.042322
      dz2     :     0.008183  d :     0.039203
      dxz     :     0.014293
      dyz     :     0.006466
      dx2y2   :     0.005347
      dxy     :     0.004913

  4 C s       :     3.156128  s :     3.156128
      pz      :     0.870475  p :     3.004731
      px      :     0.973601
      py      :     1.160655
      dz2     :     0.011505  d :     0.035390
      dxz     :     0.009906
      dyz     :     0.002394
      dx2y2   :     0.005526
      dxy     :     0.006060

  5 C s       :     3.155106  s :     3.155106
      pz      :     0.949557  p :     2.829372
      px      :     0.904806
      py      :     0.975008
      dz2     :     0.015416  d :     0.059550
      dxz     :     0.022226
      dyz     :     0.012504
      dx2y2   :     0.005967
      dxy     :     0.003438

  6 N s       :     3.503226  s :     3.503226
      pz      :     1.137153  p :     3.661341
      px      :     1.355557
      py      :     1.168630
      dz2     :     0.008769  d :     0.028211
      dxz     :     0.005489
      dyz     :     0.005002
      dx2y2   :     0.004884
      dxy     :     0.004068

  7 H s       :     0.958118  s :     0.958118

  8 H s       :     0.964495  s :     0.964495

  9 H s       :     0.972371  s :     0.972371

 10 H s       :     0.956484  s :     0.956484

 11 C s       :     3.041319  s :     3.041319
      pz      :     0.973673  p :     2.893428
      px      :     0.923461
      py      :     0.996294
      dz2     :     0.016416  d :     0.061473
      dxz     :     0.013605
      dyz     :     0.013438
      dx2y2   :     0.008671
      dxy     :     0.009343

 12 C s       :     3.196445  s :     3.196445
      pz      :     0.942412  p :     2.908128
      px      :     0.966692
      py      :     0.999024
      dz2     :     0.008381  d :     0.037580
      dxz     :     0.011245
      dyz     :     0.008767
      dx2y2   :     0.003861
      dxy     :     0.005327

 13 C s       :     3.133968  s :     3.133968
      pz      :     0.970919  p :     2.904493
      px      :     0.939478
      py      :     0.994097
      dz2     :     0.008528  d :     0.039206
      dxz     :     0.011665
      dyz     :     0.009053
      dx2y2   :     0.004463
      dxy     :     0.005497

 14 C s       :     3.155379  s :     3.155379
      pz      :     0.947548  p :     2.829440
      px      :     0.930108
      py      :     0.951783
      dz2     :     0.014561  d :     0.059556
      dxz     :     0.020008
      dyz     :     0.015451
      dx2y2   :     0.004121
      dxy     :     0.005414

 15 N s       :     3.502733  s :     3.502733
      pz      :     1.098611  p :     3.661179
      px      :     1.325434
      py      :     1.237135
      dz2     :     0.008205  d :     0.028210
      dxz     :     0.005957
      dyz     :     0.005365
      dx2y2   :     0.004037
      dxy     :     0.004646

 16 H s       :     0.958002  s :     0.958002

 17 H s       :     0.964424  s :     0.964424

 18 H s       :     0.972385  s :     0.972385

 19 H s       :     0.956384  s :     0.956384


SPIN
  0 C s       :     0.033052  s :     0.033052
      pz      :     0.006292  p :     0.214419
      px      :     0.068857
      py      :     0.139270
      dz2     :    -0.000192  d :    -0.000517
      dxz     :     0.000005
      dyz     :    -0.000012
      dx2y2   :     0.000005
      dxy     :    -0.000323

  1 C s       :     0.015535  s :     0.015535
      pz      :    -0.007545  p :     0.143085
      px      :     0.008899
      py      :     0.141730
      dz2     :    -0.000244  d :     0.002825
      dxz     :     0.000435
      dyz     :     0.002293
      dx2y2   :    -0.000186
      dxy     :     0.000528

  2 C s       :    -0.001707  s :    -0.001707
      pz      :    -0.007725  p :    -0.000075
      px      :    -0.001270
      py      :     0.008920
      dz2     :     0.000032  d :     0.002629
      dxz     :    -0.000017
      dyz     :     0.001963
      dx2y2   :     0.000007
      dxy     :     0.000644

  3 C s       :     0.002979  s :     0.002979
      pz      :    -0.002423  p :     0.043481
      px      :    -0.004544
      py      :     0.050448
      dz2     :    -0.000052  d :     0.002042
      dxz     :     0.000003
      dyz     :     0.000965
      dx2y2   :    -0.000030
      dxy     :     0.001156

  4 C s       :     0.033075  s :     0.033075
      pz      :     0.006652  p :     0.214412
      px      :     0.008811
      py      :     0.198949
      dz2     :    -0.000205  d :    -0.000516
      dxz     :    -0.000035
      dyz     :    -0.000005
      dx2y2   :    -0.000360
      dxy     :     0.000089

  5 C s       :    -0.013663  s :    -0.013663
      pz      :    -0.010664  p :    -0.077662
      px      :    -0.007449
      py      :    -0.059549
      dz2     :     0.000058  d :     0.004302
      dxz     :     0.000048
      dyz     :     0.003373
      dx2y2   :     0.000169
      dxy     :     0.000655

  6 N s       :     0.007243  s :     0.007243
      pz      :     0.002135  p :     0.139755
      px      :     0.002033
      py      :     0.135586
      dz2     :    -0.000071  d :     0.000447
      dxz     :    -0.000018
      dyz     :     0.000557
      dx2y2   :    -0.000027
      dxy     :     0.000005

  7 H s       :    -0.001509  s :    -0.001509

  8 H s       :    -0.004396  s :    -0.004396

  9 H s       :    -0.015641  s :    -0.015641

 10 H s       :     0.003365  s :     0.003365

 11 C s       :     0.015531  s :     0.015531
      pz      :    -0.007748  p :     0.143066
      px      :     0.031152
      py      :     0.119662
      dz2     :    -0.000237  d :     0.002826
      dxz     :    -0.000064
      dyz     :     0.002930
      dx2y2   :     0.000338
      dxy     :    -0.000141

 12 C s       :    -0.001710  s :    -0.001710
      pz      :    -0.006707  p :    -0.000078
      px      :     0.002628
      py      :     0.004001
      dz2     :    -0.000012  d :     0.002629
      dxz     :     0.000639
      dyz     :     0.001160
      dx2y2   :     0.000693
      dxy     :     0.000149

 13 C s       :     0.002990  s :     0.002990
      pz      :    -0.002623  p :     0.043468
      px      :     0.013859
      py      :     0.032232
      dz2     :    -0.000036  d :     0.002042
      dxz     :     0.000451
      dyz     :     0.000679
      dx2y2   :     0.000876
      dxy     :     0.000072

 14 C s       :    -0.013664  s :    -0.013664
      pz      :    -0.009960  p :    -0.077667
      px      :    -0.024640
      py      :    -0.043068
      dz2     :     0.000055  d :     0.004303
      dxz     :     0.001203
      dyz     :     0.001984
      dx2y2   :     0.000813
      dxy     :     0.000248

 15 N s       :     0.007243  s :     0.007243
      pz      :     0.002303  p :     0.139786
      px      :     0.051990
      py      :     0.085492
      dz2     :    -0.000074  d :     0.000447
      dxz     :     0.000215
      dyz     :     0.000367
      dx2y2   :    -0.000061
      dxy     :     0.000001

 16 H s       :    -0.001506  s :    -0.001506

 17 H s       :    -0.004396  s :    -0.004396

 18 H s       :    -0.015637  s :    -0.015637

 19 H s       :     0.003366  s :     0.003366



                     *******************************
                     * LOEWDIN POPULATION ANALYSIS *
                     *******************************

-------------------------------------------
LOEWDIN ATOMIC CHARGES AND SPIN POPULATIONS
-------------------------------------------
   0 C :   -0.263031    0.195922
   1 C :   -0.063719    0.144214
   2 C :   -0.161967    0.017336
   3 C :   -0.166123    0.056398
   4 C :   -0.263075    0.195920
   5 C :   -0.094694   -0.048174
   6 N :   -0.143784    0.142366
   7 H :    0.107960   -0.000795
   8 H :    0.099560   -0.001829
   9 H :    0.096492   -0.006833
  10 H :    0.089341    0.001396
  11 C :   -0.063751    0.144203
  12 C :   -0.161973    0.017332
  13 C :   -0.166168    0.056392
  14 C :   -0.094739   -0.048181
  15 N :   -0.143730    0.142393
  16 H :    0.107974   -0.000795
  17 H :    0.099577   -0.001829
  18 H :    0.096491   -0.006832
  19 H :    0.089358    0.001397

----------------------------------------------------
LOEWDIN REDUCED ORBITAL CHARGES AND SPIN POPULATIONS
----------------------------------------------------
CHARGE
  0 C s       :     2.893942  s :     2.893942
      pz      :     1.043844  p :     3.277408
      px      :     1.107918
      py      :     1.125645
      dz2     :     0.028646  d :     0.091682
      dxz     :     0.021394
      dyz     :     0.012237
      dx2y2   :     0.013727
      dxy     :     0.015678

  1 C s       :     2.842179  s :     2.842179
      pz      :     1.029257  p :     3.070308
      px      :     1.026014
      py      :     1.015037
      dz2     :     0.042193  d :     0.151232
      dxz     :     0.048797
      dyz     :     0.016930
      dx2y2   :     0.025644
      dxy     :     0.017668

  2 C s       :     2.897470  s :     2.897470
      pz      :     1.077656  p :     3.169432
      px      :     1.063442
      py      :     1.028334
      dz2     :     0.026884  d :     0.095065
      dxz     :     0.033206
      dyz     :     0.015493
      dx2y2   :     0.013016
      dxy     :     0.006467

  3 C s       :     2.891764  s :     2.891764
      pz      :     1.083541  p :     3.177074
      px      :     1.063576
      py      :     1.029957
      dz2     :     0.024043  d :     0.097285
      dxz     :     0.037138
      dyz     :     0.013379
      dx2y2   :     0.012212
      dxy     :     0.010512

  4 C s       :     2.893932  s :     2.893932
      pz      :     1.044841  p :     3.277462
      px      :     1.090795
      py      :     1.141825
      dz2     :     0.028312  d :     0.091681
      dxz     :     0.029505
      dyz     :     0.004540
      dx2y2   :     0.015725
      dxy     :     0.013600

  5 C s       :     2.895331  s :     2.895331
      pz      :     1.035802  p :     3.060598
      px      :     1.058934
      py      :     0.965862
      dz2     :     0.039671  d :     0.138765
      dxz     :     0.055531
      dyz     :     0.024573
      dx2y2   :     0.012228
      dxy     :     0.006763

  6 N s       :     3.222165  s :     3.222165
      pz      :     1.259599  p :     3.862280
      px      :     1.429418
      py      :     1.173262
      dz2     :     0.021387  d :     0.059339
      dxz     :     0.013391
      dyz     :     0.008639
      dx2y2   :     0.009323
      dxy     :     0.006599

  7 H s       :     0.892040  s :     0.892040

  8 H s       :     0.900440  s :     0.900440

  9 H s       :     0.903508  s :     0.903508

 10 H s       :     0.910659  s :     0.910659

 11 C s       :     2.842186  s :     2.842186
      pz      :     1.024764  p :     3.070334
      px      :     1.016322
      py      :     1.029247
      dz2     :     0.043852  d :     0.151231
      dxz     :     0.034481
      dyz     :     0.030272
      dx2y2   :     0.018043
      dxy     :     0.024582

 12 C s       :     2.897446  s :     2.897446
      pz      :     1.075547  p :     3.169461
      px      :     1.054389
      py      :     1.039525
      dz2     :     0.025647  d :     0.095066
      dxz     :     0.028586
      dyz     :     0.020622
      dx2y2   :     0.008005
      dxy     :     0.012206

 13 C s       :     2.891757  s :     2.891757
      pz      :     1.087250  p :     3.177127
      px      :     1.051040
      py      :     1.038837
      dz2     :     0.025025  d :     0.097284
      dxz     :     0.029405
      dyz     :     0.021240
      dx2y2   :     0.009440
      dxy     :     0.012174

 14 C s       :     2.895339  s :     2.895339
      pz      :     1.033032  p :     3.060638
      px      :     1.031385
      py      :     0.996221
      dz2     :     0.037398  d :     0.138762
      dxz     :     0.047584
      dyz     :     0.033974
      dx2y2   :     0.008383
      dxy     :     0.011423

 15 N s       :     3.222147  s :     3.222147
      pz      :     1.229721  p :     3.862241
      px      :     1.371754
      py      :     1.260765
      dz2     :     0.020649  d :     0.059342
      dxz     :     0.013377
      dyz     :     0.010648
      dx2y2   :     0.006465
      dxy     :     0.008203

 16 H s       :     0.892026  s :     0.892026

 17 H s       :     0.900423  s :     0.900423

 18 H s       :     0.903509  s :     0.903509

 19 H s       :     0.910642  s :     0.910642


SPIN
  0 C s       :     0.007076  s :     0.007076
      pz      :     0.004165  p :     0.189208
      px      :     0.060077
      py      :     0.124966
      dz2     :    -0.000388  d :    -0.000362
      dxz     :     0.000121
      dyz     :     0.000245
      dx2y2   :     0.000040
      dxy     :    -0.000380

  1 C s       :     0.003301  s :     0.003301
      pz      :    -0.000967  p :     0.133251
      px      :     0.002210
      py      :     0.132008
      dz2     :    -0.000235  d :     0.007662
      dxz     :     0.001230
      dyz     :     0.005318
      dx2y2   :    -0.000064
      dxy     :     0.001414

  2 C s       :     0.000005  s :     0.000005
      pz      :    -0.001270  p :     0.011171
      px      :     0.000257
      py      :     0.012185
      dz2     :     0.000212  d :     0.006160
      dxz     :     0.000127
      dyz     :     0.004040
      dx2y2   :     0.000112
      dxy     :     0.001669

  3 C s       :     0.001139  s :     0.001139
      pz      :    -0.000619  p :     0.049813
      px      :     0.000324
      py      :     0.050108
      dz2     :    -0.000013  d :     0.005447
      dxz     :     0.000100
      dyz     :     0.001772
      dx2y2   :     0.000114
      dxy     :     0.003474

  4 C s       :     0.007077  s :     0.007077
      pz      :     0.004334  p :     0.189204
      px      :     0.005090
      py      :     0.179781
      dz2     :    -0.000403  d :    -0.000362
      dxz     :    -0.000245
      dyz     :     0.000458
      dx2y2   :    -0.000398
      dxy     :     0.000226

  5 C s       :    -0.003479  s :    -0.003479
      pz      :    -0.004318  p :    -0.054976
      px      :    -0.002949
      py      :    -0.047710
      dz2     :     0.000341  d :     0.010281
      dxz     :     0.000394
      dyz     :     0.007413
      dx2y2   :     0.000282
      dxy     :     0.001850

  6 N s       :     0.004788  s :     0.004788
      pz      :     0.001875  p :     0.136240
      px      :     0.003463
      py      :     0.130902
      dz2     :    -0.000178  d :     0.001338
      dxz     :     0.000028
      dyz     :     0.000535
      dx2y2   :     0.000073
      dxy     :     0.000880

  7 H s       :    -0.000795  s :    -0.000795

  8 H s       :    -0.001829  s :    -0.001829

  9 H s       :    -0.006833  s :    -0.006833

 10 H s       :     0.001396  s :     0.001396

 11 C s       :     0.003300  s :     0.003300
      pz      :    -0.001258  p :     0.133240
      px      :     0.038147
      py      :     0.096351
      dz2     :    -0.000221  d :     0.007663
      dxz     :    -0.000111
      dyz     :     0.007030
      dx2y2   :     0.000839
      dxy     :     0.000128

 12 C s       :     0.000005  s :     0.000005
      pz      :    -0.001200  p :     0.011168
      px      :     0.006264
      py      :     0.006104
      dz2     :     0.000099  d :     0.006159
      dxz     :     0.001422
      dyz     :     0.002420
      dx2y2   :     0.001895
      dxy     :     0.000323

 13 C s       :     0.001139  s :     0.001139
      pz      :    -0.000591  p :     0.049806
      px      :     0.016750
      py      :     0.033647
      dz2     :    -0.000010  d :     0.005447
      dxz     :     0.000994
      dyz     :     0.001320
      dx2y2   :     0.002685
      dxy     :     0.000458

 14 C s       :    -0.003479  s :    -0.003479
      pz      :    -0.004208  p :    -0.054983
      px      :    -0.017167
      py      :    -0.033608
      dz2     :     0.000352  d :     0.010282
      dxz     :     0.002897
      dyz     :     0.004307
      dx2y2   :     0.002178
      dxy     :     0.000548

 15 N s       :     0.004789  s :     0.004789
      pz      :     0.002209  p :     0.136266
      px      :     0.050538
      py      :     0.083520
      dz2     :    -0.000157  d :     0.001338
      dxz     :     0.000371
      dyz     :     0.000314
      dx2y2   :     0.000712
      dxy     :     0.000097

 16 H s       :    -0.000795  s :    -0.000795

 17 H s       :    -0.001829  s :    -0.001829

 18 H s       :    -0.006832  s :    -0.006832

 19 H s       :     0.001397  s :     0.001397



                      *****************************
                      * MAYER POPULATION ANALYSIS *
                      *****************************

  NA   - Mulliken gross atomic population
  ZA   - Total nuclear charge
  QA   - Mulliken gross atomic charge
  VA   - Mayer's total valence
  BVA  - Mayer's bonded valence
  FA   - Mayer's free valence

  ATOM       NA         ZA         QA         VA         BVA        FA
  0 C      6.1961     6.0000    -0.1961     3.7859     3.7433     0.0426
  1 C      5.9958     6.0000     0.0042     3.9912     3.9670     0.0242
  2 C      6.1422     6.0000    -0.1422     3.8784     3.8776     0.0008
  3 C      6.0776     6.0000    -0.0776     3.8795     3.8759     0.0036
  4 C      6.1962     6.0000    -0.1962     3.7859     3.7433     0.0426
  5 C      6.0440     6.0000    -0.0440     4.0132     4.0094     0.0038
  6 N      7.1928     7.0000    -0.1928     3.1181     3.0974     0.0207
  7 H      0.9581     1.0000     0.0419     0.9608     0.9608     0.0000
  8 H      0.9645     1.0000     0.0355     0.9501     0.9501     0.0000
  9 H      0.9724     1.0000     0.0276     0.9536     0.9533     0.0002
 10 H      0.9565     1.0000     0.0435     0.9526     0.9526     0.0000
 11 C      5.9962     6.0000     0.0038     3.9916     3.9675     0.0242
 12 C      6.1422     6.0000    -0.1422     3.8786     3.8778     0.0008
 13 C      6.0777     6.0000    -0.0777     3.8796     3.8760     0.0036
 14 C      6.0444     6.0000    -0.0444     4.0130     4.0092     0.0038
 15 N      7.1921     7.0000    -0.1921     3.1183     3.0976     0.0207
 16 H      0.9580     1.0000     0.0420     0.9608     0.9608     0.0000
 17 H      0.9644     1.0000     0.0356     0.9501     0.9501     0.0000
 18 H      0.9724     1.0000     0.0276     0.9536     0.9533     0.0002
 19 H      0.9564     1.0000     0.0436     0.9526     0.9526     0.0000

  Mayer bond orders larger than 0.100000
B(  0-C , 13-C ) :   1.2818 B(  0-C , 14-C ) :   1.3516 B(  0-C , 18-H ) :   0.9511 
B(  1-C ,  2-C ) :   1.3148 B(  1-C ,  6-N ) :   1.3816 B(  1-C , 11-C ) :   1.1269 
B(  2-C ,  3-C ) :   1.5157 B(  2-C ,  7-H ) :   0.9432 B(  3-C ,  4-C ) :   1.2819 
B(  3-C ,  8-H ) :   0.9583 B(  4-C ,  5-C ) :   1.3517 B(  4-C ,  9-H ) :   0.9509 
B(  5-C ,  6-N ) :   1.5742 B(  5-C , 10-H ) :   0.9579 B( 11-C , 12-C ) :   1.3149 
B( 11-C , 15-N ) :   1.3820 B( 12-C , 13-C ) :   1.5159 B( 12-C , 16-H ) :   0.9430 
B( 13-C , 17-H ) :   0.9583 B( 14-C , 15-N ) :   1.5742 B( 14-C , 19-H ) :   0.9579 


-------
TIMINGS
-------

Total SCF time: 0 days 0 hours 2 min 22 sec 

Total time                  ....     142.511 sec
Sum of individual times     ....     137.135 sec  ( 96.2%)

SCF preparation             ....       1.550 sec  (  1.1%)
Fock matrix formation       ....      82.488 sec  ( 57.9%)
  Startup                   ....      12.298 sec  ( 14.9% of F)
  Split-RI-J                ....      13.299 sec  ( 16.1% of F)
  Chain of spheres X        ....      26.993 sec  ( 32.7% of F)
  XC integration            ....      13.291 sec  ( 16.1% of F)
    XC Preparation          ....       0.000 sec  (  0.0% of XC)
    Basis function eval.    ....       0.763 sec  (  5.7% of XC)
    Density eval.           ....       0.710 sec  (  5.3% of XC)
    XC-Functional eval.     ....       0.184 sec  (  1.4% of XC)
    XC-Potential eval.      ....       0.713 sec  (  5.4% of XC)
Diagonalization             ....       0.000 sec  (  0.0%)
Density matrix formation    ....      22.511 sec  ( 15.8%)
Total Energy calculation    ....       7.110 sec  (  5.0%)
Population analysis         ....       1.736 sec  (  1.2%)
Orbital Transformation      ....       1.388 sec  (  1.0%)
Orbital Orthonormalization  ....       0.000 sec  (  0.0%)
DIIS solution               ....      13.548 sec  (  9.5%)
SOSCF solution              ....       6.805 sec  (  4.8%)
Finished LeanSCF after 143.4 sec

Maximum memory used throughout the entire LEANSCF-calculation: 21.5 MB


           ************************************************************
           *        Program running with 15 parallel MPI-processes    *
           *              working on a common directory               *
           ************************************************************

------------------------------------------------------------------------------
                         ORCA PROPERTY INTEGRAL CALCULATIONS
------------------------------------------------------------------------------

GBWName                                   ... cs_rporg_w01_red_opt_01.gbw
Number of atoms                           ...     20
Number of basis functions                 ...    184
Max core memory                           ...   3500 MB

Dipole integrals                          ... YES
Quadrupole integrals                      ...  NO
Linear momentum integrals                 ...  NO
Angular momentum integrals                ...  NO
Higher moments length integrals           ...  NO
Higher moments velocity integrals         ...  NO
Kinetic energy integrals                  ...  NO
GIAO right hand sides                     ...  NO
GIAO dipole derivative integrals          ...  NO
SOC integrals                             ...  NO
EPR diamagnetic integrals (GIAO)          ...  NO
EPR gauge integrals                       ...  NO
Field gradient integrals                  ...  NO (   0 nuclei)
Spin-dipole/Fermi contact integrals       ...  NO (   0 nuclei)
Contact density integrals                 ...  NO (   0 nuclei)
Nucleus-orbit integrals                   ...  NO (   0 nuclei)
Geometric perturbations                   ...  NO (  20 nuclei)

Choice of electric origin   ... Center of mass
Position of electric origin ... ( -0.1319, -0.0642, -0.0070) 
Choice of magnetic origin   ... GIAO
Position of magnetic origin ... (  0.0000,  0.0000,  0.0000) 

[...]
     41       0.027115  -0.029594   0.005268   0.004491  -0.010835   0.009613
     42      -0.001446   0.001177  -0.004094   0.007135  -0.005603   0.001574
     43      -0.000352   0.000281  -0.001052   0.001835  -0.001438   0.000390
     44      -0.001315   0.001493  -0.000563   0.000892  -0.000893   0.001067
     45      -0.000116   0.000103   0.000444  -0.000223   0.000028   0.000206
     46      -0.000031   0.000032   0.000101  -0.000054   0.000012   0.000054
     47       0.000068  -0.000308   0.000723  -0.000226  -0.000208  -0.000143
     48      -0.162465   0.127097   0.468393  -0.124739  -0.323522   0.565117
     49      -0.040761   0.031868   0.117455  -0.031283  -0.081100   0.141586
     50      -0.095276   0.074442   0.278004  -0.073000  -0.193342   0.338326
     51       0.537406  -0.579742   0.051905   0.118981  -0.199653   0.145235
     52       0.145485  -0.156952   0.014114   0.032153  -0.054033   0.039356
     53      -0.310817   0.335499  -0.033525  -0.065459   0.114323  -0.085664
     54       0.005135  -0.005894   0.018374  -0.030785   0.024894  -0.006656
     55      -0.001233   0.001435  -0.002605   0.003620  -0.002524   0.000371
     56       0.150072  -0.173482   0.430050  -0.676340   0.523154  -0.122128
     57       0.014364  -0.012275   0.029757  -0.053266   0.042924  -0.015977
     58       0.003587  -0.003064   0.007490  -0.013401   0.010798  -0.004011
     59       0.007875  -0.006699   0.012864  -0.023252   0.018657  -0.007575


-----------
IR SPECTRUM
-----------

 Mode   freq       eps      Int      T**2         TX        TY        TZ
       cm**-1   L/(mol*cm) km/mol    a.u.
----------------------------------------------------------------------------
  6:     52.63   0.000000    0.00  0.000000  (-0.000207  0.000059 -0.000371)
  7:     83.84   0.000185    0.94  0.000689  (-0.006531  0.025423  0.000427)
  8:    157.12   0.000001    0.00  0.000001  ( 0.001170  0.000217  0.000033)
  9:    171.61   0.000394    1.99  0.000716  (-0.025908 -0.006641 -0.000989)
 10:    339.60   0.000010    0.05  0.000009  (-0.002988 -0.000725 -0.000094)
 11:    373.12   0.001520    7.68  0.001271  ( 0.008938 -0.034497 -0.001170)
 12:    431.14   0.000644    3.25  0.000466  ( 0.000708  0.000693 -0.021562)
 13:    437.63   0.000005    0.03  0.000004  ( 0.000245 -0.001887  0.000206)
 14:    438.03   0.001076    5.44  0.000766  (-0.006861  0.026819  0.000073)
 15:    511.63   0.000000    0.00  0.000000  (-0.000255 -0.000039 -0.000172)
 16:    598.21   0.000003    0.01  0.000001  (-0.000000  0.000088 -0.001214)
 17:    632.19   0.000855    4.32  0.000422  ( 0.019919  0.004960  0.000852)
 18:    654.12   0.000272    1.37  0.000130  (-0.000403 -0.000440  0.011371)
 19:    666.69   0.016524   83.51  0.007735  (-0.021908  0.085163  0.001414)
 20:    683.15   0.000000    0.00  0.000000  (-0.000172 -0.000203 -0.000187)
 21:    721.80   0.000205    1.03  0.000089  ( 0.002292 -0.009120 -0.000280)
 22:    735.15   0.000000    0.00  0.000000  ( 0.000285  0.000052  0.000330)
 23:    768.20   0.000000    0.00  0.000000  (-0.000392 -0.000147 -0.000115)
 24:    790.79   0.003138   15.86  0.001238  ( 0.008821 -0.034057 -0.000869)
 25:    824.19   0.000000    0.00  0.000000  (-0.000268 -0.000052 -0.000133)
 26:    947.59   0.000000    0.00  0.000000  (-0.000161 -0.000037  0.000126)
 27:    951.14   0.000001    0.01  0.000000  ( 0.000152 -0.000651 -0.000083)
 28:    954.16   0.000000    0.00  0.000000  ( 0.000064  0.000008  0.000323)
 29:    959.13   0.000003    0.02  0.000001  ( 0.000330 -0.000971 -0.000214)
 30:    977.29   0.019302   97.54  0.006163  (-0.002876 -0.002107  0.078426)
 31:    991.51   0.001315    6.65  0.000414  ( 0.019672  0.005046  0.001245)
 32:   1034.71   0.031162  157.48  0.009398  (-0.003227 -0.002563  0.096856)
 33:   1053.54   0.000380    1.92  0.000113  (-0.010265 -0.002660  0.000300)
 34:   1063.29   0.000579    2.93  0.000170  ( 0.000524  0.000329 -0.013025)
 35:   1092.61   0.000066    0.33  0.000019  ( 0.004181  0.001055  0.000363)
 36:   1105.17   0.004100   20.72  0.001158  (-0.001217 -0.000900  0.033990)
 37:   1151.23   0.004266   21.56  0.001156  ( 0.001300  0.000895 -0.033970)
 38:   1168.34   0.003081   15.57  0.000823  (-0.027763 -0.007110 -0.001249)
 39:   1237.49   0.000741    3.74  0.000187  ( 0.013227  0.003414  0.000520)
 40:   1317.82   0.000029    0.15  0.000007  ( 0.000113  0.000079 -0.002625)
 41:   1379.52   0.004525   22.87  0.001024  (-0.030989 -0.007927 -0.000625)
 42:   1380.60   0.004967   25.10  0.001123  (-0.000569 -0.000826  0.033491)
 43:   1396.68   0.000885    4.47  0.000198  ( 0.013612  0.003477  0.000634)
 44:   1446.04   0.010378   52.45  0.002240  ( 0.045806  0.011751  0.001844)
 45:   1458.33   0.014058   71.04  0.003008  (-0.001797 -0.001408  0.054800)
 46:   1508.59   0.000041    0.21  0.000008  ( 0.000063 -0.000014 -0.002907)
 47:   1515.92   0.003708   18.74  0.000763  ( 0.026739  0.006845  0.001183)
 48:   1533.13   0.024965  126.17  0.005082  ( 0.002554  0.001824 -0.071216)
 49:   1568.18   0.000294    1.49  0.000059  ( 0.007400  0.001898  0.000472)
 50:   1662.14   0.169060  854.36  0.031741  ( 0.006228  0.004757 -0.177987)
 51:   1689.87   0.000738    3.73  0.000136  ( 0.011281  0.002877  0.000822)
 52:   3068.56   0.025693  129.84  0.002613  ( 0.001792  0.001225 -0.051070)
 53:   3070.15   0.032476  164.12  0.003301  ( 0.055633  0.014171  0.002265)
 54:   3147.75   0.003562   18.00  0.000353  ( 0.000322 -0.000329  0.018787)
 55:   3148.87   0.010621   53.67  0.001053  ( 0.031423  0.008032  0.000766)
 56:   3188.05   0.003637   18.38  0.000356  ( 0.000662  0.000369 -0.018852)
 57:   3193.09   0.000809    4.09  0.000079  ( 0.008581  0.002141  0.000937)
 58:   3195.67   0.012375   62.54  0.001208  ( 0.001304  0.000967 -0.034725)
 59:   3206.66   0.009611   48.57  0.000935  (-0.029626 -0.007498 -0.001197)

* The epsilon (eps) is given for a Dirac delta lineshape.
** The dipole moment derivative (T) already includes vibrational overlap.

The first frequency considered to be a vibration is 6
The total number of vibrations considered is 54


--------------------------
THERMOCHEMISTRY AT 298.15K
--------------------------

Temperature         ...   298.15 K
Pressure            ...     1.00 atm
Total Mass          ...   156.19 AMU
Quasi RRHO          ...     True
Cut-Off Frequency   ...     1.00 cm^-1

Throughout the following assumptions are being made:
  (1) The electronic state is orbitally nondegenerate
      but the spin degeneracy is treated
  (2) There are no thermally accessible electronically excited states
  (3) Hindered rotations indicated by low frequency modes are not
      treated as such but are treated as vibrations and this may
      cause some error
  (4) All equations used are the standard statistical mechanics
      equations for an ideal gas
  (5) All vibrations are strictly harmonic

freq.      52.63  E(vib)   ...       0.52 
freq.      83.84  E(vib)   ...       0.48 
freq.     157.12  E(vib)   ...       0.40 
freq.     171.61  E(vib)   ...       0.38 
freq.     339.60  E(vib)   ...       0.23 
freq.     373.12  E(vib)   ...       0.21 
freq.     431.14  E(vib)   ...       0.18 
freq.     437.63  E(vib)   ...       0.17 
freq.     438.03  E(vib)   ...       0.17 
freq.     511.63  E(vib)   ...       0.14 
freq.     598.21  E(vib)   ...       0.10 
freq.     632.19  E(vib)   ...       0.09 
freq.     654.12  E(vib)   ...       0.08 
freq.     666.69  E(vib)   ...       0.08 
freq.     683.15  E(vib)   ...       0.08 
freq.     721.80  E(vib)   ...       0.07 
freq.     735.15  E(vib)   ...       0.06 
freq.     768.20  E(vib)   ...       0.06 
freq.     790.79  E(vib)   ...       0.05 
freq.     824.19  E(vib)   ...       0.04 
freq.     947.59  E(vib)   ...       0.03 
freq.     951.14  E(vib)   ...       0.03 
freq.     954.16  E(vib)   ...       0.03 
freq.     959.13  E(vib)   ...       0.03 
freq.     977.29  E(vib)   ...       0.03 
freq.     991.51  E(vib)   ...       0.02 
freq.    1034.71  E(vib)   ...       0.02 
freq.    1053.54  E(vib)   ...       0.02 
freq.    1063.29  E(vib)   ...       0.02 
freq.    1092.61  E(vib)   ...       0.02 
freq.    1105.17  E(vib)   ...       0.02 
freq.    1151.23  E(vib)   ...       0.01 
freq.    1168.34  E(vib)   ...       0.01 
freq.    1237.49  E(vib)   ...       0.01 
freq.    1317.82  E(vib)   ...       0.01 
freq.    1379.52  E(vib)   ...       0.01 
freq.    1380.60  E(vib)   ...       0.01 
freq.    1396.68  E(vib)   ...       0.00 
freq.    1446.04  E(vib)   ...       0.00 
freq.    1458.33  E(vib)   ...       0.00 
freq.    1508.59  E(vib)   ...       0.00 
freq.    1515.92  E(vib)   ...       0.00 
freq.    1533.13  E(vib)   ...       0.00 
freq.    1568.18  E(vib)   ...       0.00 
freq.    1662.14  E(vib)   ...       0.00 
freq.    1689.87  E(vib)   ...       0.00 
freq.    3068.56  E(vib)   ...       0.00 
freq.    3070.15  E(vib)   ...       0.00 
freq.    3147.75  E(vib)   ...       0.00 
freq.    3148.87  E(vib)   ...       0.00 
freq.    3188.05  E(vib)   ...       0.00 
freq.    3193.09  E(vib)   ...       0.00 
freq.    3195.67  E(vib)   ...       0.00 
freq.    3206.66  E(vib)   ...       0.00 

------------
INNER ENERGY
------------

The inner energy is: U= E(el) + E(ZPE) + E(vib) + E(rot) + E(trans)
    E(el)   - is the total energy from the electronic structure calculation
              = E(kin-el) + E(nuc-el) + E(el-el) + E(nuc-nuc)
    E(ZPE)  - the the zero temperature vibrational energy from the frequency calculation
    E(vib)  - the the finite temperature correction to E(ZPE) due to population
              of excited vibrational states
    E(rot)  - is the rotational thermal energy
    E(trans)- is the translational thermal energy

Summary of contributions to the inner energy U:
Electronic energy                ...   -494.44617854 Eh
Zero point energy                ...      0.15453656 Eh      96.97 kcal/mol
Thermal vibrational correction   ...      0.00623251 Eh       3.91 kcal/mol
Thermal rotational correction    ...      0.00141627 Eh       0.89 kcal/mol
Thermal translational correction ...      0.00141627 Eh       0.89 kcal/mol
-----------------------------------------------------------------------
Total thermal energy                   -494.28257693 Eh


Summary of corrections to the electronic energy:
(perhaps to be used in another calculation)
Total thermal correction                  0.00906505 Eh       5.69 kcal/mol
Non-thermal (ZPE) correction              0.15453656 Eh      96.97 kcal/mol
-----------------------------------------------------------------------
Total correction                          0.16360161 Eh     102.66 kcal/mol


--------
ENTHALPY
--------

The enthalpy is H = U + kB*T
                kB is Boltzmann's constant
Total thermal energy              ...   -494.28257693 Eh 
Thermal Enthalpy correction       ...      0.00094421 Eh       0.59 kcal/mol
-----------------------------------------------------------------------
Total Enthalpy                    ...   -494.28163272 Eh


Note: Only C1 symmetry has been detected, increase convergence thresholds 
      if your molecule has a higher symmetry. Symmetry factor of 1.0 is   
      used for the rotational entropy correction. 
 

Note: Rotational entropy computed according to Herzberg 
Infrared and Raman Spectra, Chapter V,1, Van Nostrand Reinhold, 1945 
Point Group:  C1, Symmetry Number:   1  
Rotational constants in cm-1:     0.097712     0.019197     0.016045 

Vibrational entropy computed according to the QRRHO of S. Grimme
Chem.Eur.J. 2012 18 9955 using a reference frequency of 100.0 cm-1


-------
ENTROPY
-------

The entropy contributions are T*S = T*(S(el)+S(vib)+S(rot)+S(trans))
     S(el)   - electronic entropy
     S(vib)  - vibrational entropy
     S(rot)  - rotational entropy
     S(trans)- translational entropy
The entropies will be listed as multiplied by the temperature to get
units of energy

Electronic entropy                ...      0.00065446 Eh      0.41 kcal/mol
Vibrational entropy               ...      0.01029032 Eh      6.46 kcal/mol
Rotational entropy                ...      0.01442578 Eh      9.05 kcal/mol
Translational entropy             ...      0.01950274 Eh     12.24 kcal/mol
-----------------------------------------------------------------------
Final entropy term                ...      0.04487330 Eh     28.16 kcal/mol

In case the symmetry of your molecule has not been determined correctly
or in case you have a reason to use a different symmetry number we print 
out the resulting rotational entropy values for sn=1,12:

 non-linear molecules -----------------------------------
|  sn= 1 | S(rot)=       0.01442578 Eh      9.05 kcal/mol|
|  sn= 2 | S(rot)=       0.01377132 Eh      8.64 kcal/mol|
|  sn= 3 | S(rot)=       0.01338849 Eh      8.40 kcal/mol|
|  sn= 4 | S(rot)=       0.01311687 Eh      8.23 kcal/mol|
|  sn= 5 | S(rot)=       0.01290618 Eh      8.10 kcal/mol|
|  sn= 6 | S(rot)=       0.01273403 Eh      7.99 kcal/mol|
|  sn= 7 | S(rot)=       0.01258849 Eh      7.90 kcal/mol|
|  sn= 8 | S(rot)=       0.01246241 Eh      7.82 kcal/mol|
|  sn= 9 | S(rot)=       0.01235120 Eh      7.75 kcal/mol|
|  sn=10 | S(rot)=       0.01225172 Eh      7.69 kcal/mol|
|  sn=11 | S(rot)=       0.01216173 Eh      7.63 kcal/mol|
|  sn=12 | S(rot)=       0.01207958 Eh      7.58 kcal/mol|
 linear molecules ---------------------------------------
|  Dinfh | S(rot)=       0.00922750 Eh      5.79 kcal/mol|
|  Cinfv | S(rot)=       0.00988195 Eh      6.20 kcal/mol|
 --------------------------------------------------------


-------------------
GIBBS FREE ENERGY
-------------------

The Gibbs free energy is G = H - T*S

Total enthalpy                    ...   -494.28163272 Eh 
Total entropy correction          ...     -0.04487330 Eh    -28.16 kcal/mol
-----------------------------------------------------------------------
Final Gibbs free energy         ...   -494.32650602 Eh

For completeness - the Gibbs free energy minus the electronic energy
G-E(el)                           ...      0.11967252 Eh     75.10 kcal/mol


Maximum memory used throughout the entire PROP-calculation: 110.3 MB

--------------------------------
SUGGESTED CITATIONS FOR THIS RUN
--------------------------------

Below you find a list of papers that are relevant to this ORCA run
We neither can nor want to force you to cite these papers, but we appreciate if you do
You receive ORCA, which is the product of decades of hard work by many enthusiastic individuals, for free
The only thing we kindly ask in return is that you cite our papers,
We deeply appreciate it, if you show your appreciation for ORCA by not just citing the generic ORCA reference.

Please note that relegating all ORCA citations to the supporting information does *not* help us.
SI sections are not indexed - citations you put there will not count into any citation statistics
But we need these citations in order to attract the funding resources that allow us to do what we are doing

Therefore, if you are a happy ORCA user, please consider citing a few of the papers listed below in the main body of your paper

In addition to the list printed below, the program has created the file cs_rporg_w01_red_opt_01.bibtex that contains the list in bibtex format
You can import this file easily into all common literature databanks and citation aid programs


List of essential papers. We consider these as the minimum necessary citations

  1. Neese,F.
     Software update: the ORCA program system, version 5.0
     WIRES Comput. Molec. Sci., 2022 12(1)e1606
     doi.org/10.1002/wcms.1606

List of papers to cite with high priority. The work reported in these papers was absolutely
necessary for this run to complete.
Our perspective: the developers of density functionals and basis sets usually get cited in chemistry papers
Good! But without the algorithms to do something with them, the functionals or basis sets would not do anything.
Hence, in our opinion, the algorithm design and method developments papers are equally worthy of getting cited

  1. Neese,F.
     An improvement of the resolution of the identity approximation for the formation of the Coulomb matrix
     J. Comp. Chem., 2003 24(14)1740-1747
     doi.org/10.1002/jcc.10318
  2. Neese,F.; Wennmohs,F.; Hansen,A.; Becker,U.
     Efficient, approximate and parallel Hartree-Fock and hybrid DFT calculations. A 'chain-of-spheres' algorithm for the Hartree-Fock exchange
     Chem. Phys., 2009 356(1-3)98-109
     doi.org/10.1016/j.chemphys.2008.10.036
  3. Bykov,D.; Petrenko,T.; Izsak,R.; Kossmann,S.; Becker,U.; Valeev,E.; Neese,F.
     Efficient implementation of the analytic second derivatives of Hartree-Fock and hybrid DFT energies: a detailed analysis of different approximations
     Molec. Phys., 2015 113 1961-1977
     doi.org/10.1080/00268976.2015.1025114
  4. Helmich-Paris,B.; de Souza,B.; Neese,F.; Izsák,R.
     An improved chain of spheres for exchange algorithm
     J. Chem. Phys., 2021 155 104109
     doi.org/doi: 10.1063/5.0058766.
  5. Neese,F.
     The SHARK Integral Generation and Digestion System
     J. Comp. Chem., 2022  1-16
     doi.org/10.1002/jcc.26942
  6. Grimme,S.; Antony,J.; Ehrlich,S.; Krieg,H.
     A consistent and accurate ab initio parametrization of density functional dispersion correction (DFT-D) for the 94 elements H-Pu
     J. Chem. Phys., 2010 132 154104-XXXX
     doi.org/10.1063/1.3382344
  7. Grimme,S.; Ehrlich,S.; Goerigk,L.
     Effect of the damping function in dispersion corrected density functional theory
     J. Comput. Chem., 2011 32(7)1456-1465
     doi.org/10.1002/jcc.21759

List of suggested additional citations. These are papers that are important in the 'surrounding' of 
of this run, or papers that preceded the highly important papers. If you like your results we are grateful for a citation.

  1. Izsak,R.; Neese,F.
     An overlap fitted chain of spheres exchange method
     J. Chem. Phys., 2011 135 144105
     doi.org/10.1063/1.3646921
  2. Izsak,R.; Hansen,A.; Neese,F.
     The resolution of identity and chain of spheres approximations for the LPNO-CCSD singles Fock term
     Molec. Phys., 2012 110 2413-2417
     doi.org/10.1080/00268976.2012.687466
  3. Neese,F.
     The ORCA program system
     WIRES Comput. Molec. Sci., 2012 2(1)73-78
     doi.org/10.1002/wcms.81
  4. Izsak,R.; Neese,F.; Klopper,W.
     Robust fitting techniques in the chain of spheres approximation to the Fock exchange: The role of the complementary space
     J. Chem. Phys., 2013 139 
     doi.org/10.1063/1.4819264
  5. Neese,F.
     Software update: the ORCA program system, version 4.0
     WIRES Comput. Molec. Sci., 2018 8(1)1-6
     doi.org/10.1002/wcms.1327
  6. Neese,F.; Wennmohs,F.; Becker,U.; Riplinger,C.
     The ORCA quantum chemistry program package
     J. Chem. Phys., 2020 152 Art. No. L224108
     doi.org/10.1063/5.0004608

List of optional additional citations

  1. Neese,F.
     Approximate second-order SCF convergence for spin unrestricted wavefunctions
     Chem. Phys. Lett., 2000 325(1-3)93-98
     doi.org/10.1016/s0009-2614(00)00662-x

Timings for individual modules:

Sum of individual times          ...     1639.913 sec (=  27.332 min)
Startup calculation              ...       54.537 sec (=   0.909 min)   3.3 %
SCF iterations                   ...      926.311 sec (=  15.439 min)  56.5 %
Property integrals               ...       67.760 sec (=   1.129 min)   4.1 %
SCF Response                     ...      434.923 sec (=   7.249 min)  26.5 %
Property calculations            ...       73.869 sec (=   1.231 min)   4.5 %
SCF Gradient evaluation          ...       81.777 sec (=   1.363 min)   5.0 %
Geometry relaxation              ...        0.736 sec (=   0.012 min)   0.0 %
                             ****ORCA TERMINATED NORMALLY****
TOTAL RUN TIME: 0 days 0 hours 28 minutes 6 seconds 747 msec
