
                                 *****************
                                 * O   R   C   A *
                                 *****************

                                            #,                                       
                                            ###                                      
                                            ####                                     
                                            #####                                    
                                            ######                                   
                                           ########,                                 
                                     ,,################,,,,,                         
                               ,,#################################,,                 
                          ,,##########################################,,             
                       ,#########################################, ''#####,          
                    ,#############################################,,   '####,        
                  ,##################################################,,,,####,       
                ,###########''''           ''''###############################       
              ,#####''   ,,,,##########,,,,          '''####'''          '####       
            ,##' ,,,,###########################,,,                        '##       
           ' ,,###''''                  '''############,,,                           
         ,,##''                                '''############,,,,        ,,,,,,###''
      ,#''                                            '''#######################'''  
     '                                                          ''''####''''         
             ,#######,   #######,   ,#######,      ##                                
            ,#'     '#,  ##    ##  ,#'     '#,    #''#        ,####,   ,####,        
            ##       ##  ##   ,#'  ##            #'  '#       #'       #'  '#        
            ##       ##  #######   ##           ,######,      #####,   #    #        
            '#,     ,#'  ##    ##  '#,     ,#' ,#      #,     #,   #   #,  ,#        
             '#######'   ##     ##  '#######'  #'      '#     '####' # '####'        



                #########################################################
                #                        -***-                          #
                #          Department of theory and spectroscopy        #
                #                                                       #
                #                      Frank Neese                      #
                #                                                       #
                #     Directorship, Architecture, Infrastructure        #
                #                    SHARK, DRIVERS                     #
                #        Core code/Algorithms in most modules           #
                #                                                       #
                #        Max Planck Institute fuer Kohlenforschung      #
                #                Kaiser Wilhelm Platz 1                 #
                #                 D-45470 Muelheim/Ruhr                 #
                #                      Germany                          #
                #                                                       #
                #                  All rights reserved                  #
                #                        -***-                          #
                #########################################################


                         Program Version 6.0.0  -   RELEASE  -


 With contributions from (in alphabetic order):
   Daniel Aravena         : Magnetic Suceptibility
   Michael Atanasov       : Ab Initio Ligand Field Theory (pilot matlab implementation)
   Alexander A. Auer      : GIAO ZORA, VPT2 properties, NMR spectrum
   Ute Becker             : All parallelization in ORCA, NUMFREQ, NUMCALC
   Giovanni Bistoni       : ED, misc. LED, open-shell LED, HFLD
   Martin Brehm           : Molecular dynamics
   Dmytro Bykov           : pre 5.0 version of the SCF Hessian
   Marcos Casanova-Páez   : Triplet and SCS-CIS(D). UHF-(DLPNO)-IP/EA/STEOM-CCSD. UHF-CVS-IP/STEOM-CCSD
   Vijay G. Chilkuri      : MRCI spin determinant printing, contributions to CSF-ICE
   Pauline Colinet        : FMM embedding
   Dipayan Datta          : RHF DLPNO-CCSD density
   Achintya Kumar Dutta   : EOM-CC, STEOM-CC
   Nicolas Foglia         : Exact transition moments, OPA infrastructure, MCD improvements
   Dmitry Ganyushin       : Spin-Orbit,Spin-Spin,Magnetic field MRCI
   Miquel Garcia          : C-PCM and meta-GGA Hessian, CCSD/C-PCM, Gaussian charge scheme
   Tiago L. C. Gouveia    : GS-ROHF, GS-ROCIS
   Yang Guo               : DLPNO-NEVPT2, F12-NEVPT2, CIM, IAO-localization
   Andreas Hansen         : Spin unrestricted coupled pair/coupled cluster methods
   Ingolf Harden          : AUTO-CI MPn and infrastructure 
   Benjamin Helmich-Paris : MC-RPA, TRAH-(SCF,CASSCF), AVAS, COSX integrals, SCF dyn. polar.
   Lee Huntington         : MR-EOM, pCC
   Robert Izsak           : Overlap fitted RIJCOSX, COSX-SCS-MP3, EOM
   Riya Kayal             : Wick's Theorem for AUTO-CI, AUTO-CI UHF-CCSDT
   Emily Kempfer          : AUTO-CI, RHF CISDT and CCSDT
   Christian Kollmar      : KDIIS, OOCD, Brueckner-CCSD(T), CCSD density, CASPT2, CASPT2-K, improved NEVPT2
   Axel Koslowski         : Symmetry handling
   Simone Kossmann        : Meta GGA functionals, TD-DFT gradient, OOMP2, (MP2 Hessian; deprecated post 5.0)
   Lucas Lang             : DCDCAS
   Marvin Lechner         : AUTO-CI (C++ implementation), FIC-MRCC
   Spencer Leger          : CASSCF response
   Dagmar Lenk            : GEPOL surface, SMD, ORCA-2-JSON
   Dimitrios Liakos       : Extrapolation schemes; Compound Job, initial MDCI parallelization
   Dimitrios Manganas     : Further ROCIS development; embedding schemes. LFT, Crystal Embedding
   Dimitrios Pantazis     : SARC Basis sets
   Anastasios Papadopoulos: AUTO-CI, single reference methods and gradients
   Taras Petrenko         : pre 6.0 DFT Hessian and TD-DFT gradient, (ASA, deprecated), ECA, 1-Electron XAS/XES, NRVS
   Peter Pinski           : DLPNO-MP2, DLPNO-MP2 Gradient
   Christoph Reimann      : Effective Core Potentials
   Marius Retegan         : Local ZFS, SOC
   Christoph Riplinger    : Optimizer, TS searches, QM/MM, DLPNO-CCSD(T), (RO)-DLPNO pert. Triples
   Michael Roemelt        : Original ROCIS implementation
   Masaaki Saitow         : Open-shell DLPNO-CCSD energy and density
   Barbara Sandhoefer     : DKH picture change effects
   Kantharuban Sivalingam : CASSCF convergence/infrastructure, NEVPT2 and variants, FIC-MRCI
   Bernardo de Souza      : ESD, SOC TD-DFT
   Georgi Stoychev        : AutoAux, RI-MP2 NMR, DLPNO-MP2 response, X2C
   Van Anh Tran           : RI-MP2 g-tensors
   Willem Van den Heuvel  : Paramagnetic NMR
   Zikuan Wang            : NOTCH, Electric field optimization 
   Frank Wennmohs         : Technical directorship and infrastructure
   Hang Xu                : AUTO-CI-Response properties 


 We gratefully acknowledge several colleagues who have allowed us to
 interface, adapt or use parts of their codes:
   Stefan Grimme, W. Hujo, H. Kruse, P. Pracht,  : VdW corrections, initial TS optimization,
                  C. Bannwarth, S. Ehlert,         DFT functionals, gCP, sTDA/sTD-DF
                  L. Wittmann, M. Mueller
   Ed Valeev, F. Pavosevic, A. Kumar             : LibInt (2-el integral package), F12 methods
   Garnet Chan, S. Sharma, J. Yang, R. Olivares  : DMRG
   Ulf Ekstrom                                   : XCFun DFT Library
   Mihaly Kallay                                 : mrcc  (arbitrary order and MRCC methods)
   Frank Weinhold                                : gennbo (NPA and NBO analysis)
   Simon Mueller                                 : openCOSMO-RS
   Christopher J. Cramer and Donald G. Truhlar   : smd solvation model
   Lars Goerigk                                  : TD-DFT with DH, B97 family of functionals
   V. Asgeirsson, H. Jonsson                     : NEB implementation
   FAccTs GmbH                                   : IRC, NEB, NEB-TS, DLPNO-Multilevel, CI-OPT
                                                   MM, QMMM, 2- and 3-layer-ONIOM, Crystal-QMMM,
                                                   LR-CPCM, SF, NACMEs, symmetry and pop. for TD-DFT,
                                                   nearIR, NL-DFT gradient (VV10), updates on ESD,
                                                   ML-optimized integration grids, MBIS, APM,
                                                   GOAT, DOCKER, SOLVATOR, interface openCOSMO-RS
   S Lehtola, MJT Oliveira, MAL Marques          : LibXC Library
   Liviu Ungur et al                             : ANISO software


 Your calculation uses the libint2 library for the computation of 2-el integrals
 For citations please refer to: http://libint.valeyev.net

 Your ORCA version has been built with support for libXC version: 6.2.2
 For citations please refer to: https://libxc.gitlab.io

 This ORCA versions uses:
   CBLAS   interface :  Fast vector & matrix operations
   LAPACKE interface :  Fast linear algebra routines
   SCALAPACK package :  Parallel linear algebra routines
   Shared memory     :  Shared parallel matrices
   BLAS/LAPACK       :  OpenBLAS 0.3.27  USE64BITINT DYNAMIC_ARCH NO_AFFINITY SkylakeX SINGLE_THREADED
        Core in use  :  SkylakeX
   Copyright (c) 2011-2014, The OpenBLAS Project


NOTE: MaxCore=3000 MB was set to SCF,MP2,MDCI,CIPSI,MRCI and CIS
      => If you want to overwrite this, your respective input block should be placed after the MaxCore statement
Your calculation utilizes the atom-pairwise dispersion correction
with the Becke-Johnson damping scheme (D3BJ)


Your calculation utilizes the SMD solvation module
Please cite in your paper:
A.V. Marenich, C.J. Cramer, D.G. Truhlar J. Phys. Chem. B, 113, (2009), 6378 

Warning: RI is on but no J-basis has been assigned. Assigning Def2/J (nothing to worry about!)
================================================================================

----- Orbital basis set information -----
Your calculation utilizes the basis: aug-cc-pVTZ 
    H, B-Ne : Obtained from the ccRepo (grant-hill.group.shef.ac.uk/ccrepo) Feb. 2017
              R. A. Kendall, T. H. Dunning, Jr., R. J. Harrison, J. Chem. Phys. 96, 6796 (1992)
         He : Obtained from the ccRepo (grant-hill.group.shef.ac.uk/ccrepo) Feb. 2017
              D. E. Woon, T. H. Dunning, Jr., J. Chem. Phys. 100, 2975 (1994)
  Li-Be, Na : Obtained from the ccRepo (grant-hill.group.shef.ac.uk/ccrepo) Feb. 2017
              B. P. Prascher, D. E. Woon, K. A. Peterson, T. H. Dunning, Jr., A. K. Wilson, Theor. Chem. Acc. 128, 69 (2011)
         Mg : Obtained from the Peterson Research Group Website (tyr0.chem.wsu.edu/~kipeters) Feb. 2017
              B. P. Prascher, D. E. Woon, K. A. Peterson, T. H. Dunning, Jr., A. K. Wilson, Theor. Chem. Acc. 128, 69 (2011)
      Al-Ar : Obtained from the ccRepo (grant-hill.group.shef.ac.uk/ccrepo) Feb. 2017
              D. E. Woon, T. H. Dunning, Jr., J. Chem. Phys. 98, 1358 (1993)
      Sc-Zn : Obtained from the ccRepo (grant-hill.group.shef.ac.uk/ccrepo) Feb. 2017
              N. B. Balabanov, K. A. Peterson, J. Chem. Phys. 123, 064107 (2005)
              N. B. Balabanov, K. A. Peterson, J. Chem. Phys. 125, 074110 (2006)
      Ga-Kr : Obtained from the ccRepo (grant-hill.group.shef.ac.uk/ccrepo) Feb. 2017
              A. K. Wilson, D. E. Woon, K. A. Peterson, T. H. Dunning, Jr., J. Chem. Phys. 110, 7667 (1999)
     Ag, Au : Obtained from the Peterson Research Group Website (tyr0.chem.wsu.edu/~kipeters) Feb. 2017
              K. A. Peterson, C. Puzzarini, Theor. Chem. Acc. 114, 283 (2005)

----- AuxJ basis set information -----
Your calculation utilizes the auxiliary basis: def2/J
   F. Weigend, Phys. Chem. Chem. Phys. 8, 1057 (2006).

================================================================================
                                        WARNINGS
                       Please study these warnings very carefully!
================================================================================


WARNING: your system is open-shell and RHF/RKS was chosen
  ===> : WILL SWITCH to UHF/UKS


================================================================================
                                       INPUT FILE
================================================================================
NAME = cs_rporg_074_ox_solv_01.inp
|  1> !TPSSh aug-cc-pVTZ d3 TightSCF SlowConv RIJCOSX defgrid2
|  2>  
|  3> %pal
|  4> nprocs 4
|  5> end
|  6>  
|  7> %scf
|  8> MaxIter 1500
|  9> end
| 10>  
| 11> %maxcore 3000
| 12>  
| 13> !CPCM
| 14> %cpcm smd true
| 15> SMDsolvent "MeCN"
| 16> surfacetype gepol_ses
| 17> rsolv 2.19
| 18> end 
| 19>  
| 20> * xyz 1 2
| 21> C          -1.44785730295075      0.00004383668014      0.19466020963487
| 22> C          -0.70463361625558     -1.25916288948137     -0.22052956548119
| 23> C           0.75402143901141     -1.23290095960195      0.33947310722511
| 24> N           1.35243621618336     -0.00003237928940     -0.05272629159437
| 25> H           2.03239855808840     -0.00001354242890     -0.81929831940591
| 26> C           0.75406824525088      1.23284300442693      0.33954722989484
| 27> C          -0.70453653205886      1.25917936755808     -0.22058410201994
| 28> H          -1.17735315978030      2.17530279259209      0.17075301961950
| 29> H          -0.65902932856967      1.35407679956949     -1.31943227945387
| 30> H           1.35320797568110      2.07738723598631     -0.02945728358028
| 31> H           0.70381655246538      1.26167123212667      1.44376020833185
| 32> H           1.35302530838177     -2.07746967992292     -0.02968877997992
| 33> H           0.70390247903722     -1.26179946828858      1.44369537598949
| 34> H          -1.17752329445998     -2.17518232566056      0.17094554694672
| 35> H          -0.65911553793050     -1.35406143771193     -1.31937325462627
| 36> H          -2.44852309487375      0.00006008079951     -0.27520329299314
| 37> H          -1.61728600722014      0.00008813264640      1.28682627149251
| 38> *
| 39> 
| 40>                          ****END OF INPUT****
================================================================================

                       ****************************
                       * Single Point Calculation *
                       ****************************

---------------------------------
CARTESIAN COORDINATES (ANGSTROEM)
---------------------------------
  C     -1.447857    0.000044    0.194660
  C     -0.704634   -1.259163   -0.220530
  C      0.754021   -1.232901    0.339473
  N      1.352436   -0.000032   -0.052726
  H      2.032399   -0.000014   -0.819298
  C      0.754068    1.232843    0.339547
  C     -0.704537    1.259179   -0.220584
  H     -1.177353    2.175303    0.170753
  H     -0.659029    1.354077   -1.319432
  H      1.353208    2.077387   -0.029457
  H      0.703817    1.261671    1.443760
  H      1.353025   -2.077470   -0.029689
  H      0.703902   -1.261799    1.443695
  H     -1.177523   -2.175182    0.170946
  H     -0.659116   -1.354061   -1.319373
  H     -2.448523    0.000060   -0.275203
  H     -1.617286    0.000088    1.286826

----------------------------
CARTESIAN COORDINATES (A.U.)
----------------------------
  NO LB      ZA    FRAG     MASS         X           Y           Z
   0 C     6.0000    0    12.011   -2.736054    0.000083    0.367854
   1 C     6.0000    0    12.011   -1.331565   -2.379473   -0.416740
   2 C     6.0000    0    12.011    1.424894   -2.329845    0.641511
   3 N     7.0000    0    14.007    2.555734   -0.000061   -0.099638
   4 H     1.0000    0     1.008    3.840677   -0.000026   -1.548249
   5 C     6.0000    0    12.011    1.424982    2.329736    0.641651
   6 C     6.0000    0    12.011   -1.331381    2.379504   -0.416844
   7 H     1.0000    0     1.008   -2.224875    4.110727    0.322676
   8 H     1.0000    0     1.008   -1.245385    2.558834   -2.493366
   9 H     1.0000    0     1.008    2.557192    3.925693   -0.055666
  10 H     1.0000    0     1.008    1.330021    2.384213    2.728311
  11 H     1.0000    0     1.008    2.556847   -3.925849   -0.056104
  12 H     1.0000    0     1.008    1.330183   -2.384455    2.728189
  13 H     1.0000    0     1.008   -2.225197   -4.110499    0.323040
  14 H     1.0000    0     1.008   -1.245548   -2.558805   -2.493254
  15 H     1.0000    0     1.008   -4.627038    0.000114   -0.520059
  16 H     1.0000    0     1.008   -3.056228    0.000167    2.431749

--------------------------------
INTERNAL COORDINATES (ANGSTROEM)
--------------------------------
 C      0   0   0     0.000000000000     0.00000000     0.00000000
 C      1   0   0     1.519988676614     0.00000000     0.00000000
 C      2   1   0     1.562679510538   110.15782928     0.00000000
 N      3   2   1     1.425442229729   107.92664827   307.37274105
 H      4   3   2     1.024686030249   118.97506597   255.94008161
 C      4   3   2     1.425448861262   119.74323858    58.52090951
 C      1   2   3     1.519992069690   111.87095145    54.90515122
 H      7   1   2     1.102715936277   112.43139915   186.25489278
 H      7   1   2     1.103876689319   111.30411501    65.67151252
 H      6   4   3     1.099266895074   110.07912909   178.90057620
 H      6   4   3     1.105731703936   108.44787424    58.66834967
 H      3   2   1     1.099264507673   112.04784842   186.01646235
 H      3   2   1     1.105736791822   108.36814612    64.61867280
 H      2   1   3     1.102709852527   112.42751226   118.83531046
 H      2   1   3     1.103872765804   111.30241298   239.42559812
 H      1   2   3     1.105488009203   109.05752118   175.63094806
 H      1   2   3     1.105229747368   110.17660781   291.98684165

---------------------------
INTERNAL COORDINATES (A.U.)
---------------------------
 C      0   0   0     0.000000000000     0.00000000     0.00000000
 C      1   0   0     2.872362325463     0.00000000     0.00000000
 C      2   1   0     2.953036310007   110.15782928     0.00000000
 N      3   2   1     2.693695433913   107.92664827   307.37274105
 H      4   3   2     1.936375970425   118.97506597   255.94008161
 C      4   3   2     2.693707965695   119.74323858    58.52090951
 C      1   2   3     2.872368737446   111.87095145    54.90515122
 H      7   1   2     2.083831123074   112.43139915   186.25489278
 H      7   1   2     2.086024628432   111.30411501    65.67151252
 H      6   4   3     2.077313379775   110.07912909   178.90057620
 H      6   4   3     2.089530098033   108.44787424    58.66834967
 H      3   2   1     2.077308868242   112.04784842   186.01646235
 H      3   2   1     2.089539712744   108.36814612    64.61867280
 H      2   1   3     2.083819626453   112.42751226   118.83531046
 H      2   1   3     2.086017214064   111.30241298   239.42559812
 H      1   2   3     2.089069581727   109.05752118   175.63094806
 H      1   2   3     2.088581537588   110.17660781   291.98684165

---------------------
BASIS SET INFORMATION
---------------------
There are 3 groups of distinct atoms

 Group   1 Type C   : 19s6p3d2f contracted to 5s4p3d2f pattern {88111/3111/111/11}
 Group   2 Type N   : 19s6p3d2f contracted to 5s4p3d2f pattern {88111/3111/111/11}
 Group   3 Type H   : 6s3p2d contracted to 4s3p2d pattern {3111/111/11}

Atom   0C    basis set group =>   1
Atom   1C    basis set group =>   1
Atom   2C    basis set group =>   1
Atom   3N    basis set group =>   2
Atom   4H    basis set group =>   3
Atom   5C    basis set group =>   1
Atom   6C    basis set group =>   1
Atom   7H    basis set group =>   3
Atom   8H    basis set group =>   3
Atom   9H    basis set group =>   3
Atom  10H    basis set group =>   3
Atom  11H    basis set group =>   3
Atom  12H    basis set group =>   3
Atom  13H    basis set group =>   3
Atom  14H    basis set group =>   3
Atom  15H    basis set group =>   3
Atom  16H    basis set group =>   3
---------------------------------
AUXILIARY/J BASIS SET INFORMATION
---------------------------------
There are 3 groups of distinct atoms

 Group   1 Type C   : 12s5p4d2f1g contracted to 6s4p3d1f1g pattern {711111/2111/211/2/1}
 Group   2 Type N   : 12s5p4d2f1g contracted to 6s4p3d1f1g pattern {711111/2111/211/2/1}
 Group   3 Type H   : 5s2p1d contracted to 3s1p1d pattern {311/2/1}

Atom   0C    basis set group =>   1
Atom   1C    basis set group =>   1
Atom   2C    basis set group =>   1
Atom   3N    basis set group =>   2
Atom   4H    basis set group =>   3
Atom   5C    basis set group =>   1
Atom   6C    basis set group =>   1
Atom   7H    basis set group =>   3
Atom   8H    basis set group =>   3
Atom   9H    basis set group =>   3
Atom  10H    basis set group =>   3
Atom  11H    basis set group =>   3
Atom  12H    basis set group =>   3
Atom  13H    basis set group =>   3
Atom  14H    basis set group =>   3
Atom  15H    basis set group =>   3
Atom  16H    basis set group =>   3


           ************************************************************
           *        Program running with 4 parallel MPI-processes     *
           *              working on a common directory               *
           ************************************************************
------------------------------------------------------------------------------
                             ORCA STARTUP CALCULATIONS
                           -- RI-GTO INTEGRALS CHOSEN --
------------------------------------------------------------------------------
------------------------------------------------------------------------------
                   ___                                                        
                  /   \      - P O W E R E D   B Y -                         
                 /     \                                                     
                 |  |  |   _    _      __       _____    __    __             
                 |  |  |  | |  | |    /  \     |  _  \  |  |  /  |          
                  \  \/   | |  | |   /    \    | | | |  |  | /  /          
                 / \  \   | |__| |  /  /\  \   | |_| |  |  |/  /          
                |  |  |   |  __  | /  /__\  \  |    /   |      \           
                |  |  |   | |  | | |   __   |  |    \   |  |\   \          
                \     /   | |  | | |  |  |  |  | |\  \  |  | \   \       
                 \___/    |_|  |_| |__|  |__|  |_| \__\ |__|  \__/        
                                                                              
                      - O R C A' S   B I G   F R I E N D -                    
                                      &                                       
                       - I N T E G R A L  F E E D E R -                       
                                                                              
 v1 FN, 2020, v2 2021, v3 2022-2024                                           
------------------------------------------------------------------------------


----------------------
SHARK INTEGRAL PACKAGE
----------------------

Number of atoms                             ...     17
Number of basis functions                   ...    565
Number of shells                            ...    219
Maximum angular momentum                    ...      3
Integral batch strategy                     ... SHARK/LIBINT Hybrid
RI-J (if used) integral strategy            ... SPLIT-RIJ (Revised 2003 algorithm where possible)
Printlevel                                  ...      1
Contraction scheme used                     ... PARTIAL GENERAL contraction
Prescreening option                         ... SCHWARTZ
   Thresh                                   ... 2.500e-11
   Tcut                                     ... 2.500e-12
   Tpresel                                  ... 2.500e-12 
Coulomb Range Separation                    ... NOT USED
Exchange Range Separation                   ... NOT USED
Multipole approximations                    ... NOT USED
Finite Nucleus Model                        ... NOT USED
CABS basis                                  ... NOT available
Auxiliary Coulomb fitting basis             ... AVAILABLE
   # of basis functions in Aux-J            ...    415
   # of shells in Aux-J                     ...    145
   Maximum angular momentum in Aux-J        ...      4
Auxiliary J/K fitting basis                 ... NOT available
Auxiliary Correlation fitting basis         ... NOT available
Auxiliary 'external' fitting basis          ... NOT available

Checking pre-screening integrals            ... done (  0.0 sec) Dimension = 219
Save PGC pre-screening integrals            ... done (  0.0 sec) Dimension = 219
Calculate PGC overlap integrals             ... done (  0.1 sec) Dimension = 183
Calculating pre-screening integrals (ORCA)  ... done (  0.2 sec) Dimension = 183
Check shell pair data                       ... done (  0.0 sec)
Shell pair information
Shell pair cut-off parameter TPreSel        ...   2.5e-12
Total number of shell pairs                 ...     24090
Shell pairs after pre-screening             ...     22401
Total number of primitive shell pairs       ...     32182
Primitive shell pairs kept                  ...     28014
          la=0 lb=0:   5120 shell pairs
          la=1 lb=0:   5921 shell pairs
          la=1 lb=1:   1622 shell pairs
          la=2 lb=0:   4132 shell pairs
          la=2 lb=1:   2234 shell pairs
          la=2 lb=2:    813 shell pairs
          la=3 lb=0:   1317 shell pairs
          la=3 lb=1:    684 shell pairs
          la=3 lb=2:    480 shell pairs
          la=3 lb=3:     78 shell pairs

Calculating one electron integrals          ... done (  0.0 sec)
Calculating RI/J V-Matrix + Cholesky decomp.... done (  0.0 sec)
Calculating Nuclear repulsion               ... done (  0.0 sec) ENN=    259.293376831882 Eh

Diagonalization of the overlap matrix:
Smallest eigenvalue                        ... 4.430e-06
Time for diagonalization                   ...    0.029 sec
Threshold for overlap eigenvalues          ... 1.000e-07
Number of eigenvalues below threshold      ... 0
Time for construction of square roots      ...    0.040 sec
Total time needed                          ...    0.087 sec

-------------------
DFT GRID GENERATION
-------------------

General Integration Accuracy     IntAcc      ... 4.388
Radial Grid Type                 RadialGrid  ... OptM3 with GC (2021)
Angular Grid (max. ang.)         AngularGrid ... 4 (Lebedev-302)
Angular grid pruning method      GridPruning ... 4 (adaptive)
Weight generation scheme         WeightScheme... mBecke (2022)
Basis function cutoff            BFCut       ... 1.0000e-11
Integration weight cutoff        WCut        ... 1.0000e-14
Partially contracted basis set               ... off
Rotationally invariant grid construction     ... off
Angular grids for H and He will be reduced by one unit
Diffuse basis detected: some atoms will have their outermost
                        angular grid increased by 1.

Total number of grid points                  ...    74594
Total number of batches                      ...     1174
Average number of points per batch           ...       63
Average number of grid points per atom       ...     4388

---------------------
SHARK GRID GENERATION
---------------------

General Integration Accuracy     IntAcc      ... 4.388
Radial Grid Type                 RadialGrid  ... OptM3 with GC (2021)
Angular Grid (max. ang.)         AngularGrid ... 4 (Lebedev-302)
Angular grid pruning method      GridPruning ... 4 (adaptive)
Weight generation scheme         WeightScheme... mBecke (2022)
Basis function cutoff            BFCut       ... 1.0000e-11
Integration weight cutoff        WCut        ... 1.0000e-14
Partially contracted basis set               ... off
Rotationally invariant grid construction     ... off
Angular grids for H and He will be reduced by one unit
Diffuse basis detected: some atoms will have their outermost
                        angular grid increased by 1.
Steep s-basis detected: some atoms will have their radial
                        grid points doubled.

Total number of grid points                  ...   112180
Total number of batches                      ...     1761
Average number of points per batch           ...       63
Average number of grid points per atom       ...     6599

--------------------
COSX GRID GENERATION
--------------------

GRIDX 1
-------
General Integration Accuracy     IntAcc      ... 3.816
Radial Grid Type                 RadialGrid  ... OptM3 with GC (2021)
Angular Grid (max. ang.)         AngularGrid ... 1 (Lebedev-50)
Angular grid pruning method      GridPruning ... 4 (adaptive)
Weight generation scheme         WeightScheme... mBecke (2022)
Basis function cutoff            BFCut       ... 1.0000e-11
Integration weight cutoff        WCut        ... 1.0000e-14
Partially contracted basis set               ... on
Rotationally invariant grid construction     ... off
Angular grids for H and He will be reduced by one unit
Diffuse basis detected: some atoms will have their outermost
                        angular grid increased by 1.

Total number of grid points                  ...     9322
Total number of batches                      ...       85
Average number of points per batch           ...      109
Average number of grid points per atom       ...      548
UseSFitting                                  ... on

GRIDX 2
-------
General Integration Accuracy     IntAcc      ... 4.020
Radial Grid Type                 RadialGrid  ... OptM3 with GC (2021)
Angular Grid (max. ang.)         AngularGrid ... 2 (Lebedev-110)
Angular grid pruning method      GridPruning ... 4 (adaptive)
Weight generation scheme         WeightScheme... mBecke (2022)
Basis function cutoff            BFCut       ... 1.0000e-11
Integration weight cutoff        WCut        ... 1.0000e-14
Partially contracted basis set               ... on
Rotationally invariant grid construction     ... off
Angular grids for H and He will be reduced by one unit
Diffuse basis detected: some atoms will have their outermost
                        angular grid increased by 1.

Total number of grid points                  ...    21508
Total number of batches                      ...      178
Average number of points per batch           ...      120
Average number of grid points per atom       ...     1265
UseSFitting                                  ... on

GRIDX 3
-------
General Integration Accuracy     IntAcc      ... 4.338
Radial Grid Type                 RadialGrid  ... OptM3 with GC (2021)
Angular Grid (max. ang.)         AngularGrid ... 3 (Lebedev-194)
Angular grid pruning method      GridPruning ... 4 (adaptive)
Weight generation scheme         WeightScheme... mBecke (2022)
Basis function cutoff            BFCut       ... 1.0000e-11
Integration weight cutoff        WCut        ... 1.0000e-14
Partially contracted basis set               ... on
Rotationally invariant grid construction     ... off
Angular grids for H and He will be reduced by one unit
Diffuse basis detected: some atoms will have their outermost
                        angular grid increased by 1.

Total number of grid points                  ...    48584
Total number of batches                      ...      391
Average number of points per batch           ...      124
Average number of grid points per atom       ...     2858
UseSFitting                                  ... on
Initializing property integral containers    ... done (  0.0 sec)

SHARK setup successfully completed in   4.4 seconds

Maximum memory used throughout the entire STARTUP-calculation: 56.6 MB


           ************************************************************
           *        Program running with 4 parallel MPI-processes     *
           *              working on a common directory               *
           ************************************************************
-------------------------------------------------------------------------------
                                 ORCA GUESS
                   Start orbitals & Density for SCF / CASSCF
-------------------------------------------------------------------------------

------------
SCF SETTINGS
------------
Hamiltonian:
 Density Functional     Method          .... DFT(GTOs)
 Exchange Functional    Exchange        .... TPSS
 Correlation Functional Correlation     .... TPSS
 LDA part of GGA corr.  LDAOpt          .... PW91-LDA
 Gradients option       PostSCFGGA      .... off
 Hybrid DFT is turned on
   Fraction HF Exchange ScalHFX         ....  0.100000
   Scaling of DF-GGA-X  ScalDFX         ....  0.900000
   Scaling of DF-GGA-C  ScalDFC         ....  1.000000
   Scaling of DF-LDA-C  ScalLDAC        ....  1.000000
   Perturbative correction              ....  0.000000
   NL short-range parameter             ....  5.200000
 RI-approximation to the Coulomb term is turned on
   Number of AuxJ basis functions       .... 415
   RIJ-COSX (HFX calculated with COS-X)).... on


General Settings:
 Integral files         IntName         .... cs_rporg_074_ox_solv_01
 Hartree-Fock type      HFTyp           .... UHF
 Total Charge           Charge          ....    1
 Multiplicity           Mult            ....    2
 Number of Electrons    NEL             ....   47
 Basis Dimension        Dim             ....  529
 Nuclear Repulsion      ENuc            ....    259.2933768319 Eh

Convergence Acceleration:
 AO-DIIS                CNVDIIS         .... on
   Start iteration      DIISMaxIt       ....     0
   Startup error        DIISStart       ....  0.200000
   # of expansion vecs  DIISMaxEq       ....     5
   Bias factor          DIISBfac        ....   1.050
   Max. coefficient     DIISMaxC        ....  10.000
 MO-DIIS                CNVKDIIS        .... off
 Trust-Rad. Augm. Hess. CNVTRAH         .... auto
   Auto Start mean grad. ratio tolernc. ....  1.125000
   Auto Start start iteration           ....    50
   Auto Start num. interpolation iter.  ....    10
   Max. Number of Micro iterations      ....    24
   Max. Number of Macro iterations      .... Maxiter - #DIIS iter
   Number of Davidson start vectors     ....     2
   Converg. threshold    (grad. norm)   ....   1.000e-05
   Grad. Scal. Fac. for Micro threshold ....   0.100
   Minimum threshold for Micro iter.    ....   1.000e-02
   NR start threshold (gradient norm)   ....   1.000e-04
   Initial trust radius                 ....   0.400
   Minimum AH scaling param. (alpha)    ....   1.000
   Maximum AH scaling param. (alpha)    .... 1000.000
   Quad. conv. algorithm                .... NR
   White noise on init. David. guess    .... on
   Maximum white noise                  ....   0.010
   Pseudo random numbers                .... off
   Inactive MOs                         .... canonical
   Orbital update algorithm             .... Taylor
   Preconditioner                       .... Diag
   Full preconditioner red. dimension   ....   250
 SOSCF                  CNVSOSCF        .... on
   Start iteration      SOSCFMaxIt      ....   150
   Startup grad/error   SOSCFStart      ....  0.001000
   Hessian update       SOSCFHessUp     .... L-BFGS
 Level Shifting         CNVShift        .... on
   Level shift para.    LevelShift      ....    0.2500
   Turn off err/grad.   ShiftErr        ....    0.0000
 Zerner damping         CNVZerner       .... off
 Static damping         CNVDamp         .... on
   Fraction old density DampFac         ....    0.8500
   Max. Damping (<1)    DampMax         ....    0.9800
   Min. Damping (>=0)   DampMin         ....    0.0000
   Turn off err/grad.   DampErr         ....    0.0300

SCF Procedure:
 Maximum # iterations   MaxIter         ....  1500
 SCF integral mode      SCFMode         .... Direct
   Integral package                     .... SHARK and LIBINT hybrid scheme
 Reset frequency        DirectResetFreq ....    20
 Integral Threshold     Thresh          ....  2.500e-11 Eh
 Primitive CutOff       TCut            ....  2.500e-12 Eh

Convergence Tolerance:
 Convergence Check Mode ConvCheckMode   .... Total+1el-Energy
 Convergence forced     ConvForced      .... 0
 Energy Change          TolE            ....  1.000e-08 Eh
 1-El. energy change                    ....  1.000e-05 Eh
 Orbital Gradient       TolG            ....  1.000e-05
 Orbital Rotation angle TolX            ....  1.000e-05
 DIIS Error             TolErr          ....  5.000e-07

------------------------------
INITIAL GUESS: MODEL POTENTIAL
------------------------------
Loading Hartree-Fock densities                     ... done
Calculating cut-offs                               ... done
Initializing the effective Hamiltonian             ... done
Setting up the integral package (SHARK)            ... done
Starting the Coulomb interaction                   ... done (   0.3 sec)
Making the grid                                    ... done (   0.2 sec)
Mapping shells                                     ... done
Starting the XC term evaluation                    ... done (   0.4 sec)
  promolecular density results
     # of electrons  =     47.986252459
     EX              =    -35.374163369
     EC              =     -1.578803170
     EX+EC           =    -36.952966539
Transforming the Hamiltonian                       ... done (   0.0 sec)
Diagonalizing the Hamiltonian                      ... done (   0.0 sec)
Back transforming the eigenvectors                 ... done (   0.1 sec)
Now organizing SCF variables                       ... done
                      ------------------
                      INITIAL GUESS DONE (   1.2 sec)
                      ------------------
             **** ENERGY FILE WAS UPDATED (cs_rporg_074_ox_solv_01.en.tmp) ****
Finished Guess after   2.0 sec
Maximum memory used throughout the entire GUESS-calculation: 41.1 MB


           ************************************************************
           *        Program running with 4 parallel MPI-processes     *
           *              working on a common directory               *
           ************************************************************

-------------------------------------------------------------------------------------------
                                      ORCA LEAN-SCF
                              memory conserving SCF solver
-------------------------------------------------------------------------------------------

--------------------
CPCM SOLVATION MODEL
--------------------
CPCM parameters:
  Epsilon                                         ...      35.6880
  Refrac                                          ...       1.3442
  Rsolv                                           ...       2.1900
  Surface type                                    ...    GEPOL SES
  Discretization scheme                           ... Constant num. charges
  Epsilon function type                           ...         CPCM
Solvent:                                          ... ACETONITRILE
SMD-CDS solvent descriptors:
  Soln                                            ...       1.3442
  Soln25                                          ...       1.3416
  Sola                                            ...       0.0700
  Solb                                            ...       0.3200
  Solg                                            ...      41.2500
  Solc                                            ...       0.0000
  Solh                                            ...       0.0000
Radii:
  Scheme                                          ... Element-dependent radii
  Radius for C  used is    3.4960 Bohr (=   1.8500 Ang.)
  Radius for N  used is    3.5716 Bohr (=   1.8900 Ang.)
  Radius for H  used is    2.2677 Bohr (=   1.2000 Ang.)
Calculating surface                               ...        done! (  0.0s)
Cavity surface points                             ...          577
Cavity Volume                                     ...     731.0427
Cavity Surface-area                               ...     447.3389
Calculating surface distance matrix               ...        done! (  0.0s)
Performing Cholesky decomposition & store         ...        done! (  0.0s)
Overall time for CPCM initialization              ...                 0.1s

----------------------------------------D-I-I-S--------------------------------------------
Iteration    Energy (Eh)           Delta-E    RMSDP     MaxDP     DIISErr   Damp  Time(sec)
-------------------------------------------------------------------------------------------
               ***  Starting incremental Fock matrix formation  ***
    1    -251.7244191509076927     0.00e+00  3.21e-04  3.04e-02  7.27e-02  0.850  14.1
    2    -251.7507468829042523    -2.63e-02  2.98e-04  2.74e-02  5.47e-02  0.850   9.7
                               ***Turning on AO-DIIS***
    3    -251.7684703412681984    -1.77e-02  2.20e-04  2.08e-02  3.76e-02  0.850   9.5
    4    -251.7800103852760571    -1.15e-02  1.74e-04  1.65e-02  2.96e-02  0.850   9.3
    5    -251.7883694606093741    -8.36e-03  9.64e-04  9.16e-02  2.46e-02  0.000   9.3
    6    -251.8277359205845300    -3.94e-02  4.44e-05  3.19e-03  4.08e-03  0.000   9.6
    7    -251.8279164296690169    -1.81e-04  1.57e-05  8.88e-04  1.69e-03  0.000   9.1
    8    -251.8279731199528442    -5.67e-05  1.12e-05  9.65e-04  1.06e-03  0.000   8.5
                              *** Initializing SOSCF ***
---------------------------------------S-O-S-C-F--------------------------------------
Iteration    Energy (Eh)           Delta-E    RMSDP     MaxDP     MaxGrad    Time(sec)
--------------------------------------------------------------------------------------
    9    -251.8279921077248673    -1.90e-05  7.53e-06  5.28e-04  5.06e-04     8.8
               *** Restarting incremental Fock matrix formation ***
   10    -251.8279996733540997    -7.57e-06  9.31e-06  4.30e-04  6.90e-04    14.1
   11    -251.8280043809158428    -4.71e-06  5.89e-06  3.52e-04  1.30e-04    10.8
   12    -251.8280043318059143     4.91e-08  2.97e-06  1.29e-04  1.62e-04    10.6
   13    -251.8280052752803044    -9.43e-07  8.32e-07  3.71e-05  1.54e-05    10.6
   14    -251.8280052736667471     1.61e-09  6.39e-07  4.03e-05  6.46e-06     9.1
                 **** Energy Check signals convergence ****

               *****************************************************
               *                     SUCCESS                       *
               *           SCF CONVERGED AFTER  14 CYCLES          *
               *****************************************************

Recomputing exchange energy using gridx3       ... done (   14.047 sec)
Old exchange energy                            :     -3.621490236 Eh
New exchange energy                            :     -3.621515199 Eh
Exchange energy change after final integration :     -0.000024963 Eh
Total energy after final integration           :   -251.828030237 Eh

SMD CDS free energy correction energy :                -1.75975     Kcal/mol
Total Energy after SMD CDS correction =              -251.830834571 Eh
             **** ENERGY FILE WAS UPDATED (cs_rporg_074_ox_solv_01.en.tmp) ****

----------------
TOTAL SCF ENERGY
----------------

Total Energy       :       -251.83083457055989 Eh           -6852.66539 eV

Components:
Nuclear Repulsion  :        259.29337683188243 Eh            7055.73149 eV
Electronic Energy  :       -511.02309343799595 Eh          -13905.64532 eV
One Electron Energy:       -841.70309611875609 Eh          -22903.90566 eV
Two Electron Energy:        330.68000268076014 Eh            8998.26034 eV
CPCM Dielectric    :         -0.09828866755322 Eh              -2.67457 eV
SMD CDS (Gcds)     :         -0.00280433358366 Eh              -0.07631 eV

Virial components:
Potential Energy   :       -501.98125338549539 Eh          -13659.60435 eV
Kinetic Energy     :        250.15041881493551 Eh            6806.93895 eV
Virial Ratio       :          2.00671762119602

DFT components:
N(Alpha)           :       24.000021601823 electrons
N(Beta)            :       23.000017336152 electrons
N(Total)           :       47.000038937976 electrons
E(X)               :      -32.797491229235 Eh       
E(C)               :       -1.539823223072 Eh       
E(XC)              :      -34.337314452306 Eh       

CPCM Solvation Model Properties:
Surface-charge          :         -1.03397373596778
Corrected charge        :         -1.00000000000000
Outlying charge corr.   :          0.00009702232090 Eh               0.00264 eV
Free-energy (cav+disp)  :         -0.00280433358366 Eh              -0.07631 eV

---------------
SCF CONVERGENCE
---------------

  Last Energy change         ...   -1.6136e-09  Tolerance :   1.0000e-08
  Last MAX-Density change    ...    4.0331e-05  Tolerance :   1.0000e-07
  Last RMS-Density change    ...    6.3949e-07  Tolerance :   5.0000e-09
  Last DIIS Error            ...    5.0619e-04  Tolerance :   5.0000e-07
  Last Orbital Gradient      ...    6.4609e-06  Tolerance :   1.0000e-05
  Last Orbital Rotation      ...    1.0489e-05  Tolerance :   1.0000e-05


----------------------
UHF SPIN CONTAMINATION
----------------------

Warning: in a DFT calculation there is little theoretical justification to 
         calculate <S**2> as in Hartree-Fock theory. We will do it anyways
         but you should keep in mind that the values have only limited relevance

Expectation value of <S**2>     :     0.755042
Ideal value S*(S+1) for S=0.5   :     0.750000
Deviation                       :     0.005042

----------------
ORBITAL ENERGIES
----------------
                 SPIN UP ORBITALS
  NO   OCC          E(Eh)            E(eV) 
   0   1.0000     -14.374677      -391.1549 
   1   1.0000     -10.178498      -276.9710 
   2   1.0000     -10.178489      -276.9708 
   3   1.0000     -10.138788      -275.8905 
   4   1.0000     -10.138787      -275.8904 
   5   1.0000     -10.123925      -275.4860 
   6   1.0000      -0.990209       -26.9450 
   7   1.0000      -0.795050       -21.6344 
   8   1.0000      -0.774047       -21.0629 
   9   1.0000      -0.659035       -17.9333 
  10   1.0000      -0.643647       -17.5145 
  11   1.0000      -0.586029       -15.9466 
  12   1.0000      -0.539738       -14.6870 
  13   1.0000      -0.483350       -13.1526 
  14   1.0000      -0.470882       -12.8134 
  15   1.0000      -0.454709       -12.3733 
  16   1.0000      -0.430181       -11.7058 
  17   1.0000      -0.417889       -11.3714 
  18   1.0000      -0.393405       -10.7051 
  19   1.0000      -0.360804        -9.8180 
  20   1.0000      -0.359109        -9.7719 
  21   1.0000      -0.333318        -9.0700 
  22   1.0000      -0.327365        -8.9081 
  23   1.0000      -0.282767        -7.6945 
  24   0.0000      -0.008357        -0.2274 
  25   0.0000       0.004668         0.1270 
  26   0.0000       0.010193         0.2774 
  27   0.0000       0.010758         0.2927 
  28   0.0000       0.029397         0.7999 
  29   0.0000       0.032596         0.8870 
  30   0.0000       0.036350         0.9891 
  31   0.0000       0.038145         1.0380 
  32   0.0000       0.040318         1.0971 
  33   0.0000       0.060605         1.6491 
  34   0.0000       0.063995         1.7414 

                 SPIN DOWN ORBITALS
  NO   OCC          E(Eh)            E(eV) 
   0   1.0000     -14.356998      -390.6738 
   1   1.0000     -10.178695      -276.9764 
   2   1.0000     -10.178687      -276.9761 
   3   1.0000     -10.136796      -275.8362 
   4   1.0000     -10.136795      -275.8362 
   5   1.0000     -10.124037      -275.4891 
   6   1.0000      -0.960998       -26.1501 
   7   1.0000      -0.787736       -21.4354 
   8   1.0000      -0.769073       -20.9275 
   9   1.0000      -0.649908       -17.6849 
  10   1.0000      -0.639333       -17.3971 
  11   1.0000      -0.579671       -15.7737 
  12   1.0000      -0.530645       -14.4396 
  13   1.0000      -0.477147       -12.9838 
  14   1.0000      -0.454325       -12.3628 
  15   1.0000      -0.445443       -12.1211 
  16   1.0000      -0.427422       -11.6307 
  17   1.0000      -0.408055       -11.1037 
  18   1.0000      -0.384525       -10.4635 
  19   1.0000      -0.355688        -9.6788 
  20   1.0000      -0.338714        -9.2169 
  21   1.0000      -0.331746        -9.0273 
  22   1.0000      -0.325897        -8.8681 
  23   0.0000      -0.181074        -4.9273 
  24   0.0000      -0.006653        -0.1810 
  25   0.0000       0.006452         0.1756 
  26   0.0000       0.011434         0.3111 
  27   0.0000       0.011434         0.3111 
  28   0.0000       0.031522         0.8578 
  29   0.0000       0.033027         0.8987 
  30   0.0000       0.037133         1.0105 
  31   0.0000       0.038906         1.0587 
  32   0.0000       0.041727         1.1354 
  33   0.0000       0.062098         1.6898 
*Only the first 10 virtual orbitals were printed.

                    ********************************
                    * MULLIKEN POPULATION ANALYSIS *
                    ********************************

--------------------------------------------
MULLIKEN ATOMIC CHARGES AND SPIN POPULATIONS
--------------------------------------------
   0 C :    0.121017   -0.007009
   1 C :   -0.005230    0.111096
   2 C :    0.148747   -0.072390
   3 N :    0.035038    0.771586
   4 H :    0.083598    0.000642
   5 C :    0.148653   -0.072407
   6 C :   -0.005291    0.111120
   7 H :   -0.015868    0.019761
   8 H :    0.069801    0.003478
   9 H :    0.043055    0.000058
  10 H :    0.119374    0.043019
  11 H :    0.043002    0.000053
  12 H :    0.119335    0.043052
  13 H :   -0.015875    0.019753
  14 H :    0.069785    0.003478
  15 H :   -0.065308    0.022255
  16 H :    0.106168    0.002455
Sum of atomic charges         :    1.0000000
Sum of atomic spin populations:    1.0000000

-----------------------------------------------------
MULLIKEN REDUCED ORBITAL CHARGES AND SPIN POPULATIONS
-----------------------------------------------------
CHARGE
  0 C s       :     2.985011  s :     2.985011
      pz      :     0.958235  p :     2.757061
      px      :     0.859825
      py      :     0.939001
      dz2     :     0.023783  d :     0.123651
      dxz     :     0.024857
      dyz     :     0.043736
      dx2y2   :     0.008973
      dxy     :     0.022302
      f0      :     0.002166  f :     0.013260
      f+1     :    -0.001207
      f-1     :     0.002854
      f+2     :     0.003715
      f-2     :     0.002281
      f+3     :     0.001170
      f-3     :     0.002280

  1 C s       :     3.082830  s :     3.082830
      pz      :     0.950268  p :     2.766101
      px      :     0.860705
      py      :     0.955128
      dz2     :     0.026103  d :     0.142760
      dxz     :     0.020749
      dyz     :     0.028418
      dx2y2   :     0.023881
      dxy     :     0.043608
      f0      :     0.002165  f :     0.013539
      f+1     :     0.001370
      f-1     :     0.000645
      f+2     :     0.002529
      f-2     :     0.002747
      f+3     :     0.002295
      f-3     :     0.001787

  2 C s       :     3.080904  s :     3.080904
      pz      :     0.975475  p :     2.606729
      px      :     0.895449
      py      :     0.735805
      dz2     :     0.041989  d :     0.135370
      dxz     :     0.020824
      dyz     :     0.018248
      dx2y2   :     0.027077
      dxy     :     0.027233
      f0      :     0.003431  f :     0.028249
      f+1     :     0.003113
      f-1     :     0.001556
      f+2     :     0.003536
      f-2     :     0.004824
      f+3     :     0.004846
      f-3     :     0.006944

  3 N s       :     3.636720  s :     3.636720
      pz      :     1.092186  p :     3.203479
      px      :     1.089958
      py      :     1.021334
      dz2     :     0.019984  d :     0.113400
      dxz     :     0.001431
      dyz     :     0.043829
      dx2y2   :     0.021233
      dxy     :     0.026923
      f0      :     0.000001  f :     0.011363
      f+1     :    -0.000226
      f-1     :     0.003522
      f+2     :    -0.000301
      f-2     :     0.003959
      f+3     :     0.000089
      f-3     :     0.004319

  4 H s       :     0.797820  s :     0.797820
      pz      :     0.019023  p :     0.088611
      px      :     0.040723
      py      :     0.028865
      dz2     :     0.007388  d :     0.029972
      dxz     :     0.006285
      dyz     :     0.004525
      dx2y2   :     0.003940
      dxy     :     0.007833

  5 C s       :     3.080968  s :     3.080968
      pz      :     0.975522  p :     2.606726
      px      :     0.895430
      py      :     0.735774
      dz2     :     0.041996  d :     0.135408
      dxz     :     0.020837
      dyz     :     0.018255
      dx2y2   :     0.027065
      dxy     :     0.027253
      f0      :     0.003428  f :     0.028245
      f+1     :     0.003115
      f-1     :     0.001555
      f+2     :     0.003537
      f-2     :     0.004821
      f+3     :     0.004846
      f-3     :     0.006943

  6 C s       :     3.082869  s :     3.082869
      pz      :     0.950283  p :     2.766115
      px      :     0.860720
      py      :     0.955112
      dz2     :     0.026093  d :     0.142760
      dxz     :     0.020765
      dyz     :     0.028403
      dx2y2   :     0.023890
      dxy     :     0.043610
      f0      :     0.002166  f :     0.013546
      f+1     :     0.001371
      f-1     :     0.000645
      f+2     :     0.002530
      f-2     :     0.002748
      f+3     :     0.002297
      f-3     :     0.001790

  7 H s       :     0.971981  s :     0.971981
      pz      :     0.005675  p :     0.031494
      px      :     0.014647
      py      :     0.011171
      dz2     :     0.003304  d :     0.012393
      dxz     :     0.000433
      dyz     :     0.000240
      dx2y2   :     0.005323
      dxy     :     0.003094

  8 H s       :     0.874234  s :     0.874234
      pz      :     0.011098  p :     0.043514
      px      :     0.021555
      py      :     0.010860
      dz2     :     0.000071  d :     0.012452
      dxz     :     0.004736
      dyz     :     0.005493
      dx2y2   :     0.000925
      dxy     :     0.001228

  9 H s       :     0.914687  s :     0.914687
      pz      :     0.005397  p :     0.033756
      px      :     0.016328
      py      :     0.012032
      dz2     :     0.002299  d :     0.008501
      dxz     :     0.000796
      dyz     :     0.000287
      dx2y2   :     0.002635
      dxy     :     0.002485

 10 H s       :     0.838392  s :     0.838392
      pz      :     0.016323  p :     0.031583
      px      :     0.012522
      py      :     0.002738
      dz2     :    -0.000142  d :     0.010651
      dxz     :     0.005546
      dyz     :     0.003684
      dx2y2   :     0.000629
      dxy     :     0.000934

 11 H s       :     0.914735  s :     0.914735
      pz      :     0.005391  p :     0.033760
      px      :     0.016334
      py      :     0.012035
      dz2     :     0.002300  d :     0.008503
      dxz     :     0.000795
      dyz     :     0.000287
      dx2y2   :     0.002635
      dxy     :     0.002486

 12 H s       :     0.838425  s :     0.838425
      pz      :     0.016309  p :     0.031591
      px      :     0.012538
      py      :     0.002745
      dz2     :    -0.000142  d :     0.010649
      dxz     :     0.005546
      dyz     :     0.003684
      dx2y2   :     0.000629
      dxy     :     0.000933

 13 H s       :     0.971974  s :     0.971974
      pz      :     0.005679  p :     0.031506
      px      :     0.014648
      py      :     0.011180
      dz2     :     0.003305  d :     0.012394
      dxz     :     0.000433
      dyz     :     0.000240
      dx2y2   :     0.005324
      dxy     :     0.003093

 14 H s       :     0.874248  s :     0.874248
      pz      :     0.011093  p :     0.043513
      px      :     0.021558
      py      :     0.010862
      dz2     :     0.000071  d :     0.012454
      dxz     :     0.004736
      dyz     :     0.005493
      dx2y2   :     0.000926
      dxy     :     0.001229

 15 H s       :     1.012699  s :     1.012699
      pz      :     0.008011  p :     0.040966
      px      :     0.015500
      py      :     0.017455
      dz2     :     0.003209  d :     0.011644
      dxz     :    -0.000658
      dyz     :     0.000680
      dx2y2   :     0.001058
      dxy     :     0.007356

 16 H s       :     0.840688  s :     0.840688
      pz      :     0.009470  p :     0.039661
      px      :     0.007314
      py      :     0.022877
      dz2     :    -0.000340  d :     0.013483
      dxz     :     0.006740
      dyz     :     0.004342
      dx2y2   :     0.001049
      dxy     :     0.001691


SPIN
  0 C s       :    -0.005111  s :    -0.005111
      pz      :    -0.002710  p :    -0.002569
      px      :     0.004086
      py      :    -0.003945
      dz2     :    -0.000571  d :    -0.000768
      dxz     :     0.000843
      dyz     :    -0.000297
      dx2y2   :    -0.001061
      dxy     :     0.000318
      f0      :    -0.000048  f :     0.001439
      f+1     :    -0.000030
      f-1     :     0.000164
      f+2     :     0.000458
      f-2     :    -0.000033
      f+3     :     0.000702
      f-3     :     0.000225

  1 C s       :     0.010601  s :     0.010601
      pz      :     0.008907  p :     0.097765
      px      :     0.088559
      py      :     0.000300
      dz2     :    -0.000288  d :     0.002177
      dxz     :     0.001063
      dyz     :    -0.000072
      dx2y2   :     0.000890
      dxy     :     0.000584
      f0      :    -0.000076  f :     0.000552
      f+1     :     0.000183
      f-1     :     0.000028
      f+2     :     0.000208
      f-2     :     0.000096
      f+3     :     0.000057
      f-3     :     0.000057

  2 C s       :    -0.046983  s :    -0.046983
      pz      :    -0.017590  p :    -0.052718
      px      :    -0.014271
      py      :    -0.020858
      dz2     :     0.008369  d :     0.024643
      dxz     :     0.003054
      dyz     :     0.003633
      dx2y2   :     0.006644
      dxy     :     0.002942
      f0      :     0.000958  f :     0.002669
      f+1     :    -0.000171
      f-1     :     0.000598
      f+2     :     0.001644
      f-2     :    -0.000437
      f+3     :     0.000193
      f-3     :    -0.000117

  3 N s       :     0.037011  s :     0.037011
      pz      :     0.341900  p :     0.720956
      px      :     0.350050
      py      :     0.029006
      dz2     :     0.002765  d :     0.013689
      dxz     :    -0.000438
      dyz     :     0.003561
      dx2y2   :     0.002532
      dxy     :     0.005269
      f0      :    -0.000069  f :    -0.000070
      f+1     :    -0.000163
      f-1     :     0.000289
      f+2     :    -0.000228
      f-2     :    -0.000078
      f+3     :     0.000141
      f-3     :     0.000038

  4 H s       :    -0.025119  s :    -0.025119
      pz      :     0.008137  p :     0.021001
      px      :     0.012529
      py      :     0.000336
      dz2     :     0.003382  d :     0.004760
      dxz     :     0.000158
      dyz     :     0.000050
      dx2y2   :     0.000876
      dxy     :     0.000294

  5 C s       :    -0.046983  s :    -0.046983
      pz      :    -0.017586  p :    -0.052732
      px      :    -0.014273
      py      :    -0.020873
      dz2     :     0.008366  d :     0.024640
      dxz     :     0.003055
      dyz     :     0.003636
      dx2y2   :     0.006641
      dxy     :     0.002941
      f0      :     0.000958  f :     0.002669
      f+1     :    -0.000171
      f-1     :     0.000598
      f+2     :     0.001644
      f-2     :    -0.000437
      f+3     :     0.000193
      f-3     :    -0.000117

  6 C s       :     0.010617  s :     0.010617
      pz      :     0.008903  p :     0.097769
      px      :     0.088568
      py      :     0.000298
      dz2     :    -0.000287  d :     0.002182
      dxz     :     0.001063
      dyz     :    -0.000072
      dx2y2   :     0.000892
      dxy     :     0.000586
      f0      :    -0.000077  f :     0.000552
      f+1     :     0.000183
      f-1     :     0.000028
      f+2     :     0.000208
      f-2     :     0.000096
      f+3     :     0.000057
      f-3     :     0.000057

  7 H s       :     0.018185  s :     0.018185
      pz      :     0.000115  p :     0.001146
      px      :     0.001045
      py      :    -0.000014
      dz2     :     0.000091  d :     0.000429
      dxz     :    -0.000022
      dyz     :    -0.000004
      dx2y2   :     0.000171
      dxy     :     0.000194

  8 H s       :     0.001111  s :     0.001111
      pz      :     0.001251  p :     0.001854
      px      :     0.000863
      py      :    -0.000260
      dz2     :     0.000075  d :     0.000513
      dxz     :     0.000391
      dyz     :     0.000015
      dx2y2   :    -0.000001
      dxy     :     0.000032

  9 H s       :     0.002512  s :     0.002512
      pz      :    -0.001644  p :    -0.002178
      px      :    -0.000553
      py      :     0.000018
      dz2     :     0.000296  d :    -0.000277
      dxz     :     0.000012
      dyz     :    -0.000323
      dx2y2   :     0.000087
      dxy     :    -0.000349

 10 H s       :     0.040193  s :     0.040193
      pz      :     0.003639  p :     0.002459
      px      :    -0.000722
      py      :    -0.000458
      dz2     :    -0.000058  d :     0.000367
      dxz     :     0.000312
      dyz     :    -0.000078
      dx2y2   :     0.000111
      dxy     :     0.000080

 11 H s       :     0.002507  s :     0.002507
      pz      :    -0.001644  p :    -0.002177
      px      :    -0.000552
      py      :     0.000019
      dz2     :     0.000296  d :    -0.000277
      dxz     :     0.000012
      dyz     :    -0.000323
      dx2y2   :     0.000087
      dxy     :    -0.000349

 12 H s       :     0.040225  s :     0.040225
      pz      :     0.003636  p :     0.002459
      px      :    -0.000720
      py      :    -0.000457
      dz2     :    -0.000057  d :     0.000368
      dxz     :     0.000312
      dyz     :    -0.000078
      dx2y2   :     0.000111
      dxy     :     0.000080

 13 H s       :     0.018179  s :     0.018179
      pz      :     0.000115  p :     0.001145
      px      :     0.001045
      py      :    -0.000015
      dz2     :     0.000091  d :     0.000429
      dxz     :    -0.000022
      dyz     :    -0.000004
      dx2y2   :     0.000171
      dxy     :     0.000194

 14 H s       :     0.001110  s :     0.001110
      pz      :     0.001252  p :     0.001856
      px      :     0.000863
      py      :    -0.000259
      dz2     :     0.000075  d :     0.000512
      dxz     :     0.000391
      dyz     :     0.000015
      dx2y2   :    -0.000001
      dxy     :     0.000032

 15 H s       :     0.022625  s :     0.022625
      pz      :     0.000490  p :    -0.000658
      px      :    -0.001032
      py      :    -0.000116
      dz2     :     0.000078  d :     0.000288
      dxz     :     0.000033
      dyz     :     0.000021
      dx2y2   :     0.000022
      dxy     :     0.000135

 16 H s       :     0.001619  s :     0.001619
      pz      :    -0.000189  p :     0.000726
      px      :     0.000868
      py      :     0.000046
      dz2     :     0.000016  d :     0.000110
      dxz     :     0.000082
      dyz     :    -0.000116
      dx2y2   :     0.000065
      dxy     :     0.000064



                     *******************************
                     * LOEWDIN POPULATION ANALYSIS *
                     *******************************

-------------------------------------------
LOEWDIN ATOMIC CHARGES AND SPIN POPULATIONS
-------------------------------------------
   0 C :    0.292129    0.016547
   1 C :    0.336696    0.058425
   2 C :    0.294585    0.101349
   3 N :    0.699204    0.498895
   4 H :   -0.146721    0.068878
   5 C :    0.294591    0.101344
   6 C :    0.336690    0.058429
   7 H :   -0.115092    0.012856
   8 H :   -0.118046    0.006059
   9 H :   -0.100699    0.003760
  10 H :   -0.101364    0.019771
  11 H :   -0.100704    0.003760
  12 H :   -0.101357    0.019778
  13 H :   -0.115090    0.012853
  14 H :   -0.118049    0.006060
  15 H :   -0.116406    0.009784
  16 H :   -0.120367    0.001453

----------------------------------------------------
LOEWDIN REDUCED ORBITAL CHARGES AND SPIN POPULATIONS
----------------------------------------------------
CHARGE
  0 C s       :     2.423517  s :     2.423517
      pz      :     0.755165  p :     2.215850
      px      :     0.745030
      py      :     0.715655
      dz2     :     0.170069  d :     0.739977
      dxz     :     0.092055
      dyz     :     0.126748
      dx2y2   :     0.207369
      dxy     :     0.143736
      f0      :     0.032702  f :     0.328527
      f+1     :     0.021446
      f-1     :     0.060341
      f+2     :     0.030502
      f-2     :     0.046421
      f+3     :     0.040621
      f-3     :     0.096494

  1 C s       :     2.430326  s :     2.430326
      pz      :     0.761431  p :     2.194795
      px      :     0.671871
      py      :     0.761493
      dz2     :     0.180492  d :     0.715373
      dxz     :     0.110432
      dyz     :     0.088255
      dx2y2   :     0.161194
      dxy     :     0.175001
      f0      :     0.029754  f :     0.322810
      f+1     :     0.058142
      f-1     :     0.030417
      f+2     :     0.037449
      f-2     :     0.037724
      f+3     :     0.039397
      f-3     :     0.089927

  2 C s       :     2.426082  s :     2.426082
      pz      :     0.756425  p :     2.165422
      px      :     0.712374
      py      :     0.696623
      dz2     :     0.180012  d :     0.746877
      dxz     :     0.110697
      dyz     :     0.091554
      dx2y2   :     0.150283
      dxy     :     0.214331
      f0      :     0.036709  f :     0.367034
      f+1     :     0.051327
      f-1     :     0.032403
      f+2     :     0.043973
      f-2     :     0.052370
      f+3     :     0.054578
      f-3     :     0.095674

  3 N s       :     2.637373  s :     2.637373
      pz      :     0.908459  p :     2.801670
      px      :     0.907703
      py      :     0.985507
      dz2     :     0.093725  d :     0.626798
      dxz     :     0.069144
      dyz     :     0.140073
      dx2y2   :     0.183107
      dxy     :     0.140749
      f0      :     0.011492  f :     0.234956
      f+1     :     0.016336
      f-1     :     0.052980
      f+2     :     0.020569
      f-2     :     0.030506
      f+3     :     0.027911
      f-3     :     0.075161

  4 H s       :     0.558550  s :     0.558550
      pz      :     0.138828  p :     0.337233
      px      :     0.114907
      py      :     0.083498
      dz2     :     0.060677  d :     0.250938
      dxz     :     0.066803
      dyz     :     0.049811
      dx2y2   :     0.030614
      dxy     :     0.043033

  5 C s       :     2.426083  s :     2.426083
      pz      :     0.756421  p :     2.165419
      px      :     0.712381
      py      :     0.696617
      dz2     :     0.180027  d :     0.746876
      dxz     :     0.110692
      dyz     :     0.091544
      dx2y2   :     0.150269
      dxy     :     0.214344
      f0      :     0.036704  f :     0.367031
      f+1     :     0.051332
      f-1     :     0.032407
      f+2     :     0.043972
      f-2     :     0.052372
      f+3     :     0.054576
      f-3     :     0.095668

  6 C s       :     2.430327  s :     2.430327
      pz      :     0.761431  p :     2.194796
      px      :     0.671868
      py      :     0.761497
      dz2     :     0.180507  d :     0.715376
      dxz     :     0.110437
      dyz     :     0.088240
      dx2y2   :     0.161202
      dxy     :     0.174989
      f0      :     0.029751  f :     0.322810
      f+1     :     0.058152
      f-1     :     0.030417
      f+2     :     0.037446
      f-2     :     0.037727
      f+3     :     0.039397
      f-3     :     0.089921

  7 H s       :     0.616441  s :     0.616441
      pz      :     0.089027  p :     0.282658
      px      :     0.081543
      py      :     0.112088
      dz2     :     0.044476  d :     0.215993
      dxz     :     0.019068
      dyz     :     0.045417
      dx2y2   :     0.060085
      dxy     :     0.046947

  8 H s       :     0.615835  s :     0.615835
      pz      :     0.138350  p :     0.286182
      px      :     0.071051
      py      :     0.076781
      dz2     :     0.055860  d :     0.216029
      dxz     :     0.071006
      dyz     :     0.075309
      dx2y2   :     0.005970
      dxy     :     0.007884

  9 H s       :     0.618849  s :     0.618849
      pz      :     0.083871  p :     0.271108
      px      :     0.087769
      py      :     0.099468
      dz2     :     0.040028  d :     0.210743
      dxz     :     0.023426
      dyz     :     0.041368
      dx2y2   :     0.062010
      dxy     :     0.043911

 10 H s       :     0.600927  s :     0.600927
      pz      :     0.138718  p :     0.281715
      px      :     0.074443
      py      :     0.068555
      dz2     :     0.056446  d :     0.218722
      dxz     :     0.075420
      dyz     :     0.069872
      dx2y2   :     0.006831
      dxy     :     0.010154

 11 H s       :     0.618847  s :     0.618847
      pz      :     0.083879  p :     0.271111
      px      :     0.087764
      py      :     0.099469
      dz2     :     0.040041  d :     0.210745
      dxz     :     0.023418
      dyz     :     0.041370
      dx2y2   :     0.062004
      dxy     :     0.043912

 12 H s       :     0.600927  s :     0.600927
      pz      :     0.138718  p :     0.281710
      px      :     0.074438
      py      :     0.068554
      dz2     :     0.056446  d :     0.218719
      dxz     :     0.075416
      dyz     :     0.069875
      dx2y2   :     0.006833
      dxy     :     0.010149

 13 H s       :     0.616445  s :     0.616445
      pz      :     0.089025  p :     0.282654
      px      :     0.081546
      py      :     0.112082
      dz2     :     0.044485  d :     0.215991
      dxz     :     0.019073
      dyz     :     0.045405
      dx2y2   :     0.060089
      dxy     :     0.046939

 14 H s       :     0.615833  s :     0.615833
      pz      :     0.138349  p :     0.286183
      px      :     0.071056
      py      :     0.076778
      dz2     :     0.055861  d :     0.216032
      dxz     :     0.071010
      dyz     :     0.075305
      dx2y2   :     0.005971
      dxy     :     0.007885

 15 H s       :     0.612881  s :     0.612881
      pz      :     0.092591  p :     0.284344
      px      :     0.119121
      py      :     0.072632
      dz2     :     0.053121  d :     0.219181
      dxz     :     0.051578
      dyz     :     0.008731
      dx2y2   :     0.034530
      dxy     :     0.071221

 16 H s       :     0.612471  s :     0.612471
      pz      :     0.137712  p :     0.287964
      px      :     0.078275
      py      :     0.071977
      dz2     :     0.057774  d :     0.219931
      dxz     :     0.077347
      dyz     :     0.068154
      dx2y2   :     0.006229
      dxy     :     0.010427


SPIN
  0 C s       :    -0.000457  s :    -0.000457
      pz      :    -0.000643  p :     0.000362
      px      :     0.003252
      py      :    -0.002246
      dz2     :     0.000796  d :     0.010826
      dxz     :     0.000787
      dyz     :     0.000115
      dx2y2   :     0.009353
      dxy     :    -0.000225
      f0      :     0.000079  f :     0.005816
      f+1     :     0.000828
      f-1     :     0.000050
      f+2     :     0.002158
      f-2     :     0.000068
      f+3     :     0.002239
      f-3     :     0.000393

  1 C s       :     0.003181  s :     0.003181
      pz      :     0.003125  p :     0.052541
      px      :     0.048698
      py      :     0.000718
      dz2     :    -0.000622  d :     0.003665
      dxz     :     0.000262
      dyz     :     0.000094
      dx2y2   :     0.000368
      dxy     :     0.003563
      f0      :    -0.000198  f :    -0.000961
      f+1     :    -0.000110
      f-1     :     0.000006
      f+2     :     0.000021
      f-2     :    -0.000190
      f+3     :    -0.000062
      f-3     :    -0.000427

  2 C s       :    -0.001808  s :    -0.001808
      pz      :     0.001860  p :     0.002790
      px      :     0.008711
      py      :    -0.007781
      dz2     :     0.017996  d :     0.058318
      dxz     :     0.005219
      dyz     :     0.012102
      dx2y2   :     0.011240
      dxy     :     0.011761
      f0      :     0.004479  f :     0.042049
      f+1     :     0.004002
      f-1     :     0.007775
      f+2     :     0.009730
      f-2     :     0.001144
      f+3     :     0.004110
      f-3     :     0.010809

  3 N s       :     0.015077  s :     0.015077
      pz      :     0.229774  p :     0.474757
      px      :     0.232636
      py      :     0.012346
      dz2     :     0.005803  d :     0.006928
      dxz     :    -0.001357
      dyz     :    -0.001095
      dx2y2   :     0.005789
      dxy     :    -0.002212
      f0      :     0.000242  f :     0.002134
      f+1     :     0.001283
      f-1     :    -0.000437
      f+2     :     0.001787
      f-2     :    -0.000393
      f+3     :     0.000249
      f-3     :    -0.000598

  4 H s       :    -0.010823  s :    -0.010823
      pz      :     0.022160  p :     0.043677
      px      :     0.021093
      py      :     0.000424
      dz2     :     0.027565  d :     0.036024
      dxz     :     0.001192
      dyz     :     0.000357
      dx2y2   :     0.006671
      dxy     :     0.000239

  5 C s       :    -0.001808  s :    -0.001808
      pz      :     0.001860  p :     0.002790
      px      :     0.008712
      py      :    -0.007781
      dz2     :     0.017992  d :     0.058311
      dxz     :     0.005221
      dyz     :     0.012101
      dx2y2   :     0.011236
      dxy     :     0.011762
      f0      :     0.004477  f :     0.042051
      f+1     :     0.004003
      f-1     :     0.007779
      f+2     :     0.009732
      f-2     :     0.001143
      f+3     :     0.004111
      f-3     :     0.010806

  6 C s       :     0.003181  s :     0.003181
      pz      :     0.003124  p :     0.052543
      px      :     0.048701
      py      :     0.000718
      dz2     :    -0.000623  d :     0.003666
      dxz     :     0.000263
      dyz     :     0.000094
      dx2y2   :     0.000368
      dxy     :     0.003564
      f0      :    -0.000198  f :    -0.000961
      f+1     :    -0.000110
      f-1     :     0.000006
      f+2     :     0.000021
      f-2     :    -0.000190
      f+3     :    -0.000062
      f-3     :    -0.000427

  7 H s       :     0.004871  s :     0.004871
      pz      :     0.000279  p :     0.003654
      px      :     0.003069
      py      :     0.000306
      dz2     :     0.000779  d :     0.004331
      dxz     :     0.000289
      dyz     :     0.000252
      dx2y2   :     0.001206
      dxy     :     0.001804

  8 H s       :    -0.000823  s :    -0.000823
      pz      :     0.000423  p :     0.002215
      px      :     0.001839
      py      :    -0.000048
      dz2     :     0.000893  d :     0.004667
      dxz     :     0.003426
      dyz     :     0.000057
      dx2y2   :    -0.000077
      dxy     :     0.000368

  9 H s       :     0.001856  s :     0.001856
      pz      :     0.000336  p :    -0.000580
      px      :    -0.000520
      py      :    -0.000396
      dz2     :     0.002645  d :     0.002485
      dxz     :     0.000305
      dyz     :    -0.000437
      dx2y2   :     0.000453
      dxy     :    -0.000481

 10 H s       :     0.018770  s :     0.018770
      pz      :     0.000450  p :    -0.000093
      px      :    -0.000933
      py      :     0.000389
      dz2     :    -0.000278  d :     0.001094
      dxz     :    -0.000010
      dyz     :    -0.000225
      dx2y2   :     0.000365
      dxy     :     0.001243

 11 H s       :     0.001855  s :     0.001855
      pz      :     0.000336  p :    -0.000580
      px      :    -0.000519
      py      :    -0.000396
      dz2     :     0.002645  d :     0.002485
      dxz     :     0.000304
      dyz     :    -0.000437
      dx2y2   :     0.000454
      dxy     :    -0.000481

 12 H s       :     0.018776  s :     0.018776
      pz      :     0.000450  p :    -0.000093
      px      :    -0.000933
      py      :     0.000390
      dz2     :    -0.000278  d :     0.001095
      dxz     :    -0.000011
      dyz     :    -0.000225
      dx2y2   :     0.000365
      dxy     :     0.001243

 13 H s       :     0.004868  s :     0.004868
      pz      :     0.000279  p :     0.003654
      px      :     0.003069
      py      :     0.000306
      dz2     :     0.000780  d :     0.004331
      dxz     :     0.000290
      dyz     :     0.000252
      dx2y2   :     0.001206
      dxy     :     0.001803

 14 H s       :    -0.000822  s :    -0.000822
      pz      :     0.000423  p :     0.002215
      px      :     0.001839
      py      :    -0.000048
      dz2     :     0.000893  d :     0.004667
      dxz     :     0.003426
      dyz     :     0.000057
      dx2y2   :    -0.000077
      dxy     :     0.000368

 15 H s       :     0.009203  s :     0.009203
      pz      :     0.000117  p :     0.000541
      px      :     0.000670
      py      :    -0.000246
      dz2     :     0.000211  d :     0.000039
      dxz     :    -0.000004
      dyz     :    -0.000033
      dx2y2   :    -0.000072
      dxy     :    -0.000063

 16 H s       :     0.000643  s :     0.000643
      pz      :     0.000130  p :     0.000516
      px      :     0.000574
      py      :    -0.000189
      dz2     :     0.000042  d :     0.000294
      dxz     :     0.000143
      dyz     :    -0.000162
      dx2y2   :     0.000303
      dxy     :    -0.000031



                      *****************************
                      * MAYER POPULATION ANALYSIS *
                      *****************************

  NA   - Mulliken gross atomic population
  ZA   - Total nuclear charge
  QA   - Mulliken gross atomic charge
  VA   - Mayer's total valence
  BVA  - Mayer's bonded valence
  FA   - Mayer's free valence

  ATOM       NA         ZA         QA         VA         BVA        FA
  0 C      5.8790     6.0000     0.1210     4.1999     4.1995     0.0004
  1 C      6.0052     6.0000    -0.0052     4.3397     4.3306     0.0091
  2 C      5.8513     6.0000     0.1487     4.0521     4.0393     0.0128
  3 N      6.9650     7.0000     0.0350     3.6646     3.2071     0.4575
  4 H      0.9164     1.0000     0.0836     1.0493     1.0480     0.0014
  5 C      5.8513     6.0000     0.1487     4.0523     4.0395     0.0128
  6 C      6.0053     6.0000    -0.0053     4.3399     4.3307     0.0091
  7 H      1.0159     1.0000    -0.0159     0.9820     0.9816     0.0004
  8 H      0.9302     1.0000     0.0698     0.9942     0.9942     0.0000
  9 H      0.9569     1.0000     0.0431     0.9998     0.9997     0.0000
 10 H      0.8806     1.0000     0.1194     0.9913     0.9899     0.0014
 11 H      0.9570     1.0000     0.0430     0.9998     0.9998     0.0000
 12 H      0.8807     1.0000     0.1193     0.9913     0.9899     0.0014
 13 H      1.0159     1.0000    -0.0159     0.9821     0.9817     0.0004
 14 H      0.9302     1.0000     0.0698     0.9942     0.9942     0.0000
 15 H      1.0653     1.0000    -0.0653     1.0152     1.0148     0.0004
 16 H      0.8938     1.0000     0.1062     0.9823     0.9822     0.0000

  Mayer bond orders larger than 0.100000
B(  0-C ,  1-C ) :   1.0561 B(  0-C ,  6-C ) :   1.0563 B(  0-C , 15-H ) :   0.9886 
B(  0-C , 16-H ) :   0.9042 B(  1-C ,  2-C ) :   0.9743 B(  1-C ,  3-N ) :   0.1171 
B(  1-C ,  6-C ) :   0.1080 B(  1-C , 13-H ) :   0.9583 B(  1-C , 14-H ) :   0.9587 
B(  2-C ,  3-N ) :   0.9564 B(  2-C , 11-H ) :   1.0105 B(  2-C , 12-H ) :   0.8749 
B(  3-N ,  4-H ) :   0.9294 B(  3-N ,  5-C ) :   0.9564 B(  3-N ,  6-C ) :   0.1171 
B(  5-C ,  6-C ) :   0.9744 B(  5-C ,  9-H ) :   1.0105 B(  5-C , 10-H ) :   0.8749 
B(  6-C ,  7-H ) :   0.9582 B(  6-C ,  8-H ) :   0.9587 

-------
TIMINGS
-------

Total SCF time: 0 days 0 hours 2 min 39 sec 

Total time                  ....     159.042 sec
Sum of individual times     ....     158.363 sec  ( 99.6%)

SCF preparation             ....       0.836 sec  (  0.5%)
Fock matrix formation       ....     148.330 sec  ( 93.3%)
  Startup                   ....       1.167 sec  (  0.8% of F)
  Split-RI-J                ....       6.949 sec  (  4.7% of F)
  Chain of spheres X        ....      70.314 sec  ( 47.4% of F)
  XC integration            ....      63.776 sec  ( 43.0% of F)
    XC Preparation          ....       0.000 sec  (  0.0% of XC)
    Basis function eval.    ....       3.307 sec  (  5.2% of XC)
    Density eval.           ....      18.896 sec  ( 29.6% of XC)
    XC-Functional eval.     ....       0.668 sec  (  1.0% of XC)
    XC-Potential eval.      ....      38.828 sec  ( 60.9% of XC)
  CPCM terms                ....       3.284 sec  (  2.2% of F)
Diagonalization             ....       0.000 sec  (  0.0%)
Density matrix formation    ....       2.548 sec  (  1.6%)
Total Energy calculation    ....       1.059 sec  (  0.7%)
Population analysis         ....       0.270 sec  (  0.2%)
Orbital Transformation      ....       0.537 sec  (  0.3%)
Orbital Orthonormalization  ....       0.000 sec  (  0.0%)
DIIS solution               ....       3.243 sec  (  2.0%)
SOSCF solution              ....       1.539 sec  (  1.0%)
Finished LeanSCF after 159.2 sec

Maximum memory used throughout the entire LEANSCF-calculation: 76.3 MB


-------------------------------------------------------------------------------
                          DFT DISPERSION CORRECTION                            
                                                                               
                              DFTD3 V3.1  Rev 1                                
                          USING Becke-Johnson damping                          
-------------------------------------------------------------------------------
The TPSSH functional is recognized
Active option DFTDOPT                   ...         4   

molecular C6(AA) [au] = 1985.939321 


            DFT-D V3
 parameters
 s6 scaling factor         :     1.0000 
 a1 scaling factor         :     0.4529 
 s8 scaling factor         :     2.2382 
 a2 scaling factor         :     4.6550 
 ad hoc parameters k1-k3   :    16.0000     1.3333    -4.0000 

 Edisp/kcal,au: -10.312513843746  -0.016434035134 
 E6   /kcal   :  -5.167573303 
 E8   /kcal   :  -5.144940541 
 % E8         :  49.890265544 

-------------------------   ----------------
Dispersion correction           -0.016434035
-------------------------   ----------------


-------------------------   --------------------
FINAL SINGLE POINT ENERGY      -251.847268605694
-------------------------   --------------------



           ************************************************************
           *        Program running with 4 parallel MPI-processes     *
           *              working on a common directory               *
           ************************************************************

------------------------------------------------------------------------------
                              ORCA PROPERTY CALCULATIONS
------------------------------------------------------------------------------

GBWName                                 ... cs_rporg_074_ox_solv_01.gbw
Number of atoms                         ...     17
Number of basis functions               ...    565
Max core memory                         ...   3000 MB

Electric properties:
Dipole moment                           ... YES
Quadrupole moment                       ...  NO
Static polarizability (Dipole/Dipole)   ...  NO
Static polarizability (Dipole/Quad.)    ...  NO
Static polarizability (Quad./Quad.)     ...  NO
Static polarizability (Velocity)        ...  NO

Atomic electric properties:
Dipole moment                           ...  NO
Quadrupole moment                       ...  NO
Static polarizability                   ...  NO

Choice of electric origin               ... Center of mass
Position of electric origin             ...     0.025217    -0.000008     0.115100

General magnetic properties:
Magnetizability                         ...  NO

EPR properties:
g-Tensor (aka g-matrix)                 ...  NO
Zero-Field splitting spin-orbit         ...  NO
Zero-field splitting spin-spin          ...  NO
Hyperfine couplings                     ...  NO (   0 nuclei)
Quadrupole couplings                    ...  NO (   0 nuclei)
Contact density                         ...  NO (   0 nuclei)

NMR properties:
Chemical shifts                         ...  NO (   0 nuclei)
Spin-rotation constants                 ...  NO (   0 nuclei)
Spin-spin couplings                     ...  NO (   0 nuclei,    0 pairs)

Choice of magnetic origin               ... GIAO
Position of magnetic origin             ...     0.000000     0.000000     0.000000

Properties with geometric perturbations:
SCF Hessian                             ...  NO
IR spectrum                             ...  NO
VCD spectrum                            ...  NO
X-ray spectroscopy properties:
SCF XES/XAS/RIXS spectra                ...  NO


-------------
DIPOLE MOMENT
-------------

Method             : SCF
Type of density    : Electron Density
Multiplicity       :   2
Irrep              :   0
Energy             :  -251.8308345705598867 Eh
Relativity type    : 
Basis              : AO
                                X                 Y                 Z
Electronic contribution:      2.929937223      -0.000111697      -0.269804896
Nuclear contribution   :     -1.624364743       0.000100191       0.049600711
                        -----------------------------------------
Total Dipole Moment    :      1.305572480      -0.000011506      -0.220204185
                        -----------------------------------------
Magnitude (a.u.)       :      1.324012608
Magnitude (Debye)      :      3.365372598



--------------------
Rotational spectrum 
--------------------
 
Rotational constants in cm-1:             0.150674             0.148298             0.085270 
Rotational constants in MHz :          4517.103915          4445.872601          2556.320795 

Dipole components along the rotational axes: 
x,y,z [a.u.] :    -0.000148     1.287770    -0.307663 
x,y,z [Debye]:    -0.000375     3.273252    -0.782018 

 

Dipole moment calculation done in   0.1 sec 

Maximum memory used throughout the entire PROP-calculation: 42.8 MB

--------------------------------
SUGGESTED CITATIONS FOR THIS RUN
--------------------------------

Below you find a list of papers that are relevant to this ORCA run
We neither can nor want to force you to cite these papers, but we appreciate if you do
You receive ORCA, which is the product of decades of hard work by many enthusiastic individuals, for free
The only thing we kindly ask in return is that you cite our papers,
We deeply appreciate it, if you show your appreciation for ORCA by not just citing the generic ORCA reference.

Please note that relegating all ORCA citations to the supporting information does *not* help us.
SI sections are not indexed - citations you put there will not count into any citation statistics
But we need these citations in order to attract the funding resources that allow us to do what we are doing

Therefore, if you are a happy ORCA user, please consider citing a few of the papers listed below in the main body of your paper

In addition to the list printed below, the program has created the file cs_rporg_074_ox_solv_01.bibtex that contains the list in bibtex format
You can import this file easily into all common literature databanks and citation aid programs


List of essential papers. We consider these as the minimum necessary citations

  1. Neese,F.
     Software update: the ORCA program system, version 5.0
     WIRES Comput. Molec. Sci., 2022 12(1)e1606
     doi.org/10.1002/wcms.1606

List of papers to cite with high priority. The work reported in these papers was absolutely
necessary for this run to complete.
Our perspective: the developers of density functionals and basis sets usually get cited in chemistry papers
Good! But without the algorithms to do something with them, the functionals or basis sets would not do anything.
Hence, in our opinion, the algorithm design and method developments papers are equally worthy of getting cited

  1. Neese,F.
     An improvement of the resolution of the identity approximation for the formation of the Coulomb matrix
     J. Comp. Chem., 2003 24(14)1740-1747
     doi.org/10.1002/jcc.10318
  2. Neese,F.; Wennmohs,F.; Hansen,A.; Becker,U.
     Efficient, approximate and parallel Hartree-Fock and hybrid DFT calculations. A 'chain-of-spheres' algorithm for the Hartree-Fock exchange
     Chem. Phys., 2009 356(1-3)98-109
     doi.org/10.1016/j.chemphys.2008.10.036
  3. Garcia-Rates,M.; Neese,F.
     Effect of the Solute Cavity on the Solvation Energy and its Derivatives within the Framework of the Gaussian Charge Scheme
     J. Comput. Chem., 2020 41 922-939
     doi.org/10.1002/jcc.26139
  4. Helmich-Paris,B.; de Souza,B.; Neese,F.; Izsák,R.
     An improved chain of spheres for exchange algorithm
     J. Chem. Phys., 2021 155 104109
     doi.org/doi: 10.1063/5.0058766.
  5. Neese,F.
     The SHARK Integral Generation and Digestion System
     J. Comp. Chem., 2022  1-16
     doi.org/10.1002/jcc.26942
  6. Grimme,S.; Antony,J.; Ehrlich,S.; Krieg,H.
     A consistent and accurate ab initio parametrization of density functional dispersion correction (DFT-D) for the 94 elements H-Pu
     J. Chem. Phys., 2010 132 154104-XXXX
     doi.org/10.1063/1.3382344
  7. Grimme,S.; Ehrlich,S.; Goerigk,L.
     Effect of the damping function in dispersion corrected density functional theory
     J. Comput. Chem., 2011 32(7)1456-1465
     doi.org/10.1002/jcc.21759

List of suggested additional citations. These are papers that are important in the 'surrounding' of 
of this run, or papers that preceded the highly important papers. If you like your results we are grateful for a citation.

  1. Izsak,R.; Neese,F.
     An overlap fitted chain of spheres exchange method
     J. Chem. Phys., 2011 135 144105
     doi.org/10.1063/1.3646921
  2. Izsak,R.; Hansen,A.; Neese,F.
     The resolution of identity and chain of spheres approximations for the LPNO-CCSD singles Fock term
     Molec. Phys., 2012 110 2413-2417
     doi.org/10.1080/00268976.2012.687466
  3. Neese,F.
     The ORCA program system
     WIRES Comput. Molec. Sci., 2012 2(1)73-78
     doi.org/10.1002/wcms.81
  4. Izsak,R.; Neese,F.; Klopper,W.
     Robust fitting techniques in the chain of spheres approximation to the Fock exchange: The role of the complementary space
     J. Chem. Phys., 2013 139 
     doi.org/10.1063/1.4819264
  5. Neese,F.
     Software update: the ORCA program system, version 4.0
     WIRES Comput. Molec. Sci., 2018 8(1)1-6
     doi.org/10.1002/wcms.1327
  6. Neese,F.; Wennmohs,F.; Becker,U.; Riplinger,C.
     The ORCA quantum chemistry program package
     J. Chem. Phys., 2020 152 Art. No. L224108
     doi.org/10.1063/5.0004608

List of optional additional citations

  1. Neese,F.
     Approximate second-order SCF convergence for spin unrestricted wavefunctions
     Chem. Phys. Lett., 2000 325(1-3)93-98
     doi.org/10.1016/s0009-2614(00)00662-x

Timings for individual modules:

Sum of individual times          ...      172.413 sec (=   2.874 min)
Startup calculation              ...        7.204 sec (=   0.120 min)   4.2 %
SCF iterations                   ...      163.610 sec (=   2.727 min)  94.9 %
Property calculations            ...        1.599 sec (=   0.027 min)   0.9 %
                             ****ORCA TERMINATED NORMALLY****
TOTAL RUN TIME: 0 days 0 hours 2 minutes 55 seconds 468 msec
