
                                 *****************
                                 * O   R   C   A *
                                 *****************

                                            #,                                       
                                            ###                                      
                                            ####                                     
                                            #####                                    
                                            ######                                   
                                           ########,                                 
                                     ,,################,,,,,                         
                               ,,#################################,,                 
                          ,,##########################################,,             
                       ,#########################################, ''#####,          
                    ,#############################################,,   '####,        
                  ,##################################################,,,,####,       
                ,###########''''           ''''###############################       
              ,#####''   ,,,,##########,,,,          '''####'''          '####       
            ,##' ,,,,###########################,,,                        '##       
           ' ,,###''''                  '''############,,,                           
         ,,##''                                '''############,,,,        ,,,,,,###''
      ,#''                                            '''#######################'''  
     '                                                          ''''####''''         
             ,#######,   #######,   ,#######,      ##                                
            ,#'     '#,  ##    ##  ,#'     '#,    #''#        ,####,   ,####,        
            ##       ##  ##   ,#'  ##            #'  '#       #'       #'  '#        
            ##       ##  #######   ##           ,######,      #####,   #    #        
            '#,     ,#'  ##    ##  '#,     ,#' ,#      #,     #,   #   #,  ,#        
             '#######'   ##     ##  '#######'  #'      '#     '####' # '####'        



                #########################################################
                #                        -***-                          #
                #          Department of theory and spectroscopy        #
                #                                                       #
                #                      Frank Neese                      #
                #                                                       #
                #     Directorship, Architecture, Infrastructure        #
                #                    SHARK, DRIVERS                     #
                #        Core code/Algorithms in most modules           #
                #                                                       #
                #        Max Planck Institute fuer Kohlenforschung      #
                #                Kaiser Wilhelm Platz 1                 #
                #                 D-45470 Muelheim/Ruhr                 #
                #                      Germany                          #
                #                                                       #
                #                  All rights reserved                  #
                #                        -***-                          #
                #########################################################


                         Program Version 6.0.0  -   RELEASE  -


 With contributions from (in alphabetic order):
   Daniel Aravena         : Magnetic Suceptibility
   Michael Atanasov       : Ab Initio Ligand Field Theory (pilot matlab implementation)
   Alexander A. Auer      : GIAO ZORA, VPT2 properties, NMR spectrum
   Ute Becker             : All parallelization in ORCA, NUMFREQ, NUMCALC
   Giovanni Bistoni       : ED, misc. LED, open-shell LED, HFLD
   Martin Brehm           : Molecular dynamics
   Dmytro Bykov           : pre 5.0 version of the SCF Hessian
   Marcos Casanova-Páez   : Triplet and SCS-CIS(D). UHF-(DLPNO)-IP/EA/STEOM-CCSD. UHF-CVS-IP/STEOM-CCSD
   Vijay G. Chilkuri      : MRCI spin determinant printing, contributions to CSF-ICE
   Pauline Colinet        : FMM embedding
   Dipayan Datta          : RHF DLPNO-CCSD density
   Achintya Kumar Dutta   : EOM-CC, STEOM-CC
   Nicolas Foglia         : Exact transition moments, OPA infrastructure, MCD improvements
   Dmitry Ganyushin       : Spin-Orbit,Spin-Spin,Magnetic field MRCI
   Miquel Garcia          : C-PCM and meta-GGA Hessian, CCSD/C-PCM, Gaussian charge scheme
   Tiago L. C. Gouveia    : GS-ROHF, GS-ROCIS
   Yang Guo               : DLPNO-NEVPT2, F12-NEVPT2, CIM, IAO-localization
   Andreas Hansen         : Spin unrestricted coupled pair/coupled cluster methods
   Ingolf Harden          : AUTO-CI MPn and infrastructure 
   Benjamin Helmich-Paris : MC-RPA, TRAH-(SCF,CASSCF), AVAS, COSX integrals, SCF dyn. polar.
   Lee Huntington         : MR-EOM, pCC
   Robert Izsak           : Overlap fitted RIJCOSX, COSX-SCS-MP3, EOM
   Riya Kayal             : Wick's Theorem for AUTO-CI, AUTO-CI UHF-CCSDT
   Emily Kempfer          : AUTO-CI, RHF CISDT and CCSDT
   Christian Kollmar      : KDIIS, OOCD, Brueckner-CCSD(T), CCSD density, CASPT2, CASPT2-K, improved NEVPT2
   Axel Koslowski         : Symmetry handling
   Simone Kossmann        : Meta GGA functionals, TD-DFT gradient, OOMP2, (MP2 Hessian; deprecated post 5.0)
   Lucas Lang             : DCDCAS
   Marvin Lechner         : AUTO-CI (C++ implementation), FIC-MRCC
   Spencer Leger          : CASSCF response
   Dagmar Lenk            : GEPOL surface, SMD, ORCA-2-JSON
   Dimitrios Liakos       : Extrapolation schemes; Compound Job, initial MDCI parallelization
   Dimitrios Manganas     : Further ROCIS development; embedding schemes. LFT, Crystal Embedding
   Dimitrios Pantazis     : SARC Basis sets
   Anastasios Papadopoulos: AUTO-CI, single reference methods and gradients
   Taras Petrenko         : pre 6.0 DFT Hessian and TD-DFT gradient, (ASA, deprecated), ECA, 1-Electron XAS/XES, NRVS
   Peter Pinski           : DLPNO-MP2, DLPNO-MP2 Gradient
   Christoph Reimann      : Effective Core Potentials
   Marius Retegan         : Local ZFS, SOC
   Christoph Riplinger    : Optimizer, TS searches, QM/MM, DLPNO-CCSD(T), (RO)-DLPNO pert. Triples
   Michael Roemelt        : Original ROCIS implementation
   Masaaki Saitow         : Open-shell DLPNO-CCSD energy and density
   Barbara Sandhoefer     : DKH picture change effects
   Kantharuban Sivalingam : CASSCF convergence/infrastructure, NEVPT2 and variants, FIC-MRCI
   Bernardo de Souza      : ESD, SOC TD-DFT
   Georgi Stoychev        : AutoAux, RI-MP2 NMR, DLPNO-MP2 response, X2C
   Van Anh Tran           : RI-MP2 g-tensors
   Willem Van den Heuvel  : Paramagnetic NMR
   Zikuan Wang            : NOTCH, Electric field optimization 
   Frank Wennmohs         : Technical directorship and infrastructure
   Hang Xu                : AUTO-CI-Response properties 


 We gratefully acknowledge several colleagues who have allowed us to
 interface, adapt or use parts of their codes:
   Stefan Grimme, W. Hujo, H. Kruse, P. Pracht,  : VdW corrections, initial TS optimization,
                  C. Bannwarth, S. Ehlert,         DFT functionals, gCP, sTDA/sTD-DF
                  L. Wittmann, M. Mueller
   Ed Valeev, F. Pavosevic, A. Kumar             : LibInt (2-el integral package), F12 methods
   Garnet Chan, S. Sharma, J. Yang, R. Olivares  : DMRG
   Ulf Ekstrom                                   : XCFun DFT Library
   Mihaly Kallay                                 : mrcc  (arbitrary order and MRCC methods)
   Frank Weinhold                                : gennbo (NPA and NBO analysis)
   Simon Mueller                                 : openCOSMO-RS
   Christopher J. Cramer and Donald G. Truhlar   : smd solvation model
   Lars Goerigk                                  : TD-DFT with DH, B97 family of functionals
   V. Asgeirsson, H. Jonsson                     : NEB implementation
   FAccTs GmbH                                   : IRC, NEB, NEB-TS, DLPNO-Multilevel, CI-OPT
                                                   MM, QMMM, 2- and 3-layer-ONIOM, Crystal-QMMM,
                                                   LR-CPCM, SF, NACMEs, symmetry and pop. for TD-DFT,
                                                   nearIR, NL-DFT gradient (VV10), updates on ESD,
                                                   ML-optimized integration grids, MBIS, APM,
                                                   GOAT, DOCKER, SOLVATOR, interface openCOSMO-RS
   S Lehtola, MJT Oliveira, MAL Marques          : LibXC Library
   Liviu Ungur et al                             : ANISO software


 Your calculation uses the libint2 library for the computation of 2-el integrals
 For citations please refer to: http://libint.valeyev.net

 Your ORCA version has been built with support for libXC version: 6.2.2
 For citations please refer to: https://libxc.gitlab.io

 This ORCA versions uses:
   CBLAS   interface :  Fast vector & matrix operations
   LAPACKE interface :  Fast linear algebra routines
   SCALAPACK package :  Parallel linear algebra routines
   Shared memory     :  Shared parallel matrices
   BLAS/LAPACK       :  OpenBLAS 0.3.27  USE64BITINT DYNAMIC_ARCH NO_AFFINITY Sandybridge SINGLE_THREADED
        Core in use  :  Sandybridge
   Copyright (c) 2011-2014, The OpenBLAS Project


NOTE: MaxCore=3500 MB was set to SCF,MP2,MDCI,CIPSI,MRCI and CIS
      => If you want to overwrite this, your respective input block should be placed after the MaxCore statement
Your calculation utilizes the atom-pairwise dispersion correction
with the Becke-Johnson damping scheme (D3BJ)


Your calculation utilizes the SMD solvation module
Please cite in your paper:
A.V. Marenich, C.J. Cramer, D.G. Truhlar J. Phys. Chem. B, 113, (2009), 6378 

Warning: RI is on but no J-basis has been assigned. Assigning Def2/J (nothing to worry about!)
================================================================================

----- Orbital basis set information -----
Your calculation utilizes the basis: aug-cc-pVTZ 
    H, B-Ne : Obtained from the ccRepo (grant-hill.group.shef.ac.uk/ccrepo) Feb. 2017
              R. A. Kendall, T. H. Dunning, Jr., R. J. Harrison, J. Chem. Phys. 96, 6796 (1992)
         He : Obtained from the ccRepo (grant-hill.group.shef.ac.uk/ccrepo) Feb. 2017
              D. E. Woon, T. H. Dunning, Jr., J. Chem. Phys. 100, 2975 (1994)
  Li-Be, Na : Obtained from the ccRepo (grant-hill.group.shef.ac.uk/ccrepo) Feb. 2017
              B. P. Prascher, D. E. Woon, K. A. Peterson, T. H. Dunning, Jr., A. K. Wilson, Theor. Chem. Acc. 128, 69 (2011)
         Mg : Obtained from the Peterson Research Group Website (tyr0.chem.wsu.edu/~kipeters) Feb. 2017
              B. P. Prascher, D. E. Woon, K. A. Peterson, T. H. Dunning, Jr., A. K. Wilson, Theor. Chem. Acc. 128, 69 (2011)
      Al-Ar : Obtained from the ccRepo (grant-hill.group.shef.ac.uk/ccrepo) Feb. 2017
              D. E. Woon, T. H. Dunning, Jr., J. Chem. Phys. 98, 1358 (1993)
      Sc-Zn : Obtained from the ccRepo (grant-hill.group.shef.ac.uk/ccrepo) Feb. 2017
              N. B. Balabanov, K. A. Peterson, J. Chem. Phys. 123, 064107 (2005)
              N. B. Balabanov, K. A. Peterson, J. Chem. Phys. 125, 074110 (2006)
      Ga-Kr : Obtained from the ccRepo (grant-hill.group.shef.ac.uk/ccrepo) Feb. 2017
              A. K. Wilson, D. E. Woon, K. A. Peterson, T. H. Dunning, Jr., J. Chem. Phys. 110, 7667 (1999)
     Ag, Au : Obtained from the Peterson Research Group Website (tyr0.chem.wsu.edu/~kipeters) Feb. 2017
              K. A. Peterson, C. Puzzarini, Theor. Chem. Acc. 114, 283 (2005)

----- AuxJ basis set information -----
Your calculation utilizes the auxiliary basis: def2/J
   F. Weigend, Phys. Chem. Chem. Phys. 8, 1057 (2006).

================================================================================
                                        WARNINGS
                       Please study these warnings very carefully!
================================================================================


WARNING: your system is open-shell and RHF/RKS was chosen
  ===> : WILL SWITCH to UHF/UKS


================================================================================
                                       INPUT FILE
================================================================================
NAME = cs_rporg_w06_red_solv_02.inp
|  1> !B3LYP aug-cc-pVTZ d3 TightSCF SlowConv RIJCOSX defgrid2
|  2> 
|  3> %pal
|  4> nprocs 10
|  5> end
|  6> 
|  7> %scf
|  8> MaxIter 1500
|  9> end
| 10> 
| 11> %maxcore 3500
| 12> 
| 13> !CPCM
| 14> %cpcm smd true
| 15> SMDsolvent "WATER"
| 16> surfacetype gepol_ses
| 17> rsolv 1.40
| 18> end
| 19> 
| 20> * xyz 0 2
| 21>   C          -0.11609874427787     -0.00549833146305     -1.09166051828012
| 22>   C          -0.06011683134759     -0.95278509536638     -0.14629559883637
| 23>   C          -0.12471069310473     -0.40669924924484      1.24362311758038
| 24>   N          -0.22754435037957      1.03434271135506      0.95079797263953
| 25>   C          -0.23150406587531      1.38042585937059     -0.48840792759055
| 26>   H           0.02559760749994     -2.01735042488152     -0.37607502307243
| 27>   O          -0.30719725434603      1.90352542466580      1.84763502630721
| 28>   C          -0.06026175824533     -0.38808249649150     -2.53546561747586
| 29>   O           0.04263596012876     -1.54903384399020     -2.88061155377649
| 30>   C          -1.54909261101230      2.09648655652139     -0.80036124124277
| 31>   H          -1.58247082249827      2.48576443460033     -1.83190594119848
| 32>   H          -2.40467570485958      1.41531605976659     -0.65984133217838
| 33>   H          -1.65709970518172      2.94563669192758     -0.10515427072988
| 34>   C           0.97137748294183      2.28793540378461     -0.76183532174647
| 35>   H           0.92403797538752      3.14845181915781     -0.07373708321239
| 36>   H           1.91466513722241      1.74585954892844     -0.58293263501816
| 37>   H           0.98323354337203      2.66940679234643     -1.79662980647134
| 38>   C           1.14603484773707     -0.67849930031598      2.05108178091850
| 39>   H           1.22944818447998     -1.74985812098869      2.29970024784929
| 40>   H           2.04188216597692     -0.37745827941083      1.48284498269252
| 41>   H           1.11122089200302     -0.09513329178683      2.98649209630369
| 42>   C          -1.36731121460930     -0.86517254295167      2.00958246948541
| 43>   H          -2.27834603550156     -0.69741684096779      1.41130352571173
| 44>   H          -1.30032457043791     -1.93784209757345      2.25766668368952
| 45>   H          -1.44837094192206     -0.28492100112544      2.94388101584222
| 46>   N          -0.12913367845321      0.62854904476097     -3.43820730517209
| 47>   H          -0.22721159511714      1.59778561337663     -3.17267086489660
| 48>   H          -0.09811273057999      0.38459799799591     -4.42137771112161
| 49> *
| 50> 
| 51>                          ****END OF INPUT****
================================================================================

                       ****************************
                       * Single Point Calculation *
                       ****************************

---------------------------------
CARTESIAN COORDINATES (ANGSTROEM)
---------------------------------
  C     -0.116099   -0.005498   -1.091661
  C     -0.060117   -0.952785   -0.146296
  C     -0.124711   -0.406699    1.243623
  N     -0.227544    1.034343    0.950798
  C     -0.231504    1.380426   -0.488408
  H      0.025598   -2.017350   -0.376075
  O     -0.307197    1.903525    1.847635
  C     -0.060262   -0.388082   -2.535466
  O      0.042636   -1.549034   -2.880612
  C     -1.549093    2.096487   -0.800361
  H     -1.582471    2.485764   -1.831906
  H     -2.404676    1.415316   -0.659841
  H     -1.657100    2.945637   -0.105154
  C      0.971377    2.287935   -0.761835
  H      0.924038    3.148452   -0.073737
  H      1.914665    1.745860   -0.582933
  H      0.983234    2.669407   -1.796630
  C      1.146035   -0.678499    2.051082
  H      1.229448   -1.749858    2.299700
  H      2.041882   -0.377458    1.482845
  H      1.111221   -0.095133    2.986492
  C     -1.367311   -0.865173    2.009582
  H     -2.278346   -0.697417    1.411304
  H     -1.300325   -1.937842    2.257667
  H     -1.448371   -0.284921    2.943881
  N     -0.129134    0.628549   -3.438207
  H     -0.227212    1.597786   -3.172671
  H     -0.098113    0.384598   -4.421378

----------------------------
CARTESIAN COORDINATES (A.U.)
----------------------------
  NO LB      ZA    FRAG     MASS         X           Y           Z
   0 C     6.0000    0    12.011   -0.219395   -0.010390   -2.062939
   1 C     6.0000    0    12.011   -0.113604   -1.800503   -0.276459
   2 C     6.0000    0    12.011   -0.235669   -0.768550    2.350107
   3 N     7.0000    0    14.007   -0.429997    1.954624    1.796748
   4 C     6.0000    0    12.011   -0.437479    2.608627   -0.922957
   5 H     1.0000    0     1.008    0.048372   -3.812240   -0.710679
   6 O     8.0000    0    15.999   -0.580519    3.597142    3.491524
   7 C     6.0000    0    12.011   -0.113878   -0.733370   -4.791336
   8 O     8.0000    0    15.999    0.080570   -2.927250   -5.443567
   9 C     6.0000    0    12.011   -2.927361    3.961785   -1.512464
  10 H     1.0000    0     1.008   -2.990436    4.697414   -3.461801
  11 H     1.0000    0     1.008   -4.544179    2.674560   -1.246919
  12 H     1.0000    0     1.008   -3.131465    5.566447   -0.198713
  13 C     6.0000    0    12.011    1.835637    4.323571   -1.439660
  14 H     1.0000    0     1.008    1.746179    5.949712   -0.139343
  15 H     1.0000    0     1.008    3.618193    3.299196   -1.101583
  16 H     1.0000    0     1.008    1.858042    5.044448   -3.395138
  17 C     6.0000    0    12.011    2.165692   -1.282178    3.875983
  18 H     1.0000    0     1.008    2.323320   -3.306753    4.345804
  19 H     1.0000    0     1.008    3.858598   -0.713293    2.802171
  20 H     1.0000    0     1.008    2.099903   -0.179776    5.643652
  21 C     6.0000    0    12.011   -2.583844   -1.634939    3.797561
  22 H     1.0000    0     1.008   -4.305450   -1.317927    2.666977
  23 H     1.0000    0     1.008   -2.457257   -3.661991    4.266372
  24 H     1.0000    0     1.008   -2.737024   -0.538423    5.563129
  25 N     7.0000    0    14.007   -0.244027    1.187786   -6.497270
  26 H     1.0000    0     1.008   -0.429368    3.019377   -5.995479
  27 H     1.0000    0     1.008   -0.185406    0.726785   -8.355193

--------------------------------
INTERNAL COORDINATES (ANGSTROEM)
--------------------------------
 C      0   0   0     0.000000000000     0.00000000     0.00000000
 C      1   0   0     1.339477890283     0.00000000     0.00000000
 C      2   1   0     1.494742839607   113.33468635     0.00000000
 N      3   2   1     1.474083871015   100.10456952   359.94255070
 C      4   3   2     1.480237429585   114.95401815     0.11212701
 H      2   1   3     1.092449032969   122.95543600   180.07579065
 O      4   3   2     1.251455103094   122.75519911   180.03798672
 C      1   2   3     1.494677750153   119.94502843   179.87953913
 O      8   1   2     1.215533499765   121.46076703   359.61881363
 C      5   4   3     1.531697543962   108.03646058   119.67893209
 H     10   5   4     1.103057495949   112.42499917   173.74638439
 H     10   5   4     1.102615763070   110.65420173   294.96174794
 H     10   5   4     1.102739414686   108.41174907    53.98722869
 C      5   4   3     1.531424217375   108.06185874   240.13864559
 H     14   5   4     1.102818532659   108.49812864   305.41472841
 H     14   5   4     1.102562470999   110.59006740    64.43679493
 H     14   5   4     1.102932732345   112.39051935   185.53407177
 C      3   2   1     1.529921236643   112.95249271   243.41577972
 H     18   3   2     1.102986241745   110.75297250   289.44905619
 H     18   3   2     1.102751636917   110.75038797    50.07052377
 H     18   3   2     1.102959822274   109.11241365   169.50895839
 C      3   2   1     1.530015537783   113.02519522   116.44745839
 H     22   3   2     1.102752970973   110.71780397   309.84846109
 H     22   3   2     1.103019927856   110.77397212    70.48183348
 H     22   3   2     1.102803837910   109.03578470   190.43342047
 N      8   1   2     1.361332283745   116.58460596   179.68300369
 H     26   8   1     1.009726896142   123.18677011   359.08617495
 H     26   8   1     1.013458661989   117.51642500   180.35775649

---------------------------
INTERNAL COORDINATES (A.U.)
---------------------------
 C      0   0   0     0.000000000000     0.00000000     0.00000000
 C      1   0   0     2.531246375077     0.00000000     0.00000000
 C      2   1   0     2.824654607497   113.33468635     0.00000000
 N      3   2   1     2.785614814650   100.10456952   359.94255070
 C      4   3   2     2.797243355095   114.95401815     0.11212701
 H      2   1   3     2.064429487578   122.95543600   180.07579065
 O      4   3   2     2.364907413746   122.75519911   180.03798672
 C      1   2   3     2.824531606255   119.94502843   179.87953913
 O      8   1   2     2.297025421162   121.46076703   359.61881363
 C      5   4   3     2.894488878088   108.03646058   119.67893209
 H     10   5   4     2.084476577313   112.42499917   173.74638439
 H     10   5   4     2.083641823146   110.65420173   294.96174794
 H     10   5   4     2.083875490836   108.41174907    53.98722869
 C      5   4   3     2.893972365693   108.06185874   240.13864559
 H     14   5   4     2.084025002138   108.49812864   305.41472841
 H     14   5   4     2.083541115727   110.59006740    64.43679493
 H     14   5   4     2.084240808269   112.39051935   185.53407177
 C      3   2   1     2.891132143725   112.95249271   243.41577972
 H     18   3   2     2.084341926381   110.75297250   289.44905619
 H     18   3   2     2.083898587507   110.75038797    50.07052377
 H     18   3   2     2.084292000816   109.11241365   169.50895839
 C      3   2   1     2.891310347054   113.02519522   116.44745839
 H     22   3   2     2.083901108507   110.71780397   309.84846109
 H     22   3   2     2.084405583905   110.77397212    70.48183348
 H     22   3   2     2.083997233086   109.03578470   190.43342047
 N      8   1   2     2.572545193544   116.58460596   179.68300369
 H     26   8   1     1.908107303763   123.18677011   359.08617495
 H     26   8   1     1.915159319209   117.51642500   180.35775649

---------------------
BASIS SET INFORMATION
---------------------
There are 4 groups of distinct atoms

 Group   1 Type C   : 19s6p3d2f contracted to 5s4p3d2f pattern {88111/3111/111/11}
 Group   2 Type N   : 19s6p3d2f contracted to 5s4p3d2f pattern {88111/3111/111/11}
 Group   3 Type H   : 6s3p2d contracted to 4s3p2d pattern {3111/111/11}
 Group   4 Type O   : 19s6p3d2f contracted to 5s4p3d2f pattern {88111/3111/111/11}

Atom   0C    basis set group =>   1
Atom   1C    basis set group =>   1
Atom   2C    basis set group =>   1
Atom   3N    basis set group =>   2
Atom   4C    basis set group =>   1
Atom   5H    basis set group =>   3
Atom   6O    basis set group =>   4
Atom   7C    basis set group =>   1
Atom   8O    basis set group =>   4
Atom   9C    basis set group =>   1
Atom  10H    basis set group =>   3
Atom  11H    basis set group =>   3
Atom  12H    basis set group =>   3
Atom  13C    basis set group =>   1
Atom  14H    basis set group =>   3
Atom  15H    basis set group =>   3
Atom  16H    basis set group =>   3
Atom  17C    basis set group =>   1
Atom  18H    basis set group =>   3
Atom  19H    basis set group =>   3
Atom  20H    basis set group =>   3
Atom  21C    basis set group =>   1
Atom  22H    basis set group =>   3
Atom  23H    basis set group =>   3
Atom  24H    basis set group =>   3
Atom  25N    basis set group =>   2
Atom  26H    basis set group =>   3
Atom  27H    basis set group =>   3
---------------------------------
AUXILIARY/J BASIS SET INFORMATION
---------------------------------
There are 4 groups of distinct atoms

 Group   1 Type C   : 12s5p4d2f1g contracted to 6s4p3d1f1g pattern {711111/2111/211/2/1}
 Group   2 Type N   : 12s5p4d2f1g contracted to 6s4p3d1f1g pattern {711111/2111/211/2/1}
 Group   3 Type H   : 5s2p1d contracted to 3s1p1d pattern {311/2/1}
 Group   4 Type O   : 12s5p4d2f1g contracted to 6s4p3d1f1g pattern {711111/2111/211/2/1}

Atom   0C    basis set group =>   1
Atom   1C    basis set group =>   1
Atom   2C    basis set group =>   1
Atom   3N    basis set group =>   2
Atom   4C    basis set group =>   1
Atom   5H    basis set group =>   3
Atom   6O    basis set group =>   4
Atom   7C    basis set group =>   1
Atom   8O    basis set group =>   4
Atom   9C    basis set group =>   1
Atom  10H    basis set group =>   3
Atom  11H    basis set group =>   3
Atom  12H    basis set group =>   3
Atom  13C    basis set group =>   1
Atom  14H    basis set group =>   3
Atom  15H    basis set group =>   3
Atom  16H    basis set group =>   3
Atom  17C    basis set group =>   1
Atom  18H    basis set group =>   3
Atom  19H    basis set group =>   3
Atom  20H    basis set group =>   3
Atom  21C    basis set group =>   1
Atom  22H    basis set group =>   3
Atom  23H    basis set group =>   3
Atom  24H    basis set group =>   3
Atom  25N    basis set group =>   2
Atom  26H    basis set group =>   3
Atom  27H    basis set group =>   3


           ************************************************************
           *        Program running with 10 parallel MPI-processes    *
           *              working on a common directory               *
           ************************************************************
------------------------------------------------------------------------------
                             ORCA STARTUP CALCULATIONS
                           -- RI-GTO INTEGRALS CHOSEN --
------------------------------------------------------------------------------
------------------------------------------------------------------------------
                   ___                                                        
                  /   \      - P O W E R E D   B Y -                         
                 /     \                                                     
                 |  |  |   _    _      __       _____    __    __             
                 |  |  |  | |  | |    /  \     |  _  \  |  |  /  |          
                  \  \/   | |  | |   /    \    | | | |  |  | /  /          
                 / \  \   | |__| |  /  /\  \   | |_| |  |  |/  /          
                |  |  |   |  __  | /  /__\  \  |    /   |      \           
                |  |  |   | |  | | |   __   |  |    \   |  |\   \          
                \     /   | |  | | |  |  |  |  | |\  \  |  | \   \       
                 \___/    |_|  |_| |__|  |__|  |_| \__\ |__|  \__/        
                                                                              
                      - O R C A' S   B I G   F R I E N D -                    
                                      &                                       
                       - I N T E G R A L  F E E D E R -                       
                                                                              
 v1 FN, 2020, v2 2021, v3 2022-2024                                           
------------------------------------------------------------------------------


----------------------
SHARK INTEGRAL PACKAGE
----------------------

Number of atoms                             ...     28
Number of basis functions                   ...   1021
Number of shells                            ...    395
Maximum angular momentum                    ...      3
Integral batch strategy                     ... SHARK/LIBINT Hybrid
RI-J (if used) integral strategy            ... SPLIT-RIJ (Revised 2003 algorithm where possible)
Printlevel                                  ...      1
Contraction scheme used                     ... PARTIAL GENERAL contraction
Prescreening option                         ... SCHWARTZ
   Thresh                                   ... 2.500e-11
   Tcut                                     ... 2.500e-12
   Tpresel                                  ... 2.500e-12 
Coulomb Range Separation                    ... NOT USED
Exchange Range Separation                   ... NOT USED
Multipole approximations                    ... NOT USED
Finite Nucleus Model                        ... NOT USED
CABS basis                                  ... NOT available
Auxiliary Coulomb fitting basis             ... AVAILABLE
   # of basis functions in Aux-J            ...    802
   # of shells in Aux-J                     ...    270
   Maximum angular momentum in Aux-J        ...      4
Auxiliary J/K fitting basis                 ... NOT available
Auxiliary Correlation fitting basis         ... NOT available
Auxiliary 'external' fitting basis          ... NOT available

Checking pre-screening integrals            ... done (  0.0 sec) Dimension = 395
Save PGC pre-screening integrals            ... done (  0.1 sec) Dimension = 395
Calculate PGC overlap integrals             ... done (  0.2 sec) Dimension = 317
Calculating pre-screening integrals (ORCA)  ... done (  0.3 sec) Dimension = 317
Check shell pair data                       ... done (  0.0 sec)
Shell pair information
Shell pair cut-off parameter TPreSel        ...   2.5e-12
Total number of shell pairs                 ...     78210
Shell pairs after pre-screening             ...     64088
Total number of primitive shell pairs       ...    102010
Primitive shell pairs kept                  ...     76799
          la=0 lb=0:  14276 shell pairs
          la=1 lb=0:  16486 shell pairs
          la=1 lb=1:   4395 shell pairs
          la=2 lb=0:  11616 shell pairs
          la=2 lb=1:   6161 shell pairs
          la=2 lb=2:   2224 shell pairs
          la=3 lb=0:   4529 shell pairs
          la=3 lb=1:   2373 shell pairs
          la=3 lb=2:   1691 shell pairs
          la=3 lb=3:    337 shell pairs

Calculating one electron integrals          ... done (  0.2 sec)
Calculating RI/J V-Matrix + Cholesky decomp.... done (  0.1 sec)
Calculating Nuclear repulsion               ... done (  0.0 sec) ENN=    871.038928871489 Eh

Diagonalization of the overlap matrix:
Smallest eigenvalue                        ... 2.518e-07
Time for diagonalization                   ...    0.348 sec
Threshold for overlap eigenvalues          ... 1.000e-07
Number of eigenvalues below threshold      ... 0

IMPORTANT:
Smallest eigenvalue of S below the DiffSThresh (1.000e-06) while
Thresh>1e-12 and/or TCut>1e-13! In order to avoid SCF convergence issues,
Thresh will be set to at least 1e-12 and TCut to at least 1e-13.
This can be turned off by adding %SCF DiffSThresh -1 END to the input.

Time for construction of square roots      ...    0.219 sec
Total time needed                          ...    0.618 sec

-------------------
DFT GRID GENERATION
-------------------

General Integration Accuracy     IntAcc      ... 4.388
Radial Grid Type                 RadialGrid  ... OptM3 with GC (2021)
Angular Grid (max. ang.)         AngularGrid ... 4 (Lebedev-302)
Angular grid pruning method      GridPruning ... 4 (adaptive)
Weight generation scheme         WeightScheme... mBecke (2022)
Basis function cutoff            BFCut       ... 1.0000e-11
Integration weight cutoff        WCut        ... 1.0000e-14
Partially contracted basis set               ... off
Rotationally invariant grid construction     ... off
Angular grids for H and He will be reduced by one unit
Diffuse basis detected: some atoms will have their outermost
                        angular grid increased by 1.

Total number of grid points                  ...   131091
Total number of batches                      ...     2065
Average number of points per batch           ...       63
Average number of grid points per atom       ...     4682

---------------------
SHARK GRID GENERATION
---------------------

General Integration Accuracy     IntAcc      ... 4.388
Radial Grid Type                 RadialGrid  ... OptM3 with GC (2021)
Angular Grid (max. ang.)         AngularGrid ... 4 (Lebedev-302)
Angular grid pruning method      GridPruning ... 4 (adaptive)
Weight generation scheme         WeightScheme... mBecke (2022)
Basis function cutoff            BFCut       ... 1.0000e-11
Integration weight cutoff        WCut        ... 1.0000e-14
Partially contracted basis set               ... off
Rotationally invariant grid construction     ... off
Angular grids for H and He will be reduced by one unit
Diffuse basis detected: some atoms will have their outermost
                        angular grid increased by 1.
Steep s-basis detected: some atoms will have their radial
                        grid points doubled.

Total number of grid points                  ...   211993
Total number of batches                      ...     3326
Average number of points per batch           ...       63
Average number of grid points per atom       ...     7571

--------------------
COSX GRID GENERATION
--------------------

GRIDX 1
-------
General Integration Accuracy     IntAcc      ... 3.816
Radial Grid Type                 RadialGrid  ... OptM3 with GC (2021)
Angular Grid (max. ang.)         AngularGrid ... 1 (Lebedev-50)
Angular grid pruning method      GridPruning ... 4 (adaptive)
Weight generation scheme         WeightScheme... mBecke (2022)
Basis function cutoff            BFCut       ... 1.0000e-11
Integration weight cutoff        WCut        ... 1.0000e-14
Partially contracted basis set               ... on
Rotationally invariant grid construction     ... off
Angular grids for H and He will be reduced by one unit
Diffuse basis detected: some atoms will have their outermost
                        angular grid increased by 1.

Total number of grid points                  ...    16409
Total number of batches                      ...      142
Average number of points per batch           ...      115
Average number of grid points per atom       ...      586
UseSFitting                                  ... on

GRIDX 2
-------
General Integration Accuracy     IntAcc      ... 4.020
Radial Grid Type                 RadialGrid  ... OptM3 with GC (2021)
Angular Grid (max. ang.)         AngularGrid ... 2 (Lebedev-110)
Angular grid pruning method      GridPruning ... 4 (adaptive)
Weight generation scheme         WeightScheme... mBecke (2022)
Basis function cutoff            BFCut       ... 1.0000e-11
Integration weight cutoff        WCut        ... 1.0000e-14
Partially contracted basis set               ... on
Rotationally invariant grid construction     ... off
Angular grids for H and He will be reduced by one unit
Diffuse basis detected: some atoms will have their outermost
                        angular grid increased by 1.

Total number of grid points                  ...    38311
Total number of batches                      ...      316
Average number of points per batch           ...      121
Average number of grid points per atom       ...     1368
UseSFitting                                  ... on

GRIDX 3
-------
General Integration Accuracy     IntAcc      ... 4.338
Radial Grid Type                 RadialGrid  ... OptM3 with GC (2021)
Angular Grid (max. ang.)         AngularGrid ... 3 (Lebedev-194)
Angular grid pruning method      GridPruning ... 4 (adaptive)
Weight generation scheme         WeightScheme... mBecke (2022)
Basis function cutoff            BFCut       ... 1.0000e-11
Integration weight cutoff        WCut        ... 1.0000e-14
Partially contracted basis set               ... on
Rotationally invariant grid construction     ... off
Angular grids for H and He will be reduced by one unit
Diffuse basis detected: some atoms will have their outermost
                        angular grid increased by 1.

Total number of grid points                  ...    85099
Total number of batches                      ...      677
Average number of points per batch           ...      125
Average number of grid points per atom       ...     3039
UseSFitting                                  ... on
Initializing property integral containers    ... done (  0.1 sec)

SHARK setup successfully completed in  11.7 seconds

Maximum memory used throughout the entire STARTUP-calculation: 120.5 MB


           ************************************************************
           *        Program running with 10 parallel MPI-processes    *
           *              working on a common directory               *
           ************************************************************
-------------------------------------------------------------------------------
                                 ORCA GUESS
                   Start orbitals & Density for SCF / CASSCF
-------------------------------------------------------------------------------

------------
SCF SETTINGS
------------
Hamiltonian:
 Density Functional     Method          .... DFT(GTOs)
 Exchange Functional    Exchange        .... B88
   X-Alpha parameter    XAlpha          ....  0.666667
   Becke's b parameter  XBeta           ....  0.004200
 Correlation Functional Correlation     .... LYP
 LDA part of GGA corr.  LDAOpt          .... VWN-5
 Gradients option       PostSCFGGA      .... off
 Hybrid DFT is turned on
   Fraction HF Exchange ScalHFX         ....  0.200000
   Scaling of DF-GGA-X  ScalDFX         ....  0.720000
   Scaling of DF-GGA-C  ScalDFC         ....  0.810000
   Scaling of DF-LDA-C  ScalLDAC        ....  1.000000
   Perturbative correction              ....  0.000000
   NL short-range parameter             ....  4.800000
 RI-approximation to the Coulomb term is turned on
   Number of AuxJ basis functions       .... 802
   RIJ-COSX (HFX calculated with COS-X)).... on


General Settings:
 Integral files         IntName         .... cs_rporg_w06_red_solv_02
 Hartree-Fock type      HFTyp           .... UHF
 Total Charge           Charge          ....    0
 Multiplicity           Mult            ....    2
 Number of Electrons    NEL             ....   99
 Basis Dimension        Dim             ....  943
 Nuclear Repulsion      ENuc            ....    871.0389288715 Eh

Convergence Acceleration:
 AO-DIIS                CNVDIIS         .... on
   Start iteration      DIISMaxIt       ....     0
   Startup error        DIISStart       ....  0.200000
   # of expansion vecs  DIISMaxEq       ....     5
   Bias factor          DIISBfac        ....   1.050
   Max. coefficient     DIISMaxC        ....  10.000
 MO-DIIS                CNVKDIIS        .... off
 Trust-Rad. Augm. Hess. CNVTRAH         .... auto
   Auto Start mean grad. ratio tolernc. ....  1.125000
   Auto Start start iteration           ....    50
   Auto Start num. interpolation iter.  ....    10
   Max. Number of Micro iterations      ....    24
   Max. Number of Macro iterations      .... Maxiter - #DIIS iter
   Number of Davidson start vectors     ....     2
   Converg. threshold    (grad. norm)   ....   1.000e-05
   Grad. Scal. Fac. for Micro threshold ....   0.100
   Minimum threshold for Micro iter.    ....   1.000e-02
   NR start threshold (gradient norm)   ....   1.000e-04
   Initial trust radius                 ....   0.400
   Minimum AH scaling param. (alpha)    ....   1.000
   Maximum AH scaling param. (alpha)    .... 1000.000
   Quad. conv. algorithm                .... NR
   White noise on init. David. guess    .... on
   Maximum white noise                  ....   0.010
   Pseudo random numbers                .... off
   Inactive MOs                         .... canonical
   Orbital update algorithm             .... Taylor
   Preconditioner                       .... Diag
   Full preconditioner red. dimension   ....   250
 SOSCF                  CNVSOSCF        .... on
   Start iteration      SOSCFMaxIt      ....   150
   Startup grad/error   SOSCFStart      ....  0.001000
   Hessian update       SOSCFHessUp     .... L-BFGS
 Level Shifting         CNVShift        .... on
   Level shift para.    LevelShift      ....    0.2500
   Turn off err/grad.   ShiftErr        ....    0.0000
 Zerner damping         CNVZerner       .... off
 Static damping         CNVDamp         .... on
   Fraction old density DampFac         ....    0.8500
   Max. Damping (<1)    DampMax         ....    0.9800
   Min. Damping (>=0)   DampMin         ....    0.0000
   Turn off err/grad.   DampErr         ....    0.0300

SCF Procedure:
 Maximum # iterations   MaxIter         ....  1500
 SCF integral mode      SCFMode         .... Direct
   Integral package                     .... SHARK and LIBINT hybrid scheme
 Reset frequency        DirectResetFreq ....    20
 Integral Threshold     Thresh          ....  1.000e-12 Eh
 Primitive CutOff       TCut            ....  1.000e-13 Eh

Convergence Tolerance:
 Convergence Check Mode ConvCheckMode   .... Total+1el-Energy
 Convergence forced     ConvForced      .... 0
 Energy Change          TolE            ....  1.000e-08 Eh
 1-El. energy change                    ....  1.000e-05 Eh
 Orbital Gradient       TolG            ....  1.000e-05
 Orbital Rotation angle TolX            ....  1.000e-05
 DIIS Error             TolErr          ....  5.000e-07

------------------------------
INITIAL GUESS: MODEL POTENTIAL
------------------------------
Loading Hartree-Fock densities                     ... done
Calculating cut-offs                               ... done
Initializing the effective Hamiltonian             ... done
Setting up the integral package (SHARK)            ... done
Starting the Coulomb interaction                   ... done (   1.0 sec)
Making the grid                                    ... done (   0.5 sec)
Mapping shells                                     ... done
Starting the XC term evaluation                    ... done (   1.0 sec)
  promolecular density results
     # of electrons  =     98.991733423
     EX              =    -80.281750175
     EC              =     -3.345859413
     EX+EC           =    -83.627609588
Transforming the Hamiltonian                       ... done (   0.2 sec)
Diagonalizing the Hamiltonian                      ... done (   0.4 sec)
Back transforming the eigenvectors                 ... done (   0.2 sec)
Now organizing SCF variables                       ... done
                      ------------------
                      INITIAL GUESS DONE (   4.1 sec)
                      ------------------
             **** ENERGY FILE WAS UPDATED (cs_rporg_w06_red_solv_02.en.tmp) ****
Finished Guess after   6.4 sec
Maximum memory used throughout the entire GUESS-calculation: 97.6 MB


           ************************************************************
           *        Program running with 10 parallel MPI-processes    *
           *              working on a common directory               *
           ************************************************************

-------------------------------------------------------------------------------------------
                                      ORCA LEAN-SCF
                              memory conserving SCF solver
-------------------------------------------------------------------------------------------

--------------------
CPCM SOLVATION MODEL
--------------------
CPCM parameters:
  Epsilon                                         ...      78.3550
  Refrac                                          ...       1.3328
  Rsolv                                           ...       1.4000
  Surface type                                    ...    GEPOL SES
  Discretization scheme                           ... Constant num. charges
  Epsilon function type                           ...         CPCM
Solvent:                                          ... WATER
SMD-CDS solvent descriptors:
  Soln                                            ...       1.3328
  Soln25                                          ...       1.3323
  Sola                                            ...       0.0000
  Solb                                            ...       0.0000
  Solg                                            ...       0.0000
  Solc                                            ...       0.0000
  Solh                                            ...       0.0000
Radii:
  Scheme                                          ... Element-dependent radii
  Radius for C  used is    3.4960 Bohr (=   1.8500 Ang.)
  Radius for N  used is    3.5716 Bohr (=   1.8900 Ang.)
  Radius for H  used is    2.2677 Bohr (=   1.2000 Ang.)
  Radius for O  used is    2.8724 Bohr (=   1.5200 Ang.)
Calculating surface                               ...        done! (  0.1s)
Cavity surface points                             ...         1242
Cavity Volume                                     ...    1378.8719
Cavity Surface-area                               ...     733.4437
Calculating surface distance matrix               ...        done! (  0.0s)
Performing Cholesky decomposition & store         ...        done! (  0.1s)
Overall time for CPCM initialization              ...                 0.2s

----------------------------------------D-I-I-S--------------------------------------------
Iteration    Energy (Eh)           Delta-E    RMSDP     MaxDP     DIISErr   Damp  Time(sec)
-------------------------------------------------------------------------------------------
               ***  Starting incremental Fock matrix formation  ***
    1    -611.3414942427025380     0.00e+00  8.53e-04  1.31e-01  1.65e-01  0.850  40.4
    2    -611.4597233935849090    -1.18e-01  8.25e-04  1.16e-01  1.15e-01  0.850  28.6
                               ***Turning on AO-DIIS***
    3    -611.5352167200937856    -7.55e-02  6.15e-04  1.17e-01  7.27e-02  0.850  27.2
    4    -611.5827340361313418    -4.75e-02  4.89e-04  1.05e-01  5.98e-02  0.850  28.7
    5    -611.6171147735976774    -3.44e-02  4.04e-04  8.98e-02  5.18e-02  0.850  26.2
    6    -611.6443453455897270    -2.72e-02  3.41e-04  7.62e-02  4.44e-02  0.850  26.2
    7    -611.6667187346463379    -2.24e-02  2.89e-04  6.47e-02  3.68e-02  0.850  25.4
    8    -611.6851233443644560    -1.84e-02  2.45e-04  5.53e-02  2.99e-02  0.850  25.0
    9    -611.7001693673885256    -1.50e-02  1.38e-03  3.14e-01  2.51e-02  0.000  27.9
   10    -611.7773753810874950    -7.72e-02  3.89e-05  7.15e-03  2.06e-03  0.000  26.7
   11    -611.7774144543341208    -3.91e-05  2.43e-05  2.80e-03  3.05e-03  0.000  25.2
                              *** Initializing SOSCF ***
---------------------------------------S-O-S-C-F--------------------------------------
Iteration    Energy (Eh)           Delta-E    RMSDP     MaxDP     MaxGrad    Time(sec)
--------------------------------------------------------------------------------------
   12    -611.7774799329586131    -6.55e-05  9.05e-06  1.49e-03  3.70e-04    26.8
               *** Restarting incremental Fock matrix formation ***
   13    -611.7774745231256475     5.41e-06  1.67e-04  2.25e-02  1.18e-04    40.6
   14    -611.7774748740384894    -3.51e-07  6.80e-05  9.11e-03  1.88e-04    33.9
   15    -611.7774753119333582    -4.38e-07  6.77e-05  8.96e-03  4.30e-05    34.3
   16    -611.7774753516873716    -3.98e-08  1.46e-05  2.06e-03  1.92e-05    34.2
   17    -611.7774753673581927    -1.57e-08  2.04e-05  2.73e-03  1.35e-05    32.9
   18    -611.7774753698870427    -2.53e-09  2.99e-06  9.12e-04  4.99e-06    33.3
                 **** Energy Check signals convergence ****

               *****************************************************
               *                     SUCCESS                       *
               *           SCF CONVERGED AFTER  18 CYCLES          *
               *****************************************************

Recomputing exchange energy using gridx3       ... done (   51.499 sec)
Old exchange energy                            :    -16.330694411 Eh
New exchange energy                            :    -16.330696712 Eh
Exchange energy change after final integration :     -0.000002301 Eh
Total energy after final integration           :   -611.777477670 Eh

SMD CDS free energy correction energy :                 6.97807     Kcal/mol
Total Energy after SMD CDS correction =              -611.766357415 Eh
             **** ENERGY FILE WAS UPDATED (cs_rporg_w06_red_solv_02.en.tmp) ****

----------------
TOTAL SCF ENERGY
----------------

Total Energy       :       -611.76635741486098 Eh          -16647.00890 eV

Components:
Nuclear Repulsion  :        871.03892887148936 Eh           23702.17425 eV
Electronic Energy  :      -1482.78101248119560 Eh          -40348.52263 eV
One Electron Energy:      -2560.00647402059531 Eh          -69661.31767 eV
Two Electron Energy:       1077.22546153939970 Eh           29312.79504 eV
CPCM Dielectric    :         -0.03539176018079 Eh              -0.96306 eV
SMD CDS (Gcds)     :          0.01112025562954 Eh               0.30260 eV

Virial components:
Potential Energy   :      -1220.00915431378621 Eh          -33198.13685 eV
Kinetic Energy     :        608.24279689892523 Eh           16551.12795 eV
Virial Ratio       :          2.00579301643012

DFT components:
N(Alpha)           :       50.000069512183 electrons
N(Beta)            :       49.000062780515 electrons
N(Total)           :       99.000132292698 electrons
E(X)               :      -64.902207162110 Eh       
E(C)               :       -3.942604644798 Eh       
E(XC)              :      -68.844811806907 Eh       

CPCM Solvation Model Properties:
Surface-charge          :         -0.05818804289392
Corrected charge        :         -0.00000000000000
Outlying charge corr.   :          0.00022839330326 Eh               0.00621 eV
Free-energy (cav+disp)  :          0.01112025562954 Eh               0.30260 eV

---------------
SCF CONVERGENCE
---------------

  Last Energy change         ...    2.5289e-09  Tolerance :   1.0000e-08
  Last MAX-Density change    ...    9.1226e-04  Tolerance :   1.0000e-07
  Last RMS-Density change    ...    2.9939e-06  Tolerance :   5.0000e-09
  Last DIIS Error            ...    3.6992e-04  Tolerance :   5.0000e-07
  Last Orbital Gradient      ...    4.9878e-06  Tolerance :   1.0000e-05
  Last Orbital Rotation      ...    1.9984e-05  Tolerance :   1.0000e-05


----------------------
UHF SPIN CONTAMINATION
----------------------

Warning: in a DFT calculation there is little theoretical justification to 
         calculate <S**2> as in Hartree-Fock theory. We will do it anyways
         but you should keep in mind that the values have only limited relevance

Expectation value of <S**2>     :     0.754681
Ideal value S*(S+1) for S=0.5   :     0.750000
Deviation                       :     0.004681

----------------
ORBITAL ENERGIES
----------------
                 SPIN UP ORBITALS
  NO   OCC          E(Eh)            E(eV) 
   0   1.0000     -19.143755      -520.9281 
   1   1.0000     -19.107885      -519.9520 
   2   1.0000     -14.416634      -392.2965 
   3   1.0000     -14.341370      -390.2485 
   4   1.0000     -10.292125      -280.0630 
   5   1.0000     -10.234415      -278.4926 
   6   1.0000     -10.229262      -278.3524 
   7   1.0000     -10.193896      -277.3900 
   8   1.0000     -10.191948      -277.3370 
   9   1.0000     -10.167892      -276.6824 
  10   1.0000     -10.167696      -276.6771 
  11   1.0000     -10.165989      -276.6306 
  12   1.0000     -10.165972      -276.6302 
  13   1.0000      -1.126409       -30.6511 
  14   1.0000      -1.057786       -28.7838 
  15   1.0000      -0.915163       -24.9028 
  16   1.0000      -0.904804       -24.6210 
  17   1.0000      -0.819592       -22.3022 
  18   1.0000      -0.763418       -20.7736 
  19   1.0000      -0.726088       -19.7579 
  20   1.0000      -0.697102       -18.9691 
  21   1.0000      -0.688009       -18.7217 
  22   1.0000      -0.651938       -17.7401 
  23   1.0000      -0.609398       -16.5826 
  24   1.0000      -0.576091       -15.6762 
  25   1.0000      -0.561822       -15.2880 
  26   1.0000      -0.534395       -14.5416 
  27   1.0000      -0.496474       -13.5097 
  28   1.0000      -0.493487       -13.4285 
  29   1.0000      -0.484213       -13.1761 
  30   1.0000      -0.456609       -12.4250 
  31   1.0000      -0.448356       -12.2004 
  32   1.0000      -0.438517       -11.9326 
  33   1.0000      -0.435989       -11.8639 
  34   1.0000      -0.429428       -11.6853 
  35   1.0000      -0.412717       -11.2306 
  36   1.0000      -0.408565       -11.1176 
  37   1.0000      -0.401715       -10.9312 
  38   1.0000      -0.387091       -10.5333 
  39   1.0000      -0.379120       -10.3164 
  40   1.0000      -0.376610       -10.2481 
  41   1.0000      -0.354424        -9.6444 
  42   1.0000      -0.354048        -9.6341 
  43   1.0000      -0.349391        -9.5074 
  44   1.0000      -0.344241        -9.3673 
  45   1.0000      -0.287036        -7.8106 
  46   1.0000      -0.285877        -7.7791 
  47   1.0000      -0.276359        -7.5201 
  48   1.0000      -0.270311        -7.3555 
  49   1.0000      -0.202523        -5.5109 
  50   0.0000      -0.048604        -1.3226 
  51   0.0000      -0.004781        -0.1301 
  52   0.0000       0.006947         0.1890 
  53   0.0000       0.012039         0.3276 
  54   0.0000       0.014846         0.4040 
  55   0.0000       0.026865         0.7310 
  56   0.0000       0.027573         0.7503 
  57   0.0000       0.029616         0.8059 
  58   0.0000       0.033534         0.9125 
  59   0.0000       0.041160         1.1200 
  60   0.0000       0.047364         1.2888 

                 SPIN DOWN ORBITALS
  NO   OCC          E(Eh)            E(eV) 
   0   1.0000     -19.131257      -520.5880 
   1   1.0000     -19.107891      -519.9521 
   2   1.0000     -14.403680      -391.9441 
   3   1.0000     -14.341368      -390.2485 
   4   1.0000     -10.292145      -280.0635 
   5   1.0000     -10.235008      -278.5087 
   6   1.0000     -10.229852      -278.3684 
   7   1.0000     -10.193894      -277.3900 
   8   1.0000     -10.191937      -277.3367 
   9   1.0000     -10.167379      -276.6684 
  10   1.0000     -10.167183      -276.6631 
  11   1.0000     -10.165446      -276.6158 
  12   1.0000     -10.165429      -276.6154 
  13   1.0000      -1.102753       -30.0074 
  14   1.0000      -1.057789       -28.7839 
  15   1.0000      -0.912834       -24.8395 
  16   1.0000      -0.897380       -24.4189 
  17   1.0000      -0.818140       -22.2627 
  18   1.0000      -0.758312       -20.6347 
  19   1.0000      -0.714919       -19.4539 
  20   1.0000      -0.694464       -18.8973 
  21   1.0000      -0.686681       -18.6855 
  22   1.0000      -0.650554       -17.7025 
  23   1.0000      -0.606768       -16.5110 
  24   1.0000      -0.574994       -15.6464 
  25   1.0000      -0.553112       -15.0509 
  26   1.0000      -0.533673       -14.5220 
  27   1.0000      -0.491373       -13.3709 
  28   1.0000      -0.478617       -13.0238 
  29   1.0000      -0.465201       -12.6588 
  30   1.0000      -0.453609       -12.3433 
  31   1.0000      -0.447743       -12.1837 
  32   1.0000      -0.434718       -11.8293 
  33   1.0000      -0.433901       -11.8071 
  34   1.0000      -0.428956       -11.6725 
  35   1.0000      -0.410846       -11.1797 
  36   1.0000      -0.398627       -10.8472 
  37   1.0000      -0.396875       -10.7995 
  38   1.0000      -0.386623       -10.5205 
  39   1.0000      -0.375896       -10.2286 
  40   1.0000      -0.364733        -9.9249 
  41   1.0000      -0.353332        -9.6147 
  42   1.0000      -0.348452        -9.4819 
  43   1.0000      -0.343580        -9.3493 
  44   1.0000      -0.333603        -9.0778 
  45   1.0000      -0.285920        -7.7803 
  46   1.0000      -0.285214        -7.7611 
  47   1.0000      -0.268129        -7.2962 
  48   1.0000      -0.267780        -7.2867 
  49   0.0000      -0.064107        -1.7444 
  50   0.0000      -0.047619        -1.2958 
  51   0.0000      -0.004680        -0.1274 
  52   0.0000       0.007026         0.1912 
  53   0.0000       0.012351         0.3361 
  54   0.0000       0.015030         0.4090 
  55   0.0000       0.026852         0.7307 
  56   0.0000       0.027594         0.7509 
  57   0.0000       0.029900         0.8136 
  58   0.0000       0.033623         0.9149 
  59   0.0000       0.041360         1.1255 
*Only the first 10 virtual orbitals were printed.

                    ********************************
                    * MULLIKEN POPULATION ANALYSIS *
                    ********************************

--------------------------------------------
MULLIKEN ATOMIC CHARGES AND SPIN POPULATIONS
--------------------------------------------
   0 C :    1.437282    0.005928
   1 C :   -1.075741    0.010362
   2 C :    1.324883   -0.086781
   3 N :    0.872998    0.557909
   4 C :    1.613848   -0.067639
   5 H :    0.408640   -0.002042
   6 O :   -1.166895    0.458773
   7 C :    0.240156    0.000837
   8 O :   -1.038818   -0.000191
   9 C :   -1.179934    0.020631
  10 H :    0.187126    0.004469
  11 H :    0.226786    0.000370
  12 H :    0.140169    0.003132
  13 C :   -1.182347    0.020850
  14 H :    0.131582    0.003009
  15 H :    0.217292    0.000283
  16 H :    0.197619    0.004263
  17 C :   -1.259256    0.027813
  18 H :    0.171499    0.003439
  19 H :    0.243550    0.000136
  20 H :    0.155466    0.001613
  21 C :   -1.253653    0.028288
  22 H :    0.239462   -0.000181
  23 H :    0.170239    0.003453
  24 H :    0.163151    0.001732
  25 N :   -0.229286   -0.000407
  26 H :    0.137224   -0.000121
  27 H :    0.106959    0.000073
Sum of atomic charges         :    0.0000000
Sum of atomic spin populations:    1.0000000

-----------------------------------------------------
MULLIKEN REDUCED ORBITAL CHARGES AND SPIN POPULATIONS
-----------------------------------------------------
CHARGE
  0 C s       :     2.983638  s :     2.983638
      pz      :    -0.216508  p :     1.552811
      px      :     1.085891
      py      :     0.683427
      dz2     :    -0.061174  d :     0.132466
      dxz     :     0.054846
      dyz     :     0.098874
      dx2y2   :     0.035188
      dxy     :     0.004731
      f0      :    -0.020523  f :    -0.106198
      f+1     :    -0.002642
      f-1     :    -0.065021
      f+2     :    -0.014505
      f-2     :    -0.004557
      f+3     :    -0.000819
      f-3     :     0.001870

  1 C s       :     4.319656  s :     4.319656
      pz      :     1.091715  p :     2.831750
      px      :     0.967295
      py      :     0.772740
      dz2     :    -0.028456  d :    -0.072097
      dxz     :     0.004470
      dyz     :    -0.052112
      dx2y2   :    -0.008095
      dxy     :     0.012096
      f0      :     0.001533  f :    -0.003568
      f+1     :     0.000297
      f-1     :    -0.006418
      f+2     :    -0.002377
      f-2     :     0.000436
      f+3     :     0.001163
      f-3     :     0.001798

  2 C s       :     2.801214  s :     2.801214
      pz      :     0.481000  p :     1.764777
      px      :     0.473619
      py      :     0.810158
      dz2     :     0.099647  d :     0.146384
      dxz     :    -0.126304
      dyz     :     0.111349
      dx2y2   :     0.050368
      dxy     :     0.011325
      f0      :    -0.012717  f :    -0.037258
      f+1     :    -0.009802
      f-1     :     0.005709
      f+2     :    -0.010723
      f-2     :    -0.005707
      f+3     :    -0.000501
      f-3     :    -0.003516

  3 N s       :     3.443584  s :     3.443584
      pz      :     0.787131  p :     2.819179
      px      :     1.408515
      py      :     0.623533
      dz2     :    -0.140378  d :    -0.143690
      dxz     :     0.039766
      dyz     :    -0.065617
      dx2y2   :    -0.027980
      dxy     :     0.050519
      f0      :    -0.000390  f :     0.007929
      f+1     :     0.002952
      f-1     :    -0.002550
      f+2     :    -0.000627
      f-2     :     0.004701
      f+3     :     0.002976
      f-3     :     0.000867

  4 C s       :     2.840413  s :     2.840413
      pz      :     0.668911  p :     1.388883
      px      :     0.412872
      py      :     0.307100
      dz2     :    -0.024574  d :     0.197629
      dxz     :     0.008617
      dyz     :     0.164104
      dx2y2   :     0.063621
      dxy     :    -0.014139
      f0      :    -0.001736  f :    -0.040772
      f+1     :     0.001447
      f-1     :    -0.011285
      f+2     :     0.003322
      f-2     :    -0.006361
      f+3     :    -0.012872
      f-3     :    -0.013288

  5 H s       :     0.533417  s :     0.533417
      pz      :     0.007293  p :     0.056749
      px      :     0.030231
      py      :     0.019225
      dz2     :    -0.000833  d :     0.001194
      dxz     :    -0.000422
      dyz     :    -0.000362
      dx2y2   :    -0.000432
      dxy     :     0.003243

  6 O s       :     4.190394  s :     4.190394
      pz      :     1.640605  p :     4.912031
      px      :     1.592821
      py      :     1.678605
      dz2     :     0.010852  d :     0.055041
      dxz     :     0.018972
      dyz     :     0.001838
      dx2y2   :     0.005531
      dxy     :     0.017848
      f0      :     0.001803  f :     0.009429
      f+1     :     0.000799
      f-1     :     0.002041
      f+2     :     0.000994
      f-2     :     0.002205
      f+3     :     0.000969
      f-3     :     0.000619

  7 C s       :     3.990656  s :     3.990656
      pz      :     0.569621  p :     1.648337
      px      :     0.643238
      py      :     0.435477
      dz2     :     0.041867  d :     0.141789
      dxz     :     0.052581
      dyz     :    -0.018056
      dx2y2   :    -0.014159
      dxy     :     0.079555
      f0      :    -0.012970  f :    -0.020938
      f+1     :     0.003699
      f-1     :    -0.011262
      f+2     :    -0.006467
      f-2     :     0.005171
      f+3     :     0.001821
      f-3     :    -0.000931

  8 O s       :     4.135054  s :     4.135054
      pz      :     1.890917  p :     4.853780
      px      :     1.562036
      py      :     1.400828
      dz2     :     0.006569  d :     0.045045
      dxz     :     0.003038
      dyz     :     0.016018
      dx2y2   :     0.000473
      dxy     :     0.018948
      f0      :     0.000552  f :     0.004938
      f+1     :     0.000158
      f-1     :     0.001371
      f+2     :     0.000763
      f-2     :     0.000474
      f+3     :     0.001448
      f-3     :     0.000173

  9 C s       :     3.713826  s :     3.713826
      pz      :     1.119332  p :     3.335084
      px      :     1.085254
      py      :     1.130497
      dz2     :     0.036730  d :     0.112417
      dxz     :     0.032246
      dyz     :     0.016303
      dx2y2   :     0.006382
      dxy     :     0.020757
      f0      :     0.003236  f :     0.018607
      f+1     :     0.001143
      f-1     :     0.003109
      f+2     :     0.001457
      f-2     :    -0.000562
      f+3     :     0.008207
      f-3     :     0.002016

 10 H s       :     0.776735  s :     0.776735
      pz      :    -0.005698  p :     0.030738
      px      :     0.011571
      py      :     0.024865
      dz2     :    -0.001438  d :     0.005401
      dxz     :     0.004923
      dyz     :     0.001360
      dx2y2   :    -0.000233
      dxy     :     0.000789

 11 H s       :     0.718581  s :     0.718581
      pz      :     0.006797  p :     0.051677
      px      :     0.040741
      py      :     0.004139
      dz2     :     0.000262  d :     0.002956
      dxz     :     0.000771
      dyz     :     0.000484
      dx2y2   :     0.003578
      dxy     :    -0.002138

 12 H s       :     0.810336  s :     0.810336
      pz      :     0.003330  p :     0.045889
      px      :     0.016718
      py      :     0.025841
      dz2     :     0.001891  d :     0.003606
      dxz     :     0.000931
      dyz     :    -0.002523
      dx2y2   :     0.000064
      dxy     :     0.003243

 13 C s       :     3.713812  s :     3.713812
      pz      :     1.125694  p :     3.338976
      px      :     1.115545
      py      :     1.097737
      dz2     :     0.034393  d :     0.110932
      dxz     :     0.030526
      dyz     :     0.019383
      dx2y2   :     0.010068
      dxy     :     0.016562
      f0      :     0.003252  f :     0.018627
      f+1     :     0.000975
      f-1     :     0.002958
      f+2     :     0.000780
      f-2     :     0.000532
      f+3     :     0.007119
      f-3     :     0.003011

 14 H s       :     0.819062  s :     0.819062
      pz      :     0.003437  p :     0.045689
      px      :     0.013171
      py      :     0.029080
      dz2     :     0.001851  d :     0.003667
      dxz     :     0.000909
      dyz     :    -0.002317
      dx2y2   :     0.000258
      dxy     :     0.002965

 15 H s       :     0.727495  s :     0.727495
      pz      :     0.006481  p :     0.052278
      px      :     0.041467
      py      :     0.004330
      dz2     :     0.000324  d :     0.002935
      dxz     :     0.000845
      dyz     :     0.000287
      dx2y2   :     0.002437
      dxy     :    -0.000959

 16 H s       :     0.769286  s :     0.769286
      pz      :    -0.007128  p :     0.027716
      px      :     0.010204
      py      :     0.024640
      dz2     :    -0.001460  d :     0.005379
      dxz     :     0.004278
      dyz     :     0.002011
      dx2y2   :    -0.000361
      dxy     :     0.000911

 17 C s       :     3.745422  s :     3.745422
      pz      :     1.113768  p :     3.371058
      px      :     1.119153
      py      :     1.138137
      dz2     :     0.016333  d :     0.124830
      dxz     :     0.020652
      dyz     :     0.023309
      dx2y2   :     0.037264
      dxy     :     0.027273
      f0      :     0.000884  f :     0.017944
      f+1     :     0.007215
      f-1     :     0.001362
      f+2     :     0.003519
      f-2     :     0.001030
      f+3     :     0.001058
      f-3     :     0.002876

 18 H s       :     0.787106  s :     0.787106
      pz      :     0.012421  p :     0.036699
      px      :     0.010910
      py      :     0.013367
      dz2     :     0.000131  d :     0.004696
      dxz     :     0.000992
      dyz     :     0.002398
      dx2y2   :    -0.001821
      dxy     :     0.002996

 19 H s       :     0.715065  s :     0.715065
      pz      :     0.001717  p :     0.038415
      px      :     0.036051
      py      :     0.000646
      dz2     :     0.001069  d :     0.002971
      dxz     :    -0.001308
      dyz     :     0.000228
      dx2y2   :     0.002724
      dxy     :     0.000259

 20 H s       :     0.796121  s :     0.796121
      pz      :     0.027820  p :     0.044004
      px      :     0.015341
      py      :     0.000844
      dz2     :     0.000908  d :     0.004408
      dxz     :     0.003602
      dyz     :    -0.001717
      dx2y2   :     0.000967
      dxy     :     0.000648

 21 C s       :     3.739236  s :     3.739236
      pz      :     1.121435  p :     3.371128
      px      :     1.123529
      py      :     1.126164
      dz2     :     0.015570  d :     0.125345
      dxz     :     0.021615
      dyz     :     0.023539
      dx2y2   :     0.049534
      dxy     :     0.015087
      f0      :     0.000690  f :     0.017944
      f+1     :     0.006840
      f-1     :     0.001950
      f+2     :     0.004343
      f-2     :     0.000060
      f+3     :     0.001061
      f-3     :     0.003001

 22 H s       :     0.718369  s :     0.718369
      pz      :     0.002047  p :     0.039144
      px      :     0.036423
      py      :     0.000674
      dz2     :     0.001216  d :     0.003024
      dxz     :    -0.001765
      dyz     :     0.000494
      dx2y2   :     0.002250
      dxy     :     0.000830

 23 H s       :     0.788014  s :     0.788014
      pz      :     0.012283  p :     0.037062
      px      :     0.007949
      py      :     0.016829
      dz2     :     0.000131  d :     0.004686
      dxz     :     0.000578
      dyz     :     0.002701
      dx2y2   :    -0.001710
      dxy     :     0.002986

 24 H s       :     0.789720  s :     0.789720
      pz      :     0.026378  p :     0.042726
      px      :     0.017208
      py      :    -0.000861
      dz2     :     0.000790  d :     0.004403
      dxz     :     0.003867
      dyz     :    -0.001958
      dx2y2   :     0.001165
      dxy     :     0.000539

 25 N s       :     3.695183  s :     3.695183
      pz      :     0.999244  p :     3.527793
      px      :     1.538251
      py      :     0.990298
      dz2     :    -0.011183  d :    -0.001082
      dxz     :     0.007285
      dyz     :    -0.007013
      dx2y2   :    -0.006738
      dxy     :     0.016567
      f0      :     0.002774  f :     0.007392
      f+1     :     0.000709
      f-1     :     0.004066
      f+2     :    -0.000699
      f-2     :     0.000088
      f+3     :     0.000277
      f-3     :     0.000177

 26 H s       :     0.774434  s :     0.774434
      pz      :     0.000129  p :     0.047270
      px      :     0.032244
      py      :     0.014897
      dz2     :     0.004593  d :     0.041073
      dxz     :     0.002401
      dyz     :     0.007790
      dx2y2   :     0.008777
      dxy     :     0.017513

 27 H s       :     0.802858  s :     0.802858
      pz      :    -0.000850  p :     0.061510
      px      :     0.042701
      py      :     0.019659
      dz2     :     0.007439  d :     0.028673
      dxz     :     0.009739
      dyz     :     0.010175
      dx2y2   :     0.001192
      dxy     :     0.000128


SPIN
  0 C s       :     0.000040  s :     0.000040
      pz      :     0.001909  p :    -0.000790
      px      :    -0.003054
      py      :     0.000355
      dz2     :    -0.003199  d :     0.006937
      dxz     :     0.001268
      dyz     :     0.010797
      dx2y2   :    -0.000240
      dxy     :    -0.001688
      f0      :    -0.000252  f :    -0.000260
      f+1     :     0.000455
      f-1     :    -0.000086
      f+2     :    -0.000140
      f-2     :    -0.000124
      f+3     :    -0.000039
      f-3     :    -0.000074

  1 C s       :     0.006136  s :     0.006136
      pz      :    -0.000981  p :     0.002396
      px      :     0.001500
      py      :     0.001877
      dz2     :    -0.002584  d :     0.001959
      dxz     :    -0.001788
      dyz     :     0.005419
      dx2y2   :    -0.000395
      dxy     :     0.001307
      f0      :    -0.000136  f :    -0.000129
      f+1     :     0.000047
      f-1     :    -0.000319
      f+2     :    -0.000062
      f-2     :     0.000083
      f+3     :     0.000327
      f-3     :    -0.000069

  2 C s       :    -0.032426  s :    -0.032426
      pz      :    -0.005329  p :    -0.051799
      px      :    -0.018827
      py      :    -0.027644
      dz2     :    -0.004248  d :     0.000098
      dxz     :    -0.000235
      dyz     :    -0.002841
      dx2y2   :     0.000466
      dxy     :     0.006956
      f0      :    -0.000286  f :    -0.002654
      f+1     :    -0.000328
      f-1     :    -0.000259
      f+2     :    -0.000847
      f-2     :    -0.001422
      f+3     :     0.000055
      f-3     :     0.000434

  3 N s       :     0.023364  s :     0.023364
      pz      :     0.016288  p :     0.517946
      px      :     0.469408
      py      :     0.032249
      dz2     :     0.007565  d :     0.019660
      dxz     :     0.006724
      dyz     :    -0.002806
      dx2y2   :     0.002850
      dxy     :     0.005328
      f0      :    -0.000978  f :    -0.003060
      f+1     :     0.000888
      f-1     :    -0.000949
      f+2     :    -0.000520
      f-2     :    -0.002449
      f+3     :     0.001138
      f-3     :    -0.000190

  4 C s       :    -0.031777  s :    -0.031777
      pz      :    -0.030428  p :    -0.043332
      px      :    -0.009163
      py      :    -0.003741
      dz2     :    -0.000450  d :     0.010337
      dxz     :     0.012688
      dyz     :    -0.000779
      dx2y2   :    -0.002783
      dxy     :     0.001661
      f0      :    -0.000118  f :    -0.002867
      f+1     :    -0.000281
      f-1     :    -0.000963
      f+2     :     0.000158
      f-2     :    -0.001304
      f+3     :    -0.000314
      f-3     :    -0.000044

  5 H s       :    -0.001603  s :    -0.001603
      pz      :    -0.000307  p :    -0.000519
      px      :     0.000019
      py      :    -0.000231
      dz2     :     0.000004  d :     0.000081
      dxz     :     0.000006
      dyz     :    -0.000009
      dx2y2   :     0.000027
      dxy     :     0.000052

  6 O s       :     0.009376  s :     0.009376
      pz      :     0.005783  p :     0.444762
      px      :     0.431015
      py      :     0.007964
      dz2     :     0.000861  d :     0.004338
      dxz     :     0.001212
      dyz     :     0.000441
      dx2y2   :     0.000685
      dxy     :     0.001139
      f0      :     0.000046  f :     0.000297
      f+1     :     0.000035
      f-1     :     0.000022
      f+2     :    -0.000050
      f-2     :     0.000218
      f+3     :     0.000049
      f-3     :    -0.000022

  7 C s       :     0.000375  s :     0.000375
      pz      :    -0.000076  p :    -0.000020
      px      :     0.000040
      py      :     0.000016
      dz2     :     0.000096  d :     0.000609
      dxz     :     0.000394
      dyz     :     0.000031
      dx2y2   :     0.000061
      dxy     :     0.000027
      f0      :    -0.000010  f :    -0.000127
      f+1     :    -0.000003
      f-1     :    -0.000090
      f+2     :    -0.000033
      f-2     :     0.000013
      f+3     :    -0.000002
      f-3     :    -0.000001

  8 O s       :    -0.000097  s :    -0.000097
      pz      :    -0.000164  p :    -0.000069
      px      :     0.000066
      py      :     0.000028
      dz2     :    -0.000013  d :    -0.000024
      dxz     :    -0.000002
      dyz     :    -0.000018
      dx2y2   :     0.000001
      dxy     :     0.000008
      f0      :     0.000000  f :     0.000000
      f+1     :     0.000000
      f-1     :    -0.000001
      f+2     :     0.000000
      f-2     :     0.000000
      f+3     :     0.000000
      f-3     :    -0.000000

  9 C s       :    -0.000017  s :    -0.000017
      pz      :     0.000726  p :     0.022119
      px      :     0.012128
      py      :     0.009265
      dz2     :    -0.001195  d :    -0.001531
      dxz     :     0.000240
      dyz     :    -0.000403
      dx2y2   :     0.000164
      dxy     :    -0.000336
      f0      :    -0.000091  f :     0.000060
      f+1     :     0.000084
      f-1     :     0.000024
      f+2     :    -0.000028
      f-2     :    -0.000046
      f+3     :     0.000050
      f-3     :     0.000067

 10 H s       :     0.003848  s :     0.003848
      pz      :    -0.000592  p :     0.000353
      px      :     0.000667
      py      :     0.000279
      dz2     :     0.000021  d :     0.000268
      dxz     :     0.000068
      dyz     :     0.000155
      dx2y2   :     0.000017
      dxy     :     0.000007

 11 H s       :    -0.000176  s :    -0.000176
      pz      :     0.000216  p :     0.000347
      px      :     0.000267
      py      :    -0.000137
      dz2     :     0.000029  d :     0.000199
      dxz     :    -0.000094
      dyz     :     0.000129
      dx2y2   :     0.000144
      dxy     :    -0.000009

 12 H s       :     0.002679  s :     0.002679
      pz      :    -0.000381  p :     0.000365
      px      :     0.000263
      py      :     0.000483
      dz2     :    -0.000078  d :     0.000089
      dxz     :     0.000086
      dyz     :     0.000074
      dx2y2   :    -0.000002
      dxy     :     0.000008

 13 C s       :    -0.000068  s :    -0.000068
      pz      :     0.000631  p :     0.022235
      px      :     0.009811
      py      :     0.011793
      dz2     :    -0.001167  d :    -0.001403
      dxz     :     0.000494
      dyz     :    -0.000528
      dx2y2   :     0.000186
      dxy     :    -0.000387
      f0      :    -0.000088  f :     0.000085
      f+1     :     0.000069
      f-1     :     0.000060
      f+2     :     0.000040
      f-2     :    -0.000111
      f+3     :     0.000074
      f-3     :     0.000041

 14 H s       :     0.002521  s :     0.002521
      pz      :    -0.000366  p :     0.000405
      px      :     0.000201
      py      :     0.000570
      dz2     :    -0.000077  d :     0.000083
      dxz     :     0.000063
      dyz     :     0.000090
      dx2y2   :     0.000012
      dxy     :    -0.000006

 15 H s       :    -0.000247  s :    -0.000247
      pz      :     0.000222  p :     0.000330
      px      :     0.000213
      py      :    -0.000105
      dz2     :     0.000029  d :     0.000199
      dxz     :    -0.000094
      dyz     :     0.000129
      dx2y2   :     0.000165
      dxy     :    -0.000029

 16 H s       :     0.003637  s :     0.003637
      pz      :    -0.000565  p :     0.000352
      px      :     0.000495
      py      :     0.000422
      dz2     :     0.000022  d :     0.000274
      dxz     :     0.000047
      dyz     :     0.000183
      dx2y2   :     0.000009
      dxy     :     0.000013

 17 C s       :     0.002337  s :     0.002337
      pz      :     0.010903  p :     0.025928
      px      :     0.012405
      py      :     0.002619
      dz2     :    -0.000648  d :    -0.000545
      dxz     :    -0.000641
      dyz     :     0.001291
      dx2y2   :    -0.000368
      dxy     :    -0.000180
      f0      :     0.000126  f :     0.000094
      f+1     :     0.000022
      f-1     :     0.000130
      f+2     :     0.000062
      f-2     :    -0.000157
      f+3     :     0.000125
      f-3     :    -0.000214

 18 H s       :     0.002535  s :     0.002535
      pz      :     0.000331  p :     0.000730
      px      :     0.000403
      py      :    -0.000004
      dz2     :     0.000004  d :     0.000174
      dxz     :     0.000011
      dyz     :     0.000118
      dx2y2   :     0.000008
      dxy     :     0.000034

 19 H s       :    -0.000423  s :    -0.000423
      pz      :    -0.000095  p :     0.000341
      px      :     0.000290
      py      :     0.000146
      dz2     :     0.000045  d :     0.000218
      dxz     :    -0.000021
      dyz     :     0.000136
      dx2y2   :     0.000137
      dxy     :    -0.000080

 20 H s       :     0.000530  s :     0.000530
      pz      :     0.000486  p :     0.001018
      px      :     0.000394
      py      :     0.000138
      dz2     :    -0.000000  d :     0.000064
      dxz     :     0.000004
      dyz     :     0.000061
      dx2y2   :    -0.000039
      dxy     :     0.000039

 21 C s       :     0.002545  s :     0.002545
      pz      :     0.010574  p :     0.026177
      px      :     0.011522
      py      :     0.004081
      dz2     :    -0.000647  d :    -0.000531
      dxz     :    -0.000481
      dyz     :     0.001114
      dx2y2   :    -0.000634
      dxy     :     0.000116
      f0      :     0.000113  f :     0.000097
      f+1     :     0.000071
      f-1     :     0.000082
      f+2     :     0.000007
      f-2     :    -0.000088
      f+3     :     0.000069
      f-3     :    -0.000158

 22 H s       :    -0.000734  s :    -0.000734
      pz      :    -0.000105  p :     0.000339
      px      :     0.000264
      py      :     0.000180
      dz2     :     0.000042  d :     0.000214
      dxz     :    -0.000016
      dyz     :     0.000133
      dx2y2   :     0.000141
      dxy     :    -0.000085

[...]
      dx2y2   :     0.000106
      dxy     :     0.000005

 17 C s       :     0.001314  s :     0.001314
      pz      :     0.005456  p :     0.011557
      px      :     0.005660
      py      :     0.000440
      dz2     :    -0.000342  d :     0.000344
      dxz     :    -0.000101
      dyz     :     0.001706
      dx2y2   :    -0.000618
      dxy     :    -0.000301
      f0      :     0.000129  f :     0.000174
      f+1     :    -0.000047
      f-1     :     0.000286
      f+2     :     0.000194
      f-2     :    -0.000041
      f+3     :    -0.000036
      f-3     :    -0.000312

 18 H s       :     0.000718  s :     0.000718
      pz      :     0.000874  p :     0.001693
      px      :     0.000736
      py      :     0.000083
      dz2     :     0.000032  d :     0.000979
      dxz     :     0.000010
      dyz     :     0.000561
      dx2y2   :     0.000026
      dxy     :     0.000349

 19 H s       :    -0.000347  s :    -0.000347
      pz      :     0.000109  p :     0.000405
      px      :     0.000349
      py      :    -0.000053
      dz2     :     0.000171  d :     0.001547
      dxz     :     0.000050
      dyz     :     0.000478
      dx2y2   :     0.000446
      dxy     :     0.000402

 20 H s       :    -0.000609  s :    -0.000609
      pz      :     0.000032  p :     0.001155
      px      :     0.000401
      py      :     0.000722
      dz2     :     0.000056  d :     0.000111
      dxz     :     0.000147
      dyz     :    -0.000049
      dx2y2   :    -0.000052
      dxy     :     0.000009

 21 C s       :     0.001315  s :     0.001315
      pz      :     0.005156  p :     0.011601
      px      :     0.005444
      py      :     0.001001
      dz2     :    -0.000339  d :     0.000367
      dxz     :    -0.000144
      dyz     :     0.001741
      dx2y2   :    -0.000694
      dxy     :    -0.000196
      f0      :     0.000123  f :     0.000182
      f+1     :    -0.000003
      f-1     :     0.000212
      f+2     :     0.000327
      f-2     :    -0.000108
      f+3     :    -0.000165
      f-3     :    -0.000204

 22 H s       :    -0.000350  s :    -0.000350
      pz      :     0.000097  p :     0.000406
      px      :     0.000418
      py      :    -0.000109
      dz2     :     0.000162  d :     0.001555
      dxz     :     0.000034
      dyz     :     0.000494
      dx2y2   :     0.000686
      dxy     :     0.000178

 23 H s       :     0.000728  s :     0.000728
      pz      :     0.000829  p :     0.001706
      px      :     0.000711
      py      :     0.000166
      dz2     :     0.000030  d :     0.000983
      dxz     :    -0.000014
      dyz     :     0.000566
      dx2y2   :     0.000078
      dxy     :     0.000324

 24 H s       :    -0.000610  s :    -0.000610
      pz      :     0.000021  p :     0.001164
      px      :     0.000252
      py      :     0.000892
      dz2     :     0.000040  d :     0.000109
      dxz     :     0.000191
      dyz     :    -0.000075
      dx2y2   :    -0.000113
      dxy     :     0.000067

 25 N s       :    -0.000009  s :    -0.000009
      pz      :    -0.000004  p :     0.000093
      px      :     0.000119
      py      :    -0.000022
      dz2     :    -0.000008  d :    -0.000006
      dxz     :     0.000027
      dyz     :    -0.000023
      dx2y2   :    -0.000002
      dxy     :    -0.000001
      f0      :    -0.000000  f :    -0.000008
      f+1     :     0.000017
      f-1     :    -0.000019
      f+2     :    -0.000000
      f-2     :    -0.000005
      f+3     :    -0.000000
      f-3     :    -0.000001

 26 H s       :    -0.000019  s :    -0.000019
      pz      :    -0.000022  p :    -0.000002
      px      :     0.000048
      py      :    -0.000028
      dz2     :    -0.000020  d :    -0.000021
      dxz     :     0.000012
      dyz     :    -0.000008
      dx2y2   :    -0.000001
      dxy     :    -0.000002

 27 H s       :    -0.000010  s :    -0.000010
      pz      :    -0.000001  p :     0.000012
      px      :     0.000014
      py      :    -0.000001
      dz2     :    -0.000002  d :     0.000008
      dxz     :     0.000010
      dyz     :    -0.000000
      dx2y2   :    -0.000001
      dxy     :     0.000001



                      *****************************
                      * MAYER POPULATION ANALYSIS *
                      *****************************

  NA   - Mulliken gross atomic population
  ZA   - Total nuclear charge
  QA   - Mulliken gross atomic charge
  VA   - Mayer's total valence
  BVA  - Mayer's bonded valence
  FA   - Mayer's free valence

  ATOM       NA         ZA         QA         VA         BVA        FA
  0 C      4.5627     6.0000     1.4373     0.4603     0.4600     0.0002
  1 C      7.0757     6.0000    -1.0757     2.1536     2.1536     0.0001
  2 C      4.6751     6.0000     1.3249     1.8083     1.8046     0.0037
  3 N      6.1270     7.0000     0.8730     2.1894     1.9322     0.2572
  4 C      4.3862     6.0000     1.6138     1.8642     1.8611     0.0031
  5 H      0.5914     1.0000     0.4086     0.9031     0.9031     0.0000
  6 O      9.1669     8.0000    -1.1669     0.8380     0.6344     0.2036
  7 C      5.7598     6.0000     0.2402     1.4325     1.4325     0.0000
  8 O      9.0388     8.0000    -1.0388     1.0704     1.0704     0.0000
  9 C      7.1799     6.0000    -1.1799     3.7128     3.7123     0.0005
 10 H      0.8129     1.0000     0.1871     1.0087     1.0087     0.0000
 11 H      0.7732     1.0000     0.2268     1.0120     1.0120     0.0000
 12 H      0.8598     1.0000     0.1402     1.0785     1.0785     0.0000
 13 C      7.1823     6.0000    -1.1823     3.7223     3.7218     0.0005
 14 H      0.8684     1.0000     0.1316     1.0809     1.0808     0.0000
 15 H      0.7827     1.0000     0.2173     1.0227     1.0227     0.0000
 16 H      0.8024     1.0000     0.1976     0.9928     0.9928     0.0000
 17 C      7.2593     6.0000    -1.2593     3.7143     3.7137     0.0006
 18 H      0.8285     1.0000     0.1715     1.0188     1.0188     0.0000
 19 H      0.7565     1.0000     0.2435     0.9895     0.9895     0.0000
 20 H      0.8445     1.0000     0.1555     1.0526     1.0526     0.0000
 21 C      7.2537     6.0000    -1.2537     3.7173     3.7167     0.0006
 22 H      0.7605     1.0000     0.2395     0.9926     0.9926     0.0000
 23 H      0.8298     1.0000     0.1702     1.0214     1.0214     0.0000
 24 H      0.8368     1.0000     0.1632     1.0441     1.0441     0.0000
 25 N      7.2293     7.0000    -0.2293     3.0101     3.0101     0.0000
 26 H      0.8628     1.0000     0.1372     0.9741     0.9741     0.0000
 27 H      0.8930     1.0000     0.1070     0.9632     0.9632     0.0000

  Mayer bond orders larger than 0.100000
B(  0-C ,  1-C ) :   0.3028 B(  0-C ,  2-C ) :   0.1538 B(  0-C ,  3-N ) :  -0.1951 
B(  0-C ,  4-C ) :   0.7235 B(  0-C ,  5-H ) :  -0.1767 B(  0-C ,  7-C ) :  -0.6446 
B(  0-C ,  8-O ) :   0.6584 B(  0-C , 25-N ) :  -0.2861 B(  1-C ,  2-C ) :   1.0340 
B(  1-C ,  3-N ) :  -0.3444 B(  1-C ,  4-C ) :  -0.1136 B(  1-C ,  5-H ) :   0.9213 
B(  1-C ,  7-C ) :   0.4919 B(  2-C ,  3-N ) :   1.2089 B(  2-C ,  4-C ) :  -0.2162 
B(  2-C ,  6-O ) :  -0.2903 B(  2-C ,  7-C ) :  -0.1759 B(  2-C , 17-C ) :   0.2928 
B(  2-C , 21-C ) :   0.3057 B(  3-N ,  4-C ) :   1.2508 B(  3-N ,  6-O ) :   0.4011 
B(  3-N , 17-C ) :  -0.1016 B(  3-N , 21-C ) :  -0.1038 B(  4-C ,  5-H ) :   0.1427 
B(  4-C ,  7-C ) :   0.3621 B(  4-C ,  9-C ) :   0.3137 B(  4-C , 13-C ) :   0.3005 
B(  4-C , 25-N ) :  -0.1949 B(  6-O ,  9-C ) :   0.1129 B(  6-O , 13-C ) :   0.1116 
B(  6-O , 17-C ) :   0.1059 B(  6-O , 21-C ) :   0.1030 B(  7-C ,  8-O ) :   0.3486 
B(  7-C , 25-N ) :   1.2372 B(  9-C , 10-H ) :   1.0236 B(  9-C , 11-H ) :   1.0051 
B(  9-C , 12-H ) :   1.1134 B(  9-C , 13-C ) :   0.1706 B( 13-C , 14-H ) :   1.1232 
B( 13-C , 15-H ) :   1.0180 B( 13-C , 16-H ) :   1.0133 B( 17-C , 18-H ) :   1.0888 
B( 17-C , 19-H ) :   0.9842 B( 17-C , 20-H ) :   1.1227 B( 17-C , 21-C ) :   0.2593 
B( 21-C , 22-H ) :   0.9907 B( 21-C , 23-H ) :   1.0902 B( 21-C , 24-H ) :   1.1093 
B( 25-N , 26-H ) :   1.0120 B( 25-N , 27-H ) :   0.9979 

-------
TIMINGS
-------

Total SCF time: 0 days 0 hours 10 min 2 sec 

Total time                  ....     602.951 sec
Sum of individual times     ....     599.806 sec  ( 99.5%)

SCF preparation             ....       1.995 sec  (  0.3%)
Fock matrix formation       ....     525.737 sec  ( 87.2%)
  Startup                   ....       7.241 sec  (  1.4% of F)
  Split-RI-J                ....      33.793 sec  (  6.4% of F)
  Chain of spheres X        ....     323.444 sec  ( 61.5% of F)
  XC integration            ....     130.231 sec  ( 24.8% of F)
    XC Preparation          ....       0.000 sec  (  0.0% of XC)
    Basis function eval.    ....       9.636 sec  (  7.4% of XC)
    Density eval.           ....      47.149 sec  ( 36.2% of XC)
    XC-Functional eval.     ....       0.473 sec  (  0.4% of XC)
    XC-Potential eval.      ....      58.647 sec  ( 45.0% of XC)
  CPCM terms                ....      18.051 sec  (  3.4% of F)
Diagonalization             ....       0.000 sec  (  0.0%)
Density matrix formation    ....      15.586 sec  (  2.6%)
Total Energy calculation    ....       6.015 sec  (  1.0%)
Population analysis         ....       1.951 sec  (  0.3%)
Orbital Transformation      ....       4.295 sec  (  0.7%)
Orbital Orthonormalization  ....       0.000 sec  (  0.0%)
DIIS solution               ....      32.187 sec  (  5.3%)
SOSCF solution              ....      12.041 sec  (  2.0%)
Finished LeanSCF after 603.9 sec

Maximum memory used throughout the entire LEANSCF-calculation: 194.8 MB


-------------------------------------------------------------------------------
                          DFT DISPERSION CORRECTION                            
                                                                               
                              DFTD3 V3.1  Rev 1                                
                          USING Becke-Johnson damping                          
-------------------------------------------------------------------------------
The B3LYP functional is recognized
Active option DFTDOPT                   ...         4   

molecular C6(AA) [au] = 6681.229156 


            DFT-D V3
 parameters
 s6 scaling factor         :     1.0000 
 a1 scaling factor         :     0.3981 
 s8 scaling factor         :     1.9889 
 a2 scaling factor         :     4.4211 
 ad hoc parameters k1-k3   :    16.0000     1.3333    -4.0000 

 Edisp/kcal,au: -33.878785050473  -0.053989274803 
 E6   /kcal   : -16.379193477 
 E8   /kcal   : -17.499591574 
 % E8         :  51.653539369 

-------------------------   ----------------
Dispersion correction           -0.053989275
-------------------------   ----------------


-------------------------   --------------------
FINAL SINGLE POINT ENERGY      -611.820346689664
-------------------------   --------------------



           ************************************************************
           *        Program running with 10 parallel MPI-processes    *
           *              working on a common directory               *
           ************************************************************

------------------------------------------------------------------------------
                              ORCA PROPERTY CALCULATIONS
------------------------------------------------------------------------------

GBWName                                 ... cs_rporg_w06_red_solv_02.gbw
Number of atoms                         ...     28
Number of basis functions               ...   1021
Max core memory                         ...   3500 MB

Electric properties:
Dipole moment                           ... YES
Quadrupole moment                       ...  NO
Static polarizability (Dipole/Dipole)   ...  NO
Static polarizability (Dipole/Quad.)    ...  NO
Static polarizability (Quad./Quad.)     ...  NO
Static polarizability (Velocity)        ...  NO

Atomic electric properties:
Dipole moment                           ...  NO
Quadrupole moment                       ...  NO
Static polarizability                   ...  NO

Choice of electric origin               ... Center of mass
Position of electric origin             ...    -0.296332     0.700430    -0.590397

General magnetic properties:
Magnetizability                         ...  NO

EPR properties:
g-Tensor (aka g-matrix)                 ...  NO
Zero-Field splitting spin-orbit         ...  NO
Zero-field splitting spin-spin          ...  NO
Hyperfine couplings                     ...  NO (   0 nuclei)
Quadrupole couplings                    ...  NO (   0 nuclei)
Contact density                         ...  NO (   0 nuclei)

NMR properties:
Chemical shifts                         ...  NO (   0 nuclei)
Spin-rotation constants                 ...  NO (   0 nuclei)
Spin-spin couplings                     ...  NO (   0 nuclei,    0 pairs)

Choice of magnetic origin               ... GIAO
Position of magnetic origin             ...     0.000000     0.000000     0.000000

Properties with geometric perturbations:
SCF Hessian                             ...  NO
IR spectrum                             ...  NO
VCD spectrum                            ...  NO
X-ray spectroscopy properties:
SCF XES/XAS/RIXS spectra                ...  NO


-------------
DIPOLE MOMENT
-------------

Method             : SCF
Type of density    : Electron Density
Multiplicity       :   2
Irrep              :   0
Energy             :  -611.7663574148609769 Eh
Relativity type    : 
Basis              : AO
                                X                 Y                 Z
Electronic contribution:      0.313434151      -2.702870471      -5.511370963
Nuclear contribution   :     -0.388237367       3.445340699       4.719558355
                        -----------------------------------------
Total Dipole Moment    :     -0.074803217       0.742470228      -0.791812608
                        -----------------------------------------
Magnitude (a.u.)       :      1.088037116
Magnitude (Debye)      :      2.765570567



--------------------
Rotational spectrum 
--------------------
 
Rotational constants in cm-1:             0.040199             0.022321             0.017613 
Rotational constants in MHz :          1205.148589           669.171544           528.030747 

Dipole components along the rotational axes: 
x,y,z [a.u.] :    -0.734189     0.802419     0.030255 
x,y,z [Debye]:    -1.866159     2.039588     0.076901 

 

Dipole moment calculation done in   0.2 sec 

Maximum memory used throughout the entire PROP-calculation: 106.9 MB

--------------------------------
SUGGESTED CITATIONS FOR THIS RUN
--------------------------------

Below you find a list of papers that are relevant to this ORCA run
We neither can nor want to force you to cite these papers, but we appreciate if you do
You receive ORCA, which is the product of decades of hard work by many enthusiastic individuals, for free
The only thing we kindly ask in return is that you cite our papers,
We deeply appreciate it, if you show your appreciation for ORCA by not just citing the generic ORCA reference.

Please note that relegating all ORCA citations to the supporting information does *not* help us.
SI sections are not indexed - citations you put there will not count into any citation statistics
But we need these citations in order to attract the funding resources that allow us to do what we are doing

Therefore, if you are a happy ORCA user, please consider citing a few of the papers listed below in the main body of your paper

In addition to the list printed below, the program has created the file cs_rporg_w06_red_solv_02.bibtex that contains the list in bibtex format
You can import this file easily into all common literature databanks and citation aid programs


List of essential papers. We consider these as the minimum necessary citations

  1. Neese,F.
     Software update: the ORCA program system, version 5.0
     WIRES Comput. Molec. Sci., 2022 12(1)e1606
     doi.org/10.1002/wcms.1606

List of papers to cite with high priority. The work reported in these papers was absolutely
necessary for this run to complete.
Our perspective: the developers of density functionals and basis sets usually get cited in chemistry papers
Good! But without the algorithms to do something with them, the functionals or basis sets would not do anything.
Hence, in our opinion, the algorithm design and method developments papers are equally worthy of getting cited

  1. Neese,F.
     An improvement of the resolution of the identity approximation for the formation of the Coulomb matrix
     J. Comp. Chem., 2003 24(14)1740-1747
     doi.org/10.1002/jcc.10318
  2. Neese,F.; Wennmohs,F.; Hansen,A.; Becker,U.
     Efficient, approximate and parallel Hartree-Fock and hybrid DFT calculations. A 'chain-of-spheres' algorithm for the Hartree-Fock exchange
     Chem. Phys., 2009 356(1-3)98-109
     doi.org/10.1016/j.chemphys.2008.10.036
  3. Garcia-Rates,M.; Neese,F.
     Effect of the Solute Cavity on the Solvation Energy and its Derivatives within the Framework of the Gaussian Charge Scheme
     J. Comput. Chem., 2020 41 922-939
     doi.org/10.1002/jcc.26139
  4. Helmich-Paris,B.; de Souza,B.; Neese,F.; Izsák,R.
     An improved chain of spheres for exchange algorithm
     J. Chem. Phys., 2021 155 104109
     doi.org/doi: 10.1063/5.0058766.
  5. Neese,F.
     The SHARK Integral Generation and Digestion System
     J. Comp. Chem., 2022  1-16
     doi.org/10.1002/jcc.26942
  6. Grimme,S.; Antony,J.; Ehrlich,S.; Krieg,H.
     A consistent and accurate ab initio parametrization of density functional dispersion correction (DFT-D) for the 94 elements H-Pu
     J. Chem. Phys., 2010 132 154104-XXXX
     doi.org/10.1063/1.3382344
  7. Grimme,S.; Ehrlich,S.; Goerigk,L.
     Effect of the damping function in dispersion corrected density functional theory
     J. Comput. Chem., 2011 32(7)1456-1465
     doi.org/10.1002/jcc.21759

List of suggested additional citations. These are papers that are important in the 'surrounding' of 
of this run, or papers that preceded the highly important papers. If you like your results we are grateful for a citation.

  1. Izsak,R.; Neese,F.
     An overlap fitted chain of spheres exchange method
     J. Chem. Phys., 2011 135 144105
     doi.org/10.1063/1.3646921
  2. Izsak,R.; Hansen,A.; Neese,F.
     The resolution of identity and chain of spheres approximations for the LPNO-CCSD singles Fock term
     Molec. Phys., 2012 110 2413-2417
     doi.org/10.1080/00268976.2012.687466
  3. Neese,F.
     The ORCA program system
     WIRES Comput. Molec. Sci., 2012 2(1)73-78
     doi.org/10.1002/wcms.81
  4. Izsak,R.; Neese,F.; Klopper,W.
     Robust fitting techniques in the chain of spheres approximation to the Fock exchange: The role of the complementary space
     J. Chem. Phys., 2013 139 
     doi.org/10.1063/1.4819264
  5. Neese,F.
     Software update: the ORCA program system, version 4.0
     WIRES Comput. Molec. Sci., 2018 8(1)1-6
     doi.org/10.1002/wcms.1327
  6. Neese,F.; Wennmohs,F.; Becker,U.; Riplinger,C.
     The ORCA quantum chemistry program package
     J. Chem. Phys., 2020 152 Art. No. L224108
     doi.org/10.1063/5.0004608

List of optional additional citations

  1. Neese,F.
     Approximate second-order SCF convergence for spin unrestricted wavefunctions
     Chem. Phys. Lett., 2000 325(1-3)93-98
     doi.org/10.1016/s0009-2614(00)00662-x

Timings for individual modules:

Sum of individual times          ...      629.867 sec (=  10.498 min)
Startup calculation              ...       13.372 sec (=   0.223 min)   2.1 %
SCF iterations                   ...      613.074 sec (=  10.218 min)  97.3 %
Property calculations            ...        3.421 sec (=   0.057 min)   0.5 %
                             ****ORCA TERMINATED NORMALLY****
TOTAL RUN TIME: 0 days 0 hours 10 minutes 33 seconds 275 msec
