 vasp.6.4.2 20Jul23 (build Sep 06 2024 14:39:43) complex                        
  
 executed on             LinuxIFC date 2024.10.30  03:09:22
 running   80 mpi-ranks, on    4 nodes
 distrk:  each k-point on   80 cores,    1 groups
 distr:  one band on NCORE=  10 cores,    8 groups


--------------------------------------------------------------------------------------------------------


 INCAR:
   SYSTEM = 144_ox
   ISTART = 1
   ICHARG = 2
   INIWAV = 1
   METAGGA = R2SCAN
   LASPH = .TRUE.
   NELM = 100
   ALGO = fast   	
   ISPIN = 2
   EDIFF = 1E-05
   ISMEAR = 0
   SIGMA = 0.05
   PREC = accurate
   ENCUT = 500
   LREAL = auto  	
   LWAVE = .TRUE.
   LCHARG = .FALSE.
   LAECHG = .FALSE.
   LVHAR = .FALSE.
   LVTOT = .FALSE.
   EDIFFG = -0.02
   IBRION = 2
   NSW = 500
   ISIF = 2
   POTIM = 0.5
   IVDW = 12
   VDW_A1 = 0.49484001
   VDW_S8 = 0.78981345
   VDW_A2 = 5.73083694
   LPLANE = .TRUE.
   NCORE = 10
   LSCALU = .FALSE.
   NSIM = 4
   LSOL = .TRUE.
   EB_K = 35.6880
   LAMBDA_D_K = 3.04
   TAU = 0

 POTCAR:    PAW_PBE C 08Apr2002                   
 POTCAR:    PAW_PBE O 08Apr2002                   
 POTCAR:    PAW_PBE H 15Jun2001                   
 -----------------------------------------------------------------------------
|                                                                             |
|           W    W    AA    RRRRR   N    N  II  N    N   GGGG   !!!           |
|           W    W   A  A   R    R  NN   N  II  NN   N  G    G  !!!           |
|           W    W  A    A  R    R  N N  N  II  N N  N  G       !!!           |
|           W WW W  AAAAAA  RRRRR   N  N N  II  N  N N  G  GGG   !            |
|           WW  WW  A    A  R   R   N   NN  II  N   NN  G    G                |
|           W    W  A    A  R    R  N    N  II  N    N   GGGG   !!!           |
|                                                                             |
|     You use a magnetic or noncollinear calculation, but did not specify     |
|     the initial magnetic moment with the MAGMOM tag. Note that a            |
|     default of 1 will be used for all atoms. This ferromagnetic setup       |
|     may break the symmetry of the crystal, in particular it may rule        |
|     out finding an antiferromagnetic solution. Thence, we recommend         |
|     setting the initial magnetic moment manually or verifying carefully     |
|     that this magnetic setup is desired.                                    |
|                                                                             |
 -----------------------------------------------------------------------------

 POTCAR:    PAW_PBE C 08Apr2002                   
   VRHFIN =C: s2p2                                                                                  
   LEXCH  = PE                                                                                      
   EATOM  =   147.1560 eV,   10.8157 Ry                                                             
                                                                                                    
   TITEL  = PAW_PBE C 08Apr2002                                                                     
   LULTRA =        F    use ultrasoft PP ?                                                          
   IUNSCR =        1    unscreen: 0-lin 1-nonlin 2-no                                               
   RPACOR =    1.200    partial core radius                                                         
   POMASS =   12.011; ZVAL   =    4.000    mass and valenz                                          
   RCORE  =    1.500    outmost cutoff radius                                                       
   RWIGS  =    1.630; RWIGS  =    0.863    wigner-seitz radius (au A)                               
   ENMAX  =  400.000; ENMIN  =  300.000 eV                                                          
   ICORE  =        2    local potential                                                             
   LCOR   =        T    correct aug charges                                                         
   LPAW   =        T    paw PP                                                                      
   EAUG   =  644.873                                                                                
   DEXC   =    0.000                                                                                
   RMAX   =    1.529    core radius for proj-oper                                                   
   RAUG   =    1.300    factor for augmentation sphere                                              
   RDEP   =    1.501    radius for radial grids                                                     
   RDEPT  =    1.300    core radius for aug-charge                                                  
                                                                                                    
   Atomic configuration                                                                             
    4 entries                                                                                       
     n  l   j            E        occ.                                                              
     1  0  0.50      -273.3789   2.0000                                                             
     2  0  0.50       -13.7508   2.0000                                                             
     2  1  0.50        -5.2854   2.0000                                                             
     3  2  1.50        -5.4423   0.0000                                                             
   Description                                                                                      
     l       E           TYP  RCUT    TYP  RCUT                                                     
     0    -13.7508458     23  1.200                                                                 
     0     -8.2022199     23  1.200                                                                 
     1     -5.2854383     23  1.500                                                                 
     1     34.0145650     23  1.500                                                                 
     2     -5.4423304      7  1.500                                                                 
  local pseudopotential read in
  partial core-charges read in
  partial kinetic energy density read in
  atomic valenz-charges read in
  non local Contribution for L=           0  read in
    real space projection operators read in
  non local Contribution for L=           0  read in
    real space projection operators read in
  non local Contribution for L=           1  read in
    real space projection operators read in
  non local Contribution for L=           1  read in
    real space projection operators read in
    PAW grid and wavefunctions read in
 
   number of l-projection  operators is LMAX  =           4
   number of lm-projection operators is LMMAX =           8
 
 POTCAR:    PAW_PBE O 08Apr2002                   
   VRHFIN =O: s2p4                                                                                  
   LEXCH  = PE                                                                                      
   EATOM  =   432.3788 eV,   31.7789 Ry                                                             
                                                                                                    
   TITEL  = PAW_PBE O 08Apr2002                                                                     
   LULTRA =        F    use ultrasoft PP ?                                                          
   IUNSCR =        1    unscreen: 0-lin 1-nonlin 2-no                                               
   RPACOR =    1.200    partial core radius                                                         
   POMASS =   16.000; ZVAL   =    6.000    mass and valenz                                          
   RCORE  =    1.520    outmost cutoff radius                                                       
   RWIGS  =    1.550; RWIGS  =    0.820    wigner-seitz radius (au A)                               
   ENMAX  =  400.000; ENMIN  =  300.000 eV                                                          
   ICORE  =        2    local potential                                                             
   LCOR   =        T    correct aug charges                                                         
   LPAW   =        T    paw PP                                                                      
   EAUG   =  605.392                                                                                
   DEXC   =    0.000                                                                                
   RMAX   =    1.553    core radius for proj-oper                                                   
   RAUG   =    1.300    factor for augmentation sphere                                              
   RDEP   =    1.550    radius for radial grids                                                     
   RDEPT  =    1.329    core radius for aug-charge                                                  
                                                                                                    
   Atomic configuration                                                                             
    4 entries                                                                                       
     n  l   j            E        occ.                                                              
     1  0  0.50      -514.6923   2.0000                                                             
     2  0  0.50       -23.9615   2.0000                                                             
     2  1  0.50        -9.0305   4.0000                                                             
     3  2  1.50        -9.5241   0.0000                                                             
   Description                                                                                      
     l       E           TYP  RCUT    TYP  RCUT                                                     
     0    -23.9615318     23  1.200                                                                 
     0     -9.5240782     23  1.200                                                                 
     1     -9.0304911     23  1.520                                                                 
     1      8.1634956     23  1.520                                                                 
     2     -9.5240782      7  1.500                                                                 
  local pseudopotential read in
  partial core-charges read in
  partial kinetic energy density read in
  kinetic energy density of atom read in
  atomic valenz-charges read in
  non local Contribution for L=           0  read in
    real space projection operators read in
  non local Contribution for L=           0  read in
    real space projection operators read in
  non local Contribution for L=           1  read in
    real space projection operators read in
  non local Contribution for L=           1  read in
    real space projection operators read in
    PAW grid and wavefunctions read in
 
   number of l-projection  operators is LMAX  =           4
   number of lm-projection operators is LMMAX =           8
 
 POTCAR:    PAW_PBE H 15Jun2001                   
   VRHFIN =H: ultrasoft test                                                                        
   LEXCH  = PE                                                                                      
   EATOM  =    12.4884 eV,    0.9179 Ry                                                             
                                                                                                    
   TITEL  = PAW_PBE H 15Jun2001                                                                     
   LULTRA =        F    use ultrasoft PP ?                                                          
   IUNSCR =        0    unscreen: 0-lin 1-nonlin 2-no                                               
   RPACOR =    0.000    partial core radius                                                         
   POMASS =    1.000; ZVAL   =    1.000    mass and valenz                                          
   RCORE  =    1.100    outmost cutoff radius                                                       
   RWIGS  =    0.700; RWIGS  =    0.370    wigner-seitz radius (au A)                               
   ENMAX  =  250.000; ENMIN  =  200.000 eV                                                          
   RCLOC  =    0.701    cutoff for local pot                                                        
   LCOR   =        T    correct aug charges                                                         
   LPAW   =        T    paw PP                                                                      
   EAUG   =  400.000                                                                                
   RMAX   =    1.123    core radius for proj-oper                                                   
   RAUG   =    1.200    factor for augmentation sphere                                              
   RDEP   =    1.112    radius for radial grids                                                     
   RDEPT  =    0.926    core radius for aug-charge                                                  
                                                                                                    
   Atomic configuration                                                                             
    2 entries                                                                                       
     n  l   j            E        occ.                                                              
     1  0  0.50        -6.4927   1.0000                                                             
     2  1  0.50        -3.4015   0.0000                                                             
   Description                                                                                      
     l       E           TYP  RCUT    TYP  RCUT                                                     
     0     -6.4927494     23  1.100                                                                 
     0      6.8029130     23  1.100                                                                 
     1     -4.0817478     23  1.100                                                                 
  local pseudopotential read in
  atomic valenz-charges read in
  non local Contribution for L=           0  read in
    real space projection operators read in
  non local Contribution for L=           0  read in
    real space projection operators read in
  non local Contribution for L=           1  read in
    real space projection operators read in
    PAW grid and wavefunctions read in
 
   number of l-projection  operators is LMAX  =           3
   number of lm-projection operators is LMMAX =           5
 
 Optimization of the real space projectors (new method)

 maximal supplied QI-value         = 25.13
 optimisation between [QCUT,QGAM] = [ 11.31, 22.87] = [ 35.82,146.48] Ry 
 Optimized for a Real-space Cutoff    1.03 Angstroem

   l    n(q)    QCUT    max X(q) W(low)/X(q) W(high)/X(q)  e(spline) 
   0      7    11.310   115.676    0.20E-03    0.90E-03    0.20E-06
   0      7    11.310    87.132    0.20E-03    0.89E-03    0.19E-06
   1      6    11.310     4.429    0.16E-03    0.28E-03    0.12E-06
   1      6    11.310     2.733    0.12E-03    0.21E-03    0.99E-07
 Optimization of the real space projectors (new method)

 maximal supplied QI-value         = 24.76
 optimisation between [QCUT,QGAM] = [ 11.39, 22.77] = [ 36.31,145.25] Ry 
 Optimized for a Real-space Cutoff    1.10 Angstroem

   l    n(q)    QCUT    max X(q) W(low)/X(q) W(high)/X(q)  e(spline) 
   0      7    11.387    20.381    0.22E-03    0.48E-03    0.18E-06
   0      7    11.387    15.268    0.22E-03    0.52E-03    0.19E-06
   1      7    11.387     5.964    0.22E-03    0.73E-03    0.24E-06
   1      7    11.387     5.382    0.19E-03    0.60E-03    0.21E-06
 Optimization of the real space projectors (new method)

 maximal supplied QI-value         = 34.20
 optimisation between [QCUT,QGAM] = [ 11.29, 22.57] = [ 35.68,142.71] Ry 
 Optimized for a Real-space Cutoff    1.20 Angstroem

   l    n(q)    QCUT    max X(q) W(low)/X(q) W(high)/X(q)  e(spline) 
   0      8    11.287    19.460    0.22E-03    0.50E-03    0.19E-06
   0      8    11.287    12.209    0.21E-03    0.48E-03    0.18E-06
   1      8    11.287     4.655    0.21E-03    0.11E-04    0.26E-06
  PAW_PBE C 08Apr2002                   :
 energy of atom  1       EATOM= -147.1560
 kinetic energy error for atom=    0.0076 (will be added to EATOM!!)
  PAW_PBE O 08Apr2002                   :
 energy of atom  2       EATOM= -432.3788
 kinetic energy error for atom=    0.0224 (will be added to EATOM!!)
  PAW_PBE H 15Jun2001                   :
 energy of atom  3       EATOM=  -12.4884
 kinetic energy error for atom=    0.0020 (will be added to EATOM!!)
 
 
 POSCAR: C O H
  positions in direct lattice
  velocities in cartesian coordinates

 METAGGA = R2SCAN                                      LMAXTAU =  6    LMIXTAU =  F

 exchange correlation table for  LEXCH =        8
   RHO(1)=    0.500       N(1)  =     2000
   RHO(2)=  100.500       N(2)  =     4000
 


--------------------------------------------------------------------------------------------------------


 ion  position               nearest neighbor table
   1  0.510  0.477  0.500-  17 1.09   2 1.40   6 1.41
   2  0.545  0.476  0.500-  16 1.09   1 1.40   3 1.40
   3  0.563  0.506  0.500-  15 1.09   2 1.40   4 1.40
   4  0.546  0.536  0.500-  14 1.09   5 1.39   3 1.40
   5  0.512  0.537  0.500-  13 1.09   4 1.39   6 1.41
   6  0.493  0.507  0.500-   1 1.41   5 1.41   7 1.50
   7  0.456  0.509  0.500-   9 1.24   6 1.50   8 1.51
   8  0.436  0.477  0.500-  10 1.10  12 1.10  11 1.10   7 1.51
   9  0.441  0.537  0.500-   7 1.24
  10  0.409  0.483  0.500-   8 1.10
  11  0.442  0.462  0.522-   8 1.10
  12  0.442  0.462  0.478-   8 1.10
  13  0.498  0.561  0.500-   5 1.09
  14  0.561  0.560  0.500-   4 1.09
  15  0.591  0.505  0.500-   3 1.09
  16  0.558  0.452  0.500-   2 1.09
  17  0.497  0.453  0.500-   1 1.09
 
  LATTYP: Found a simple cubic cell.
 ALAT       =    40.0000000000
  
  Lattice vectors:
  
 A1 = (  40.0000000000,   0.0000000000,   0.0000000000)
 A2 = (   0.0000000000,  40.0000000000,   0.0000000000)
 A3 = (   0.0000000000,   0.0000000000,  40.0000000000)


Analysis of symmetry for initial positions (statically):
=====================================================================
 Subroutine PRICEL returns:
 Original cell was already a primitive cell.
 

 Routine SETGRP: Setting up the symmetry group for a 
 simple cubic supercell.


 Subroutine GETGRP returns: Found  1 space group operations
 (whereof  1 operations were pure point group operations)
 out of a pool of 48 trial point group operations.


The static configuration has the point symmetry C_1 .


Analysis of symmetry for dynamics (positions and initial velocities):
=====================================================================
 Subroutine PRICEL returns:
 Original cell was already a primitive cell.
 

 Routine SETGRP: Setting up the symmetry group for a 
 simple cubic supercell.


 Subroutine GETGRP returns: Found  1 space group operations
 (whereof  1 operations were pure point group operations)
 out of a pool of 48 trial point group operations.


The dynamic configuration has the point symmetry C_1 .


Analysis of constrained symmetry for selective dynamics:
=====================================================================
 Subroutine PRICEL returns:
 Original cell was already a primitive cell.
 

 Routine SETGRP: Setting up the symmetry group for a 
 simple cubic supercell.


 Subroutine GETGRP returns: Found  1 space group operations
 (whereof  1 operations were pure point group operations)
 out of a pool of 48 trial point group operations.


The constrained configuration has the point symmetry C_1 .


Analysis of structural, dynamic, and magnetic symmetry:
=====================================================================
 Subroutine PRICEL returns:
 Original cell was already a primitive cell.
 

 Routine SETGRP: Setting up the symmetry group for a 
 simple cubic supercell.


 Subroutine GETGRP returns: Found  1 space group operations
 (whereof  1 operations were pure point group operations)
 out of a pool of 48 trial point group operations.


The overall configuration has the point symmetry C_1 .


 Subroutine INISYM returns: Found  1 space group operations
 (whereof  1 operations are pure point group operations),
 and found     1 'primitive' translations


----------------------------------------------------------------------------------------

                                     Primitive cell                                     

  volume of cell :   64000.0000

  direct lattice vectors                    reciprocal lattice vectors
    40.000000000  0.000000000  0.000000000     0.025000000  0.000000000  0.000000000
     0.000000000 40.000000000  0.000000000     0.000000000  0.025000000  0.000000000
     0.000000000  0.000000000 40.000000000     0.000000000  0.000000000  0.025000000

  length of vectors
    40.000000000 40.000000000 40.000000000     0.025000000  0.025000000  0.025000000

  position of ions in fractional coordinates (direct lattice)
     0.510348902  0.476513327  0.499989856
     0.545275653  0.475861981  0.499996617
     0.563372348  0.505786734  0.500005338
     0.546462469  0.536469114  0.500002788
     0.511652475  0.537134348  0.499994465
     0.493148203  0.507206647  0.499995624
     0.455762040  0.509171389  0.499992664
     0.435710060  0.477208548  0.500003944
     0.441497597  0.536655320  0.499997399
     0.409002360  0.483223072  0.500004865
     0.441689447  0.461975283  0.522105231
     0.441684880  0.461966101  0.477908866
     0.498159504  0.560821854  0.499994756
     0.560509874  0.559834228  0.500007506
     0.590645611  0.505256360  0.500013612
     0.558424108  0.451971396  0.500000261
     0.496655471  0.452944299  0.499985208

  ion indices of the primitive-cell ions
   primitive index   ion index
                 1           1
                 2           2
                 3           3
                 4           4
                 5           5
                 6           6
                 7           7
                 8           8
                 9           9
                10          10
                11          11
                12          12
                13          13
                14          14
                15          15
                16          16
                17          17

----------------------------------------------------------------------------------------

 
 
 KPOINTS: K-Point Grid                            

Automatic generation of k-mesh.
 Grid dimensions read from file:
 generate k-points for:    1    1    1

 Generating k-lattice:

  Cartesian coordinates                     Fractional coordinates (reciprocal lattice)
     0.025000000  0.000000000  0.000000000     1.000000000  0.000000000  0.000000000
     0.000000000  0.025000000  0.000000000     0.000000000  1.000000000  0.000000000
     0.000000000  0.000000000  0.025000000     0.000000000  0.000000000  1.000000000

  Length of vectors
     0.025000000  0.025000000  0.025000000

  Shift w.r.t. Gamma in fractional coordinates (k-lattice)
     0.000000000  0.000000000  0.000000000

 
 Subroutine IBZKPT returns following result:
 ===========================================
 
 Found      1 irreducible k-points:
 
 Following reciprocal coordinates:
            Coordinates               Weight
  0.000000  0.000000  0.000000      1.000000
 
 Following cartesian coordinates:
            Coordinates               Weight
  0.000000  0.000000  0.000000      1.000000
 


--------------------------------------------------------------------------------------------------------




 Dimension of arrays:
   k-points           NKPTS =      1   k-points in BZ     NKDIM =      1   number of bands    NBANDS=     48
   number of dos      NEDOS =    301   number of ions     NIONS =     17
   non local maximal  LDIM  =      4   non local SUM 2l+1 LMDIM =      8
   total plane-waves  NPLWV = ******
   max r-space proj   IRMAX =   2915   max aug-charges    IRDMAX=   5350
   dimension x,y,z NGX =   294 NGY =  294 NGZ =  294
   dimension x,y,z NGXF=   588 NGYF=  588 NGZF=  588
   support grid    NGXF=   588 NGYF=  588 NGZF=  588
   ions per type =               8   1   8
   NGX,Y,Z   is equivalent  to a cutoff of  12.22, 12.22, 12.22 a.u.
   NGXF,Y,Z  is equivalent  to a cutoff of  24.44, 24.44, 24.44 a.u.

 SYSTEM =  144_ox                                  
 POSCAR =  C O H                                   

 Startparameter for this run:
   NWRITE =      2    write-flag & timer
   PREC   = accura    normal or accurate (medium, high low for compatibility)
   ISTART =      1    job   : 0-new  1-cont  2-samecut
   ICHARG =      2    charge: 1-file 2-atom 10-const
   ISPIN  =      2    spin polarized calculation?
   LNONCOLLINEAR =      F non collinear calculations
   LSORBIT =      F    spin-orbit coupling
   INIWAV =      1    electr: 0-lowe 1-rand  2-diag
   LASPH  =      T    aspherical Exc in radial PAW
 Electronic Relaxation 1
   ENCUT  =  500.0 eV  36.75 Ry    6.06 a.u.  72.93 72.93 72.93*2*pi/ulx,y,z
   ENINI  =  500.0     initial cutoff
   ENAUG  =  644.9 eV  augmentation charge cutoff
   NELM   =    100;   NELMIN=  2; NELMDL=  0     # of ELM steps 
   EDIFF  = 0.1E-04   stopping-criterion for ELM
   LREAL  =      T    real-space projection
   NLSPLINE    = F    spline interpolate recip. space projectors
   LCOMPAT=      F    compatible to vasp.4.4
   GGA_COMPAT  = T    GGA compatible to vasp.4.4-vasp.4.6
   LMAXPAW     = -100 max onsite density
   LMAXMIX     =    2 max onsite mixed and CHGCAR
   VOSKOWN=      0    Vosko Wilk Nusair interpolation
   ROPT   =   -0.00025  -0.00025  -0.00025
 Ionic relaxation
   EDIFFG = -.2E-01   stopping-criterion for IOM
   NSW    =    500    number of steps for IOM
   NBLOCK =      1;   KBLOCK =    500    inner block; outer block 
   IBRION =      2    ionic relax: 0-MD 1-quasi-New 2-CG
   NFREE  =      1    steps in history (QN), initial steepest desc. (CG)
   ISIF   =      2    stress and relaxation
   IWAVPR =     11    prediction:  0-non 1-charg 2-wave 3-comb
   ISYM   =      2    0-nonsym 1-usesym 2-fastsym
   LCORR  =      T    Harris-Foulkes like correction to forces

   POTIM  = 0.5000    time-step for ionic-motion
   TEIN   =    0.0    initial temperature
   TEBEG  =    0.0;   TEEND  =   0.0 temperature during run
   SMASS  =  -3.00    Nose mass-parameter (am)
   estimated Nose-frequenzy (Omega)   =  0.10E-29 period in steps = 0.13E+47 mass=  -0.366E-25a.u.
   SCALEE = 1.0000    scale energy and forces
   NPACO  =    256;   APACO  = 10.0  distance and # of slots for P.C.
   PSTRESS=    0.0 pullay stress

  Mass of Ions in am
   POMASS =  12.01 16.00  1.00
  Ionic Valenz
   ZVAL   =   4.00  6.00  1.00
  Atomic Wigner-Seitz radii
   RWIGS  =  -1.00 -1.00 -1.00
  virtual crystal weights 
   VCA    =   1.00  1.00  1.00
   NELECT =      46.0000    total number of electrons
   NUPDOWN=      -1.0000    fix difference up-down

 DOS related values:
   EMIN   =  10.00;   EMAX   =-10.00  energy-range for DOS
   EFERMI =   0.00;   METHOD = LEGACY      
   ISMEAR =     0;   SIGMA  =   0.05  broadening in eV -4-tet -1-fermi 0-gaus

 Electronic relaxation 2 (details)
   IALGO  =     68    algorithm
   LDIAG  =      T    sub-space diagonalisation (order eigenvalues)
   LSUBROT=      F    optimize rotation matrix (better conditioning)
   TURBO    =      0    0=normal 1=particle mesh
   IRESTART =      0    0=no restart 2=restart with 2 vectors
   NREBOOT  =      0    no. of reboots
   NMIN     =      0    reboot dimension
   EREF     =   0.00    reference energy to select bands
   IMIX   =      4    mixing-type and parameters
     AMIX     =   0.40;   BMIX     =  1.00
     AMIX_MAG =   1.60;   BMIX_MAG =  1.00
     AMIN     =   0.10
     WC   =   100.;   INIMIX=   1;  MIXPRE=   1;  MAXMIX= -45

 Intra band minimization:
   WEIMIN = 0.0010     energy-eigenvalue tresh-hold
   EBREAK =  0.52E-07  absolut break condition
   DEPER  =   0.30     relativ break condition  

   TIME   =   0.40     timestep for ELM

  volume/ion in A,a.u.               =    3764.71     25405.49
  Fermi-wavevector in a.u.,A,eV,Ry     =   0.146645  0.277119  0.292590  0.021505
  Thomas-Fermi vector in A             =   0.816559
 
 Write flags
   LWAVE        =      T    write WAVECAR
   LDOWNSAMPLE  =      F    k-point downsampling of WAVECAR
   LCHARG       =      F    write CHGCAR
   LVTOT        =      F    write LOCPOT, total local potential
   LVHAR        =      F    write LOCPOT, Hartree potential only
   LELF         =      F    write electronic localiz. function (ELF)
   LORBIT       =      0    0 simple, 1 ext, 2 COOP (PROOUT), +10 PAW based schemes


 Dipole corrections
   LMONO  =      F    monopole corrections only (constant potential shift)
   LDIPOL =      F    correct potential (dipole corrections)
   IDIPOL =      0    1-x, 2-y, 3-z, 4-all directions 
   EPSILON=  1.0000000 bulk dielectric constant

 Exchange correlation treatment:
   GGA     =    --    GGA type
   LEXCH   =     8    internal setting for exchange type
   LIBXC   =     F    Libxc                    
   VOSKOWN =     0    Vosko Wilk Nusair interpolation
   LHFCALC =     F    Hartree Fock is set to
   LHFONE  =     F    Hartree Fock one center treatment
   AEXX    =    0.0000 exact exchange contribution

 Linear response parameters
   LEPSILON=     F    determine dielectric tensor
   LRPA    =     F    only Hartree local field effects (RPA)
   LNABLA  =     F    use nabla operator in PAW spheres
   LVEL    =     F    velocity operator in full k-point grid
   CSHIFT  =0.1000    complex shift for real part using Kramers Kronig
   OMEGAMAX=  -1.0    maximum frequency
   DEG_THRESHOLD= 0.2000000E-02 threshold for treating states as degnerate
   RTIME   =   -0.100 relaxation time in fs
  (WPLASMAI=    0.000 imaginary part of plasma frequency in eV, 0.658/RTIME)
   DFIELD  = 0.0000000 0.0000000 0.0000000 field for delta impulse in time
 
  Optional k-point grid parameters
   LKPOINTS_OPT  =     F    use optional k-point grid
   KPOINTS_OPT_MODE=     1    mode for optional k-point grid
 
 Orbital magnetization related:
   ORBITALMAG=     F  switch on orbital magnetization
   LCHIMAG   =     F  perturbation theory with respect to B field
   DQ        =  0.001000  dq finite difference perturbation B field
   LLRAUG    =     F  two centre corrections for induced B field
   LBONE     =     F  B-component reconstruction in AE one-centre
   LVGVCALC  =     T  calculate vGv susceptibility
   LVGVAPPL  =     F  apply vGv susceptibility instead of pGv for G=0

 Random number generation:
   RANDOM_GENERATOR = DEFAULT
   PCG_SEED         = not used
 Solvation model:
   LSOL    =     T         switch on solvation model
   EB_K    = 35.688000     relative permittivity of the bulk solvent
   SIGMA_K =  0.600000     width of the dielectric cavity
   NC_K    =  0.002500     cutoff charge density
   TAU     =  0.000000     cavity surface tension
   LAMBDA_D_K    =  3.040000     Debye length in Angstroms
   LRHOB     =     F     write boundcharge  density
   LRHOION     =     F     write ioniccharge density



--------------------------------------------------------------------------------------------------------


 conjugate gradient relaxation of ions
   using selective dynamics as specified on POSCAR
 charge density and potential will be updated during run
 spin polarized calculation
 RMM-DIIS sequential band-by-band and
  variant of blocked Davidson during initial phase
 perform sub-space diagonalisation
    before iterative eigenvector-optimisation
 modified Broyden-mixing scheme, WC =      100.0
 initial mixing is a Kerker type mixing with AMIX =  0.4000 and BMIX =      1.0000
 Hartree-type preconditioning will be used
 using additional bands           25
 real space projection scheme for non local part
 use partial core corrections
 calculate Harris-corrections to forces 
   (improved forces if not selfconsistent)
 use gradient corrections 
 use of overlap-Matrix (Vanderbilt PP)
 Gauss-broadening in eV      SIGMA  =   0.05


--------------------------------------------------------------------------------------------------------


  energy-cutoff  :      500.00
  volume of cell :    64000.00
      direct lattice vectors                 reciprocal lattice vectors
    40.000000000  0.000000000  0.000000000     0.025000000  0.000000000  0.000000000
     0.000000000 40.000000000  0.000000000     0.000000000  0.025000000  0.000000000
     0.000000000  0.000000000 40.000000000     0.000000000  0.000000000  0.025000000

  length of vectors
    40.000000000 40.000000000 40.000000000     0.025000000  0.025000000  0.025000000


 
 old parameters found on file WAVECAR:
  energy-cutoff  :      500.00
  volume of cell :    64000.00
      direct lattice vectors                 reciprocal lattice vectors
    40.000000000  0.000000000  0.000000000     0.025000000  0.000000000  0.000000000
     0.000000000 40.000000000  0.000000000     0.000000000  0.025000000  0.000000000
     0.000000000  0.000000000 40.000000000     0.000000000  0.000000000  0.025000000

  length of vectors

 
 k-points in units of 2pi/SCALE and weight: K-Point Grid                            
   0.00000000  0.00000000  0.00000000       1.000
 
 k-points in reciprocal lattice and weights: K-Point Grid                            
   0.00000000  0.00000000  0.00000000       1.000
 
 position of ions in fractional coordinates (direct lattice) 
   0.51034890  0.47651333  0.49998986
   0.54527565  0.47586198  0.49999662
   0.56337235  0.50578673  0.50000534
   0.54646247  0.53646911  0.50000279
   0.51165247  0.53713435  0.49999447
   0.49314820  0.50720665  0.49999562
   0.45576204  0.50917139  0.49999266
   0.43571006  0.47720855  0.50000394
   0.44149760  0.53665532  0.49999740
   0.40900236  0.48322307  0.50000486
   0.44168945  0.46197528  0.52210523
   0.44168488  0.46196610  0.47790887
   0.49815950  0.56082185  0.49999476
   0.56050987  0.55983423  0.50000751
   0.59064561  0.50525636  0.50001361
   0.55842411  0.45197140  0.50000026
   0.49665547  0.45294430  0.49998521
 
 position of ions in cartesian coordinates  (Angst):
  20.41395610 19.06053307 19.99959423
  21.81102610 19.03447925 19.99986468
  22.53489392 20.23146937 20.00021353
  21.85849877 21.45876455 20.00011151
  20.46609899 21.48537392 19.99977861
  19.72592811 20.28826588 19.99982495
  18.23048160 20.36685558 19.99970656
  17.42840239 19.08834192 20.00015778
  17.65990387 21.46621279 19.99989594
  16.36009440 19.32892288 20.00019459
  17.66757786 18.47901133 20.88420925
  17.66739519 18.47864403 19.11635465
  19.92638016 22.43287414 19.99979023
  22.42039496 22.39336912 20.00030024
  23.62582444 20.21025439 20.00054447
  22.33696431 18.07885582 20.00001045
  19.86621884 18.11777196 19.99940832
 


--------------------------------------------------------------------------------------------------------


 k-point   1 :   0.0000 0.0000 0.0000  plane waves: 1624525

 maximum and minimum number of plane-waves per node :    162473   162437

 maximum number of plane-waves:   1624525
 maximum index in each direction: 
   IXMAX=   72   IYMAX=   72   IZMAX=   72
   IXMIN=  -72   IYMIN=  -72   IZMIN=  -72


 real space projection operators:
  total allocation   :       1895.38 KBytes
  max/ min on nodes  :        192.97        183.14


 parallel 3D FFT for wavefunctions:
    minimum data exchange during FFTs selected (reduces bandwidth)
 parallel 3D FFT for charge:
    minimum data exchange during FFTs selected (reduces bandwidth)


 total amount of memory used by VASP MPI-rank0   892143. kBytes
=======================================================================

   base      :      30000. kBytes
   nonlr-proj:       1072. kBytes
   fftplans  :     167689. kBytes
   grid      :     662171. kBytes
   one-center:         12. kBytes
   wavefun   :      31199. kBytes
 
     INWAV:  cpu time      8.6714: real time      8.6918
 Broyden mixing: mesh for mixing (old mesh)
   NGX =145   NGY =145   NGZ =145
  (NGX  =588   NGY  =588   NGZ  =588)
  gives a total of ****** points

 initial charge density was supplied:
 charge density of overlapping atoms calculated
 number of electron      46.0000000 magnetization      17.0000000
 keeping initial charge density in first step


--------------------------------------------------------------------------------------------------------


 Maximum index for non-local projection operator          320
 Maximum index for augmentation-charges          337 (set IRDMAX)


--------------------------------------------------------------------------------------------------------


 First call to EWALD:  gamma=   0.044
 Maximum number of real-space cells 3x 3x 3
 Maximum number of reciprocal cells 3x 3x 3

    FEWALD:  cpu time      0.0016: real time      0.0016


--------------------------------------- Ionic step        1  -------------------------------------------




--------------------------------------- Iteration      1(   1)  ---------------------------------------


    POTLOK:  cpu time    116.9766: real time    117.2478
    SETDIJ:  cpu time      0.3811: real time      0.3819
     EDDAV:  cpu time     55.5569: real time     55.6797
       DOS:  cpu time      0.0057: real time      0.0057
    CHARGE:  cpu time      6.4815: real time      6.4962
    MIXING:  cpu time      0.1185: real time      0.1185
    --------------------------------------------
      LOOP:  cpu time    179.5204: real time    179.9299

 eigenvalue-minimisations  :   256
 total energy-change (2. order) :-0.1138088E+03  (-0.6508731E+01)
 number of electron      46.0000004 magnetization      16.3450277
 augmentation part        1.6450323 magnetization      16.3776438

 Broyden mixing:
  rms(total) = 0.26308E+01    rms(broyden)= 0.26304E+01
  rms(prec ) = 0.26555E+01
  weight for this iteration     100.00

 Free energy of the ion-electron system (eV)
  ---------------------------------------------------
  alpha Z        PSCENC =         0.14873945
  Ewald energy   TEWEN  =      4480.93234997
  -Hartree energ DENC   =     -5653.97783688
  -exchange      EXHF   =         0.00000000
  -V(xc)+E(xc)   XCENC  =       182.00156393
  PAW double counting   =      1200.34628455    -1219.93246077
  entropy T*S    EENTRO =        -0.00000000
  eigenvalues    EBANDS =      -805.10734959
  atomic energy  EATOM  =      1709.43524699
  Solvation  Ediel_sol  =        -7.65531428
  ---------------------------------------------------
  free energy    TOTEN  =      -113.80877662 eV

  energy without entropy =     -113.80877662  energy(sigma->0) =     -113.80877662


--------------------------------------------------------------------------------------------------------




--------------------------------------- Iteration      1(   2)  ---------------------------------------


    POTLOK:  cpu time    114.2706: real time    114.5450
    SETDIJ:  cpu time      0.3799: real time      0.3807
    EDDIAG:  cpu time     11.3862: real time     11.4128
  RMM-DIIS:  cpu time     64.9814: real time     65.1183
    ORTHCH:  cpu time      0.1360: real time      0.1363
       DOS:  cpu time      0.0007: real time      0.0007
    CHARGE:  cpu time      6.6678: real time      6.6832
    MIXING:  cpu time      0.1018: real time      0.1018
    --------------------------------------------
      LOOP:  cpu time    197.9245: real time    198.3788

 eigenvalue-minimisations  :   198
 total energy-change (2. order) : 0.1458404E+02  (-0.6661594E+01)
 number of electron      46.0000004 magnetization      15.6415788
 augmentation part        1.6078908 magnetization      15.5839149

 Broyden mixing:
  rms(total) = 0.12490E+01    rms(broyden)= 0.12489E+01
  rms(prec ) = 0.12672E+01
  weight for this iteration     100.00

 eigenvalues of (default mixing * dielectric matrix)
  average eigenvalue GAMMA=   0.9535
  0.9535

 Free energy of the ion-electron system (eV)
  ---------------------------------------------------
  alpha Z        PSCENC =         0.14873945
  Ewald energy   TEWEN  =      4480.93234997
  -Hartree energ DENC   =     -5741.78075234
  -exchange      EXHF   =         0.00000000
  -V(xc)+E(xc)   XCENC  =       197.18467820
  PAW double counting   =      2025.00518238    -2045.53656166
  entropy T*S    EENTRO =        -0.00000000
  eigenvalues    EBANDS =      -709.99404840
  atomic energy  EATOM  =      1709.43524699
  Solvation  Ediel_sol  =       -14.61957423
  ---------------------------------------------------
  free energy    TOTEN  =       -99.22473964 eV

  energy without entropy =      -99.22473964  energy(sigma->0) =      -99.22473964


--------------------------------------------------------------------------------------------------------




--------------------------------------- Iteration      1(   3)  ---------------------------------------


    POTLOK:  cpu time    111.6939: real time    111.9524
    SETDIJ:  cpu time      0.3783: real time      0.3789
    EDDIAG:  cpu time     11.3804: real time     11.4054
  RMM-DIIS:  cpu time     69.1613: real time     69.3107
    ORTHCH:  cpu time      0.1578: real time      0.1582
       DOS:  cpu time      0.0004: real time      0.0004
    CHARGE:  cpu time      6.6023: real time      6.6215
    MIXING:  cpu time      0.1224: real time      0.1225
    --------------------------------------------
      LOOP:  cpu time    199.4968: real time    199.9501

 eigenvalue-minimisations  :   210
 total energy-change (2. order) :-0.1713368E+02  (-0.2709131E+01)
 number of electron      46.0000004 magnetization      14.7609762
 augmentation part        1.5737279 magnetization      14.6849542

 Broyden mixing:
  rms(total) = 0.76708E+00    rms(broyden)= 0.76704E+00
  rms(prec ) = 0.77445E+00
  weight for this iteration     100.00

 eigenvalues of (default mixing * dielectric matrix)
  average eigenvalue GAMMA=   1.1270
  0.7941  1.4600

 Free energy of the ion-electron system (eV)
  ---------------------------------------------------
  alpha Z        PSCENC =         0.14873945
  Ewald energy   TEWEN  =      4480.93234997
  -Hartree energ DENC   =     -5804.41951786
  -exchange      EXHF   =         0.00000000
  -V(xc)+E(xc)   XCENC  =       186.79999866
  PAW double counting   =      2763.48928996    -2784.50735142
  entropy T*S    EENTRO =        -0.00000000
  eigenvalues    EBANDS =      -648.12485117
  atomic energy  EATOM  =      1709.43524699
  Solvation  Ediel_sol  =       -20.11232229
  ---------------------------------------------------
  free energy    TOTEN  =      -116.35841770 eV

  energy without entropy =     -116.35841770  energy(sigma->0) =     -116.35841770


--------------------------------------------------------------------------------------------------------




--------------------------------------- Iteration      1(   4)  ---------------------------------------


    POTLOK:  cpu time    114.5909: real time    114.8453
    SETDIJ:  cpu time      0.3804: real time      0.3811
    EDDIAG:  cpu time     11.3647: real time     11.3924
  RMM-DIIS:  cpu time     80.2057: real time     80.3745
    ORTHCH:  cpu time      0.1358: real time      0.1361
       DOS:  cpu time      0.0003: real time      0.0003
    CHARGE:  cpu time      6.6210: real time      6.6352
    MIXING:  cpu time      0.1162: real time      0.1163
    --------------------------------------------
      LOOP:  cpu time    213.4150: real time    213.8811

 eigenvalue-minimisations  :   261
 total energy-change (2. order) :-0.4836014E+01  (-0.1121007E+01)
 number of electron      46.0000003 magnetization      13.8886929
 augmentation part        1.5497914 magnetization      13.8255016

 Broyden mixing:
  rms(total) = 0.48765E+00    rms(broyden)= 0.48761E+00
  rms(prec ) = 0.49121E+00
  weight for this iteration     100.00

 eigenvalues of (default mixing * dielectric matrix)
  average eigenvalue GAMMA=   1.2387
  1.8720  1.1370  0.7070

 Free energy of the ion-electron system (eV)
  ---------------------------------------------------
  alpha Z        PSCENC =         0.14873945
  Ewald energy   TEWEN  =      4480.93234997
  -Hartree energ DENC   =     -5848.65504865
  -exchange      EXHF   =         0.00000000
  -V(xc)+E(xc)   XCENC  =       185.54512306
  PAW double counting   =      3474.31084959    -3495.39920420
  entropy T*S    EENTRO =        -0.00000000
  eigenvalues    EBANDS =      -603.95091030
  atomic energy  EATOM  =      1709.43524699
  Solvation  Ediel_sol  =       -23.56157805
  ---------------------------------------------------
  free energy    TOTEN  =      -121.19443212 eV

  energy without entropy =     -121.19443212  energy(sigma->0) =     -121.19443212


--------------------------------------------------------------------------------------------------------




--------------------------------------- Iteration      1(   5)  ---------------------------------------


    POTLOK:  cpu time    114.6466: real time    114.9133
    SETDIJ:  cpu time      0.3813: real time      0.3821
    EDDIAG:  cpu time     11.3374: real time     11.3642
  RMM-DIIS:  cpu time     85.0639: real time     85.2421
    ORTHCH:  cpu time      0.1392: real time      0.1396
       DOS:  cpu time      0.0007: real time      0.0007
    CHARGE:  cpu time      6.6384: real time      6.6555
    MIXING:  cpu time      0.1155: real time      0.1156
    --------------------------------------------
      LOOP:  cpu time    218.3231: real time    218.8132

 eigenvalue-minimisations  :   284
 total energy-change (2. order) :-0.2123696E+01  (-0.2237758E+00)
 number of electron      46.0000003 magnetization      12.8141095
 augmentation part        1.5450994 magnetization      12.7628721

 Broyden mixing:
  rms(total) = 0.30754E+00    rms(broyden)= 0.30753E+00
  rms(prec ) = 0.30961E+00
  weight for this iteration     100.00

 eigenvalues of (default mixing * dielectric matrix)
  average eigenvalue GAMMA=   1.3596
  2.3904  1.5308  0.8608  0.6566

 Free energy of the ion-electron system (eV)
  ---------------------------------------------------
  alpha Z        PSCENC =         0.14873945
  Ewald energy   TEWEN  =      4480.93234997
  -Hartree energ DENC   =     -5860.76790847
  -exchange      EXHF   =         0.00000000
  -V(xc)+E(xc)   XCENC  =       184.47961055
  PAW double counting   =      3819.31313428    -3840.29443421
  entropy T*S    EENTRO =        -0.00000000
  eigenvalues    EBANDS =      -594.91984165
  atomic energy  EATOM  =      1709.43524699
  Solvation  Ediel_sol  =       -21.64502506
  ---------------------------------------------------
  free energy    TOTEN  =      -123.31812815 eV

  energy without entropy =     -123.31812815  energy(sigma->0) =     -123.31812815


--------------------------------------------------------------------------------------------------------




--------------------------------------- Iteration      1(   6)  ---------------------------------------


    POTLOK:  cpu time    113.1602: real time    113.4215
    SETDIJ:  cpu time      0.3794: real time      0.3803
    EDDIAG:  cpu time     11.3675: real time     11.3936
  RMM-DIIS:  cpu time     83.6160: real time     83.7941
    ORTHCH:  cpu time      0.1354: real time      0.1358
       DOS:  cpu time      0.0013: real time      0.0013
    CHARGE:  cpu time      6.6347: real time      6.6532
    MIXING:  cpu time      0.1805: real time      0.1808
    --------------------------------------------
      LOOP:  cpu time    215.4752: real time    215.9607

 eigenvalue-minimisations  :   278
 total energy-change (2. order) :-0.1736925E+01  (-0.1539734E+00)
 number of electron      46.0000003 magnetization      12.0739086
 augmentation part        1.5361784 magnetization      12.0363786

 Broyden mixing:
  rms(total) = 0.18751E+00    rms(broyden)= 0.18750E+00
  rms(prec ) = 0.18861E+00
  weight for this iteration     100.00

 eigenvalues of (default mixing * dielectric matrix)
  average eigenvalue GAMMA=   1.4022
  2.8348  1.7268  1.0507  0.7703  0.6282

 Free energy of the ion-electron system (eV)
  ---------------------------------------------------
  alpha Z        PSCENC =         0.14873945
  Ewald energy   TEWEN  =      4480.93234997
  -Hartree energ DENC   =     -5868.91469968
  -exchange      EXHF   =         0.00000000
  -V(xc)+E(xc)   XCENC  =       183.41168188
  PAW double counting   =      4061.90800794    -4082.72225178
  entropy T*S    EENTRO =        -0.00000000
  eigenvalues    EBANDS =      -592.52158392
  atomic energy  EATOM  =      1709.43524699
  Solvation  Ediel_sol  =       -16.73254440
  ---------------------------------------------------
  free energy    TOTEN  =      -125.05505353 eV

  energy without entropy =     -125.05505353  energy(sigma->0) =     -125.05505353


--------------------------------------------------------------------------------------------------------




--------------------------------------- Iteration      1(   7)  ---------------------------------------


    POTLOK:  cpu time    107.8502: real time    108.1011
    SETDIJ:  cpu time      0.3810: real time      0.3818
    EDDIAG:  cpu time     11.3714: real time     11.3998
  RMM-DIIS:  cpu time     86.1095: real time     86.2924
    ORTHCH:  cpu time      0.1330: real time      0.1333
       DOS:  cpu time      0.0010: real time      0.0010
    CHARGE:  cpu time      6.5126: real time      6.5263
    MIXING:  cpu time      0.1200: real time      0.1200
    --------------------------------------------
      LOOP:  cpu time    212.4787: real time    212.9558

 eigenvalue-minimisations  :   284
 total energy-change (2. order) : 0.3949274E+00  (-0.6646063E-01)
 number of electron      46.0000003 magnetization      10.9811371
 augmentation part        1.5304723 magnetization      10.9486897

 Broyden mixing:
  rms(total) = 0.15006E+00    rms(broyden)= 0.15006E+00
  rms(prec ) = 0.15089E+00
  weight for this iteration     100.00

 eigenvalues of (default mixing * dielectric matrix)
  average eigenvalue GAMMA=   1.3711
  2.9849  1.9396  0.9562  0.9562  0.7505  0.6390

 Free energy of the ion-electron system (eV)
  ---------------------------------------------------
  alpha Z        PSCENC =         0.14873945
  Ewald energy   TEWEN  =      4480.93234997
  -Hartree energ DENC   =     -5871.77259593
  -exchange      EXHF   =         0.00000000
  -V(xc)+E(xc)   XCENC  =       183.96070392
  PAW double counting   =      4096.29069206    -4117.05463151
  entropy T*S    EENTRO =        -0.00000000
  eigenvalues    EBANDS =      -593.78666615
  atomic energy  EATOM  =      1709.43524699
  Solvation  Ediel_sol  =       -12.81396498
  ---------------------------------------------------
  free energy    TOTEN  =      -124.66012618 eV

  energy without entropy =     -124.66012618  energy(sigma->0) =     -124.66012618


--------------------------------------------------------------------------------------------------------




--------------------------------------- Iteration      1(   8)  ---------------------------------------


    POTLOK:  cpu time    105.9372: real time    106.1968
    SETDIJ:  cpu time      0.3789: real time      0.3796
    EDDIAG:  cpu time     11.1756: real time     11.2024
  RMM-DIIS:  cpu time     83.4680: real time     83.6506
    ORTHCH:  cpu time      0.1363: real time      0.1367
       DOS:  cpu time      0.0004: real time      0.0004
    CHARGE:  cpu time      6.5150: real time      6.5287
    MIXING:  cpu time      0.1359: real time      0.1360
    --------------------------------------------
      LOOP:  cpu time    207.7472: real time    208.2312

 eigenvalue-minimisations  :   282
 total energy-change (2. order) : 0.1453426E+01  (-0.5341053E-01)
 number of electron      46.0000003 magnetization       9.0459199
 augmentation part        1.5272814 magnetization       9.0193734

 Broyden mixing:
  rms(total) = 0.10973E+00    rms(broyden)= 0.10973E+00
  rms(prec ) = 0.11021E+00
  weight for this iteration     100.00

 eigenvalues of (default mixing * dielectric matrix)
  average eigenvalue GAMMA=   1.7200
  4.5835  2.6066  1.6274  1.1076  0.7832  0.7087  0.6231

 Free energy of the ion-electron system (eV)
  ---------------------------------------------------
  alpha Z        PSCENC =         0.14873945
  Ewald energy   TEWEN  =      4480.93234997
  -Hartree energ DENC   =     -5873.27498581
  -exchange      EXHF   =         0.00000000
  -V(xc)+E(xc)   XCENC  =       185.29528083
  PAW double counting   =      4074.28431629    -4095.00103931
  entropy T*S    EENTRO =        -0.00000000
  eigenvalues    EBANDS =      -597.49908935
  atomic energy  EATOM  =      1709.43524699
  Solvation  Ediel_sol  =        -7.52751900
  ---------------------------------------------------
  free energy    TOTEN  =      -123.20669994 eV

  energy without entropy =     -123.20669994  energy(sigma->0) =     -123.20669994


--------------------------------------------------------------------------------------------------------




--------------------------------------- Iteration      1(   9)  ---------------------------------------


    POTLOK:  cpu time    109.0284: real time    109.2963
    SETDIJ:  cpu time      0.3797: real time      0.3805
    EDDIAG:  cpu time     11.2255: real time     11.2500
  RMM-DIIS:  cpu time     84.2173: real time     84.4004
    ORTHCH:  cpu time      0.1368: real time      0.1371
       DOS:  cpu time      0.0009: real time      0.0009
    CHARGE:  cpu time      6.5809: real time      6.5999
    MIXING:  cpu time      0.1421: real time      0.1422
    --------------------------------------------
      LOOP:  cpu time    211.7116: real time    212.2073

 eigenvalue-minimisations  :   284
 total energy-change (2. order) : 0.1738658E+01  (-0.4129740E-01)
 number of electron      46.0000003 magnetization       8.4261238
 augmentation part        1.5270337 magnetization       8.4056199

 Broyden mixing:
  rms(total) = 0.67013E-01    rms(broyden)= 0.67008E-01
  rms(prec ) = 0.67415E-01
  weight for this iteration     100.00

 eigenvalues of (default mixing * dielectric matrix)
  average eigenvalue GAMMA=   1.6963
  5.1654  2.5984  1.8074  0.8956  0.8956  0.8919  0.6093  0.7067

 Free energy of the ion-electron system (eV)
  ---------------------------------------------------
  alpha Z        PSCENC =         0.14873945
  Ewald energy   TEWEN  =      4480.93234997
  -Hartree energ DENC   =     -5877.16568153
  -exchange      EXHF   =         0.00000000
  -V(xc)+E(xc)   XCENC  =       186.92061913
  PAW double counting   =      4050.76747411    -4071.44384444
  entropy T*S    EENTRO =        -0.00000000
  eigenvalues    EBANDS =      -601.11588151
  atomic energy  EATOM  =      1709.43524699
  Solvation  Ediel_sol  =         0.05293618
  ---------------------------------------------------
  free energy    TOTEN  =      -121.46804164 eV

  energy without entropy =     -121.46804164  energy(sigma->0) =     -121.46804164


--------------------------------------------------------------------------------------------------------




--------------------------------------- Iteration      1(  10)  ---------------------------------------


    POTLOK:  cpu time    101.7378: real time    101.9788
    SETDIJ:  cpu time      0.4160: real time      0.4167
    EDDIAG:  cpu time     11.3456: real time     11.3719
  RMM-DIIS:  cpu time     86.8294: real time     87.0133
    ORTHCH:  cpu time      0.1330: real time      0.1333
       DOS:  cpu time      0.0003: real time      0.0003
    CHARGE:  cpu time      6.6721: real time      6.6862
    MIXING:  cpu time      0.1423: real time      0.1422
    --------------------------------------------
      LOOP:  cpu time    207.2765: real time    207.7427

 eigenvalue-minimisations  :   284
 total energy-change (2. order) : 0.6036840E+00  (-0.1669989E-01)
 number of electron      46.0000003 magnetization       7.5217110
 augmentation part        1.5244046 magnetization       7.5040133

 Broyden mixing:
  rms(total) = 0.52217E-01    rms(broyden)= 0.52215E-01
  rms(prec ) = 0.52418E-01
  weight for this iteration     100.00

 eigenvalues of (default mixing * dielectric matrix)
  average eigenvalue GAMMA=   1.7879
  6.4175  2.5484  2.0434  1.3123  0.9685  0.7701  0.7104  0.7104  0.6102

 Free energy of the ion-electron system (eV)
  ---------------------------------------------------
  alpha Z        PSCENC =         0.14873945
  Ewald energy   TEWEN  =      4480.93234997
  -Hartree energ DENC   =     -5879.54206954
  -exchange      EXHF   =         0.00000000
  -V(xc)+E(xc)   XCENC  =       187.63056257
  PAW double counting   =      4053.91076692    -4074.61607729
  entropy T*S    EENTRO =        -0.00000000
  eigenvalues    EBANDS =      -599.56545857
  atomic energy  EATOM  =      1709.43524699
  Solvation  Ediel_sol  =         0.80158181
  ---------------------------------------------------
  free energy    TOTEN  =      -120.86435768 eV

  energy without entropy =     -120.86435768  energy(sigma->0) =     -120.86435768


--------------------------------------------------------------------------------------------------------




--------------------------------------- Iteration      1(  11)  ---------------------------------------


    POTLOK:  cpu time    102.3398: real time    102.5775
    SETDIJ:  cpu time      0.3891: real time      0.3898
    EDDIAG:  cpu time     11.3189: real time     11.3433
  RMM-DIIS:  cpu time     86.6443: real time     86.8401
    ORTHCH:  cpu time      0.1369: real time      0.1373
       DOS:  cpu time      0.0007: real time      0.0007
    CHARGE:  cpu time      6.6330: real time      6.6467
    MIXING:  cpu time      0.2202: real time      0.2206
    --------------------------------------------
      LOOP:  cpu time    207.6830: real time    208.1561

 eigenvalue-minimisations  :   284
 total energy-change (2. order) : 0.8979497E+00  (-0.1244773E-01)
 number of electron      46.0000003 magnetization       6.5766573
 augmentation part        1.5230836 magnetization       6.5619316

 Broyden mixing:
  rms(total) = 0.38815E-01    rms(broyden)= 0.38813E-01
  rms(prec ) = 0.38933E-01
  weight for this iteration     100.00

 eigenvalues of (default mixing * dielectric matrix)
  average eigenvalue GAMMA=   1.9049
  7.6162  2.6594  2.2413  1.7392  0.9617  0.9617  0.8219  0.6224  0.7125  0.7125

 Free energy of the ion-electron system (eV)
  ---------------------------------------------------
  alpha Z        PSCENC =         0.14873945
  Ewald energy   TEWEN  =      4480.93234997
  -Hartree energ DENC   =     -5880.74417887
  -exchange      EXHF   =         0.00000000
  -V(xc)+E(xc)   XCENC  =       188.53116291
  PAW double counting   =      4047.67306511    -4068.38971101
  entropy T*S    EENTRO =        -0.00000000
  eigenvalues    EBANDS =      -599.58188580
  atomic energy  EATOM  =      1709.43524699
  Solvation  Ediel_sol  =         2.02880321
  ---------------------------------------------------
  free energy    TOTEN  =      -119.96640802 eV

  energy without entropy =     -119.96640802  energy(sigma->0) =     -119.96640802


--------------------------------------------------------------------------------------------------------




--------------------------------------- Iteration      1(  12)  ---------------------------------------


    POTLOK:  cpu time    101.0733: real time    101.3066
    SETDIJ:  cpu time      0.4195: real time      0.4203
    EDDIAG:  cpu time     11.3162: real time     11.3417
  RMM-DIIS:  cpu time     85.0914: real time     85.2742
    ORTHCH:  cpu time      0.1469: real time      0.1473
       DOS:  cpu time      0.0007: real time      0.0007
    CHARGE:  cpu time      6.6608: real time      6.6745
    MIXING:  cpu time      0.1637: real time      0.1638
    --------------------------------------------
      LOOP:  cpu time    204.8724: real time    205.3291

 eigenvalue-minimisations  :   284
 total energy-change (2. order) : 0.9011160E+00  (-0.6013308E-02)
 number of electron      46.0000003 magnetization       5.7669248
 augmentation part        1.5222324 magnetization       5.7546042

 Broyden mixing:
  rms(total) = 0.30534E-01    rms(broyden)= 0.30532E-01
  rms(prec ) = 0.30619E-01
  weight for this iteration     100.00

 eigenvalues of (default mixing * dielectric matrix)
  average eigenvalue GAMMA=   1.9604
  8.3413  3.1059  2.3364  1.9759  1.1701  0.9209  0.9209  0.7615  0.7615  0.6248
  0.6453

 Free energy of the ion-electron system (eV)
  ---------------------------------------------------
  alpha Z        PSCENC =         0.14873945
  Ewald energy   TEWEN  =      4480.93234997
  -Hartree energ DENC   =     -5880.83062076
  -exchange      EXHF   =         0.00000000
  -V(xc)+E(xc)   XCENC  =       189.40818426
  PAW double counting   =      4040.86829244    -4061.58680670
  entropy T*S    EENTRO =        -0.00000000
  eigenvalues    EBANDS =      -600.16462826
  atomic energy  EATOM  =      1709.43524699
  Solvation  Ediel_sol  =         2.72395057
  ---------------------------------------------------
  free energy    TOTEN  =      -119.06529204 eV

  energy without entropy =     -119.06529204  energy(sigma->0) =     -119.06529204


--------------------------------------------------------------------------------------------------------




--------------------------------------- Iteration      1(  13)  ---------------------------------------


    POTLOK:  cpu time    100.9734: real time    101.2061
    SETDIJ:  cpu time      0.3830: real time      0.3837
    EDDIAG:  cpu time     11.4234: real time     11.4485
  RMM-DIIS:  cpu time     86.5906: real time     86.7736
    ORTHCH:  cpu time      0.1383: real time      0.1386
       DOS:  cpu time      0.0026: real time      0.0026
    CHARGE:  cpu time      6.6402: real time      6.6545
    MIXING:  cpu time      0.1713: real time      0.1714
    --------------------------------------------
      LOOP:  cpu time    206.3227: real time    206.7791

 eigenvalue-minimisations  :   284
 total energy-change (2. order) : 0.6725451E+00  ( 0.3918834E-02)
 number of electron      46.0000003 magnetization       4.7358056
 augmentation part        1.5223181 magnetization       4.7245567

 Broyden mixing:
  rms(total) = 0.24978E-01    rms(broyden)= 0.24977E-01
  rms(prec ) = 0.25025E-01
  weight for this iteration     100.00

 eigenvalues of (default mixing * dielectric matrix)
  average eigenvalue GAMMA=   2.0420
  8.9534  3.8367  2.5177  1.9791  1.6183  0.9769  0.9516  0.8925  0.7548  0.7548
  0.6235  0.6444

 Free energy of the ion-electron system (eV)
  ---------------------------------------------------
  alpha Z        PSCENC =         0.14873945
  Ewald energy   TEWEN  =      4480.93234997
  -Hartree energ DENC   =     -5880.30730231
  -exchange      EXHF   =         0.00000000
  -V(xc)+E(xc)   XCENC  =       190.05126426
  PAW double counting   =      4042.36865664    -4063.08310024
  entropy T*S    EENTRO =        -0.00000000
  eigenvalues    EBANDS =      -600.66946172
  atomic energy  EATOM  =      1709.43524699
  Solvation  Ediel_sol  =         2.73086006
  ---------------------------------------------------
  free energy    TOTEN  =      -118.39274689 eV

  energy without entropy =     -118.39274689  energy(sigma->0) =     -118.39274689


--------------------------------------------------------------------------------------------------------




--------------------------------------- Iteration      1(  14)  ---------------------------------------


    POTLOK:  cpu time    100.9535: real time    101.1953
    SETDIJ:  cpu time      0.3809: real time      0.3816
    EDDIAG:  cpu time     11.3824: real time     11.4093
  RMM-DIIS:  cpu time     84.9210: real time     85.1044
    ORTHCH:  cpu time      0.1332: real time      0.1335
       DOS:  cpu time      0.0016: real time      0.0016
    CHARGE:  cpu time      6.6142: real time      6.6409
    MIXING:  cpu time      0.1865: real time      0.1868
    --------------------------------------------
      LOOP:  cpu time    204.5733: real time    205.0534

 eigenvalue-minimisations  :   284
 total energy-change (2. order) : 0.7126451E+00  ( 0.2122769E-02)
 number of electron      46.0000003 magnetization       4.0403890
 augmentation part        1.5214287 magnetization       4.0301050

 Broyden mixing:
  rms(total) = 0.20158E-01    rms(broyden)= 0.20157E-01
  rms(prec ) = 0.20201E-01
  weight for this iteration     100.00

 eigenvalues of (default mixing * dielectric matrix)
  average eigenvalue GAMMA=   2.1292
  9.7083  4.8400  2.6593  2.2774  1.7434  1.1206  0.9512  0.8153  0.8153  0.8189
  0.6371  0.6371  0.6562

 Free energy of the ion-electron system (eV)
  ---------------------------------------------------
  alpha Z        PSCENC =         0.14873945
  Ewald energy   TEWEN  =      4480.93234997
  -Hartree energ DENC   =     -5879.67561681
  -exchange      EXHF   =         0.00000000
  -V(xc)+E(xc)   XCENC  =       190.74013924
  PAW double counting   =      4049.51903828    -4070.22849652
  entropy T*S    EENTRO =        -0.00000000
  eigenvalues    EBANDS =      -601.09232252
  atomic energy  EATOM  =      1709.43524699
  Solvation  Ediel_sol  =         2.54082016
  ---------------------------------------------------
  free energy    TOTEN  =      -117.68010174 eV

  energy without entropy =     -117.68010174  energy(sigma->0) =     -117.68010174


--------------------------------------------------------------------------------------------------------




--------------------------------------- Iteration      1(  15)  ---------------------------------------


    POTLOK:  cpu time     97.1015: real time     97.3301
    SETDIJ:  cpu time      0.3803: real time      0.3810
    EDDIAG:  cpu time     11.3828: real time     11.4077
  RMM-DIIS:  cpu time     85.0179: real time     85.1961
    ORTHCH:  cpu time      0.1334: real time      0.1337
       DOS:  cpu time      0.0020: real time      0.0020
    CHARGE:  cpu time      6.6601: real time      6.6734
    MIXING:  cpu time      0.1860: real time      0.1862
    --------------------------------------------
      LOOP:  cpu time    200.8640: real time    201.3103

 eigenvalue-minimisations  :   284
 total energy-change (2. order) : 0.3824181E+00  (-0.5052813E-03)
 number of electron      46.0000003 magnetization       3.3195103
 augmentation part        1.5214764 magnetization       3.3103711

 Broyden mixing:
  rms(total) = 0.17392E-01    rms(broyden)= 0.17391E-01
  rms(prec ) = 0.17418E-01
  weight for this iteration     100.00

 eigenvalues of (default mixing * dielectric matrix)
  average eigenvalue GAMMA=   2.1431
 10.2348  5.4113  2.8044  2.3327  1.6831  1.3100  0.9377  0.9377  0.9720  0.7294
  0.7294  0.6696  0.6256  0.6256

 Free energy of the ion-electron system (eV)
  ---------------------------------------------------
  alpha Z        PSCENC =         0.14873945
  Ewald energy   TEWEN  =      4480.93234997
  -Hartree energ DENC   =     -5878.95961156
  -exchange      EXHF   =         0.00000000
  -V(xc)+E(xc)   XCENC  =       191.09419422
  PAW double counting   =      4052.72618572    -4073.42806975
  entropy T*S    EENTRO =        -0.00000000
  eigenvalues    EBANDS =      -601.67501148
  atomic energy  EATOM  =      1709.43524699
  Solvation  Ediel_sol  =         2.42829278
  ---------------------------------------------------
  free energy    TOTEN  =      -117.29768365 eV

  energy without entropy =     -117.29768365  energy(sigma->0) =     -117.29768365


--------------------------------------------------------------------------------------------------------




--------------------------------------- Iteration      1(  16)  ---------------------------------------


    POTLOK:  cpu time     94.5716: real time     94.7994
    SETDIJ:  cpu time      0.3779: real time      0.3787
    EDDIAG:  cpu time     11.1181: real time     11.1425
  RMM-DIIS:  cpu time     83.1419: real time     83.3252
    ORTHCH:  cpu time      0.1281: real time      0.1286
       DOS:  cpu time      0.0002: real time      0.0002
    CHARGE:  cpu time      6.5085: real time      6.5219
    MIXING:  cpu time      0.2675: real time      0.2678
    --------------------------------------------
      LOOP:  cpu time    196.1139: real time    196.5643

 eigenvalue-minimisations  :   284
 total energy-change (2. order) : 0.4042167E+00  (-0.2848748E-02)
 number of electron      46.0000003 magnetization       2.1516387
 augmentation part        1.5213290 magnetization       2.1437051

 Broyden mixing:
  rms(total) = 0.14710E-01    rms(broyden)= 0.14709E-01
  rms(prec ) = 0.14733E-01
  weight for this iteration     100.00

 eigenvalues of (default mixing * dielectric matrix)
  average eigenvalue GAMMA=   2.2240
 10.8404  6.0904  3.0818  2.2045  2.2045  1.7366  0.9795  0.9795  1.0070  0.7660
  0.7660  0.7799  0.6884  0.6176  0.6176

 Free energy of the ion-electron system (eV)
  ---------------------------------------------------
  alpha Z        PSCENC =         0.14873945
  Ewald energy   TEWEN  =      4480.93234997
  -Hartree energ DENC   =     -5878.45413905
  -exchange      EXHF   =         0.00000000
  -V(xc)+E(xc)   XCENC  =       191.48332438
  PAW double counting   =      4055.61255295    -4076.31094664
  entropy T*S    EENTRO =        -0.00000000
  eigenvalues    EBANDS =      -602.03114274
  atomic energy  EATOM  =      1709.43524699
  Solvation  Ediel_sol  =         2.29054776
  ---------------------------------------------------
  free energy    TOTEN  =      -116.89346692 eV

  energy without entropy =     -116.89346692  energy(sigma->0) =     -116.89346692


--------------------------------------------------------------------------------------------------------




--------------------------------------- Iteration      1(  17)  ---------------------------------------


    POTLOK:  cpu time     96.6734: real time     96.9047
    SETDIJ:  cpu time      0.3798: real time      0.3805
    EDDIAG:  cpu time     11.1483: real time     11.1750
  RMM-DIIS:  cpu time     84.5534: real time     84.7337
    ORTHCH:  cpu time      0.1405: real time      0.1409
       DOS:  cpu time      0.0004: real time      0.0004
    CHARGE:  cpu time      6.5912: real time      6.6110
    MIXING:  cpu time      0.2160: real time      0.2163
    --------------------------------------------
      LOOP:  cpu time    199.7029: real time    200.1626

 eigenvalue-minimisations  :   284
 total energy-change (2. order) : 0.6268610E+00  ( 0.2212201E-04)
 number of electron      46.0000003 magnetization       1.2905055
 augmentation part        1.5209364 magnetization       1.2833500

 Broyden mixing:
  rms(total) = 0.12080E-01    rms(broyden)= 0.12080E-01
  rms(prec ) = 0.12108E-01
  weight for this iteration     100.00

 eigenvalues of (default mixing * dielectric matrix)
  average eigenvalue GAMMA=   2.3268
 11.6565  6.9581  3.6672  2.6981  2.2926  1.6271  1.2609  1.0043  1.0043  0.9677
  0.7303  0.7303  0.7297  0.6652  0.6184  0.6184

 Free energy of the ion-electron system (eV)
  ---------------------------------------------------
  alpha Z        PSCENC =         0.14873945
  Ewald energy   TEWEN  =      4480.93234997
  -Hartree energ DENC   =     -5878.04109462
  -exchange      EXHF   =         0.00000000
  -V(xc)+E(xc)   XCENC  =       192.10373305
  PAW double counting   =      4058.11077644    -4078.81117662
  entropy T*S    EENTRO =        -0.00000000
  eigenvalues    EBANDS =      -602.21594864
  atomic energy  EATOM  =      1709.43524699
  Solvation  Ediel_sol  =         2.07076803
  ---------------------------------------------------
  free energy    TOTEN  =      -116.26660595 eV

  energy without entropy =     -116.26660595  energy(sigma->0) =     -116.26660595


--------------------------------------------------------------------------------------------------------




--------------------------------------- Iteration      1(  18)  ---------------------------------------


    POTLOK:  cpu time     96.0389: real time     96.2674
    SETDIJ:  cpu time      0.3861: real time      0.3869
    EDDIAG:  cpu time     11.2168: real time     11.2414
  RMM-DIIS:  cpu time     83.8712: real time     84.0497
    ORTHCH:  cpu time      0.1990: real time      0.1995
       DOS:  cpu time      0.0006: real time      0.0006
    CHARGE:  cpu time      6.5753: real time      6.5953
    MIXING:  cpu time      0.2277: real time      0.2281
    --------------------------------------------
      LOOP:  cpu time    198.5155: real time    198.9687

 eigenvalue-minimisations  :   283
 total energy-change (2. order) : 0.4057652E+00  (-0.3162506E-03)
 number of electron      46.0000003 magnetization       0.7018300
 augmentation part        1.5206187 magnetization       0.6949784

 Broyden mixing:
  rms(total) = 0.76669E-02    rms(broyden)= 0.76665E-02
  rms(prec ) = 0.77051E-02
  weight for this iteration     100.00

 eigenvalues of (default mixing * dielectric matrix)
  average eigenvalue GAMMA=   2.4778
 13.6064  8.1058  4.4343  2.6883  2.2426  1.6211  1.5532  1.0362  0.9715  0.9715
  0.8543  0.7251  0.7251  0.7173  0.6295  0.6199  0.6199

 Free energy of the ion-electron system (eV)
  ---------------------------------------------------
  alpha Z        PSCENC =         0.14873945
  Ewald energy   TEWEN  =      4480.93234997
  -Hartree energ DENC   =     -5877.90091795
  -exchange      EXHF   =         0.00000000
  -V(xc)+E(xc)   XCENC  =       192.51062134
  PAW double counting   =      4055.44775261    -4076.15157978
  entropy T*S    EENTRO =        -0.00000000
  eigenvalues    EBANDS =      -602.22153489
  atomic energy  EATOM  =      1709.43524699
  Solvation  Ediel_sol  =         1.93848147
  ---------------------------------------------------
  free energy    TOTEN  =      -115.86084078 eV

  energy without entropy =     -115.86084078  energy(sigma->0) =     -115.86084078


--------------------------------------------------------------------------------------------------------




--------------------------------------- Iteration      1(  19)  ---------------------------------------


    POTLOK:  cpu time     94.3327: real time     94.5491
    SETDIJ:  cpu time      0.3819: real time      0.3826
    EDDIAG:  cpu time     11.3809: real time     11.4142
  RMM-DIIS:  cpu time     87.0497: real time     87.2331
    ORTHCH:  cpu time      0.1339: real time      0.1342
       DOS:  cpu time      0.0011: real time      0.0011
    CHARGE:  cpu time      6.6222: real time      6.6499
    MIXING:  cpu time      0.2375: real time      0.2379
    --------------------------------------------
      LOOP:  cpu time    200.1399: real time    200.6021

 eigenvalue-minimisations  :   284
 total energy-change (2. order) : 0.2128467E+00  ( 0.7959795E-03)
 number of electron      46.0000003 magnetization       0.2840279
 augmentation part        1.5208721 magnetization       0.2773659

 Broyden mixing:
  rms(total) = 0.50506E-02    rms(broyden)= 0.50502E-02
  rms(prec ) = 0.50961E-02
  weight for this iteration     100.00

 eigenvalues of (default mixing * dielectric matrix)
  average eigenvalue GAMMA=   2.7653
 18.0627  9.0219  4.9724  2.5211  2.5211  2.1145  1.6371  1.2273  0.9801  0.9801
  0.9473  0.7330  0.7330  0.7271  0.7271  0.6375  0.6160  0.6160

 Free energy of the ion-electron system (eV)
  ---------------------------------------------------
  alpha Z        PSCENC =         0.14873945
  Ewald energy   TEWEN  =      4480.93234997
  -Hartree energ DENC   =     -5877.65559587
  -exchange      EXHF   =         0.00000000
  -V(xc)+E(xc)   XCENC  =       192.71777324
  PAW double counting   =      4056.37393551    -4077.07412952
  entropy T*S    EENTRO =        -0.00000000
  eigenvalues    EBANDS =      -602.36650426
  atomic energy  EATOM  =      1709.43524699
  Solvation  Ediel_sol  =         1.84019046
  ---------------------------------------------------
  free energy    TOTEN  =      -115.64799403 eV

  energy without entropy =     -115.64799403  energy(sigma->0) =     -115.64799403


--------------------------------------------------------------------------------------------------------




--------------------------------------- Iteration      1(  20)  ---------------------------------------


    POTLOK:  cpu time     94.4003: real time     94.6236
    SETDIJ:  cpu time      0.3803: real time      0.3810
    EDDIAG:  cpu time     11.3389: real time     11.3643
  RMM-DIIS:  cpu time     84.8946: real time     85.0757
    ORTHCH:  cpu time      0.1389: real time      0.1393
       DOS:  cpu time      0.0012: real time      0.0012
    CHARGE:  cpu time      6.6129: real time      6.6265
    MIXING:  cpu time      0.2478: real time      0.2482
    --------------------------------------------
      LOOP:  cpu time    198.0148: real time    198.4597

 eigenvalue-minimisations  :   284
 total energy-change (2. order) : 0.1631277E+00  ( 0.8731886E-03)
 number of electron      46.0000003 magnetization       0.1261864
 augmentation part        1.5207840 magnetization       0.1195255

 Broyden mixing:
  rms(total) = 0.29660E-02    rms(broyden)= 0.29658E-02
  rms(prec ) = 0.30035E-02
  weight for this iteration     100.00

 eigenvalues of (default mixing * dielectric matrix)
  average eigenvalue GAMMA=   2.9073
 21.4637  9.3338  5.2371  2.7235  2.7235  2.0611  1.6510  1.4001  1.0863  0.9542
  0.9542  0.8955  0.7420  0.7420  0.7400  0.6667  0.6281  0.6281  0.6074

 Free energy of the ion-electron system (eV)
  ---------------------------------------------------
  alpha Z        PSCENC =         0.14873945
  Ewald energy   TEWEN  =      4480.93234997
  -Hartree energ DENC   =     -5877.71509271
  -exchange      EXHF   =         0.00000000
  -V(xc)+E(xc)   XCENC  =       192.88746494
  PAW double counting   =      4056.50872837    -4077.20961521
  entropy T*S    EENTRO =        -0.00000000
  eigenvalues    EBANDS =      -602.24549704
  atomic energy  EATOM  =      1709.43524699
  Solvation  Ediel_sol  =         1.77280890
  ---------------------------------------------------
  free energy    TOTEN  =      -115.48486634 eV

  energy without entropy =     -115.48486634  energy(sigma->0) =     -115.48486634


--------------------------------------------------------------------------------------------------------




--------------------------------------- Iteration      1(  21)  ---------------------------------------


    POTLOK:  cpu time     93.1621: real time     93.3758
    SETDIJ:  cpu time      0.3828: real time      0.3835
    EDDIAG:  cpu time     11.3975: real time     11.4248
  RMM-DIIS:  cpu time     84.9318: real time     85.1151
    ORTHCH:  cpu time      0.1570: real time      0.1575
       DOS:  cpu time      0.0012: real time      0.0012
    CHARGE:  cpu time      6.6476: real time      6.6610
    MIXING:  cpu time      0.3390: real time      0.3443
    --------------------------------------------
      LOOP:  cpu time    197.0189: real time    197.4632

 eigenvalue-minimisations  :   284
 total energy-change (2. order) : 0.7832832E-01  (-0.1483749E-02)
 number of electron      46.0000003 magnetization       0.0678210
 augmentation part        1.5205921 magnetization       0.0615972

 Broyden mixing:
  rms(total) = 0.32694E-02    rms(broyden)= 0.32686E-02
  rms(prec ) = 0.32851E-02
  weight for this iteration     100.00

 eigenvalues of (default mixing * dielectric matrix)
[...]
    SETDIJ:  cpu time      0.3850: real time      0.3858
     EDDAV:  cpu time     52.9688: real time     53.0848
       DOS:  cpu time      0.0012: real time      0.0012
    CHARGE:  cpu time      6.4621: real time      6.4783
    MIXING:  cpu time      0.1237: real time      0.1239
    --------------------------------------------
      LOOP:  cpu time    148.7261: real time    149.0673

 eigenvalue-minimisations  :   240
 total energy-change (2. order) :-0.3604415E-04  (-0.1156901E-03)
 number of electron      45.9999994 magnetization      -0.0000169
 augmentation part        1.5324140 magnetization      -0.0000170

 Broyden mixing:
  rms(total) = 0.96657E-03    rms(broyden)= 0.96413E-03
  rms(prec ) = 0.97438E-03
  weight for this iteration     100.00

 Free energy of the ion-electron system (eV)
  ---------------------------------------------------
  alpha Z        PSCENC =         0.14873945
  Ewald energy   TEWEN  =      4509.76080572
  -Hartree energ DENC   =     -5905.13820832
  -exchange      EXHF   =         0.00000000
  -V(xc)+E(xc)   XCENC  =       193.55479449
  PAW double counting   =      4143.85146962    -4164.58987853
  entropy T*S    EENTRO =        -0.00000000
  eigenvalues    EBANDS =      -604.02613377
  atomic energy  EATOM  =      1709.43524699
  Solvation  Ediel_sol  =         1.65325033
  ---------------------------------------------------
  free energy    TOTEN  =      -115.34991401 eV

  energy without entropy =     -115.34991401  energy(sigma->0) =     -115.34991401


--------------------------------------------------------------------------------------------------------




--------------------------------------- Iteration     24(   2)  ---------------------------------------


    POTLOK:  cpu time     83.3428: real time     83.5559
    SETDIJ:  cpu time      0.3774: real time      0.3782
    EDDIAG:  cpu time     11.1166: real time     11.1435
  RMM-DIIS:  cpu time     57.1889: real time     57.3135
    ORTHCH:  cpu time      0.1375: real time      0.1379
       DOS:  cpu time      0.0004: real time      0.0004
    --------------------------------------------
      LOOP:  cpu time    152.1636: real time    152.5293

 eigenvalue-minimisations  :   160
 total energy-change (2. order) :-0.1209100E-05  (-0.2066662E-05)
 number of electron      45.9999994 magnetization      -0.0000169
 augmentation part        1.5324140 magnetization      -0.0000170

 Free energy of the ion-electron system (eV)
  ---------------------------------------------------
  alpha Z        PSCENC =         0.14873945
  Ewald energy   TEWEN  =      4509.76080572
  -Hartree energ DENC   =     -5905.13597605
  -exchange      EXHF   =         0.00000000
  -V(xc)+E(xc)   XCENC  =       193.55454364
  PAW double counting   =      4143.80493123    -4164.54336179
  entropy T*S    EENTRO =        -0.00000000
  eigenvalues    EBANDS =      -604.02643358
  atomic energy  EATOM  =      1709.43524699
  Solvation  Ediel_sol  =         1.65158917
  ---------------------------------------------------
  free energy    TOTEN  =      -115.34991522 eV

  energy without entropy =     -115.34991522  energy(sigma->0) =     -115.34991522


--------------------------------------------------------------------------------------------------------




 average (electrostatic) potential at core
  the test charge radii are     0.6991  0.7215  0.5201
  (the norm of the test charge is              1.0000)
       1 -61.2116       2 -61.0774       3 -61.1609       4 -61.0660       5 -61.1216
       6 -61.2836       7 -63.0623       8 -60.6465       9 -83.8163      10 -44.1701
      11 -44.3998      12 -44.3995      13 -44.3787      14 -44.4016      15 -44.4457
      16 -44.4147      17 -44.5795
 
 
 
 E-fermi :  -5.9490     XC(G=0):  -0.0316     alpha+bet : -0.0171

 Fermi energy:        -5.9490124343

 spin component 1

 k-point     1 :       0.0000    0.0000    0.0000
  band No.  band energies     occupation 
      1     -27.4227      1.00000
      2     -22.7008      1.00000
      3     -20.2794      1.00000
      4     -19.7147      1.00000
      5     -19.0359      1.00000
      6     -16.3678      1.00000
      7     -15.7721      1.00000
      8     -14.2596      1.00000
      9     -13.1139      1.00000
     10     -11.9059      1.00000
     11     -11.7305      1.00000
     12     -11.3044      1.00000
     13     -11.3024      1.00000
     14     -10.7871      1.00000
     15     -10.5527      1.00000
     16      -9.7607      1.00000
     17      -9.7353      1.00000
     18      -9.0268      1.00000
     19      -8.9213      1.00000
     20      -8.5785      1.00000
     21      -6.8151      1.00000
     22      -6.7428      1.00000
     23      -6.1830      1.00000
     24      -2.5369      0.00000
     25      -1.2060      0.00000
     26      -0.0539      0.00000
     27       0.0175      0.00000
     28       0.0491      0.00000
     29       0.0831      0.00000
     30       0.0843      0.00000
     31       0.0851      0.00000
     32       0.0882      0.00000
     33       0.0885      0.00000
     34       0.1313      0.00000
     35       0.1690      0.00000
     36       0.1715      0.00000
     37       0.1740      0.00000
     38       0.1794      0.00000
     39       0.1795      0.00000
     40       0.1806      0.00000
     41       0.1821      0.00000
     42       0.1822      0.00000
     43       0.1823      0.00000
     44       0.1825      0.00000
     45       0.1828      0.00000
     46       0.2514      0.00000
     47       0.2667      0.00000
     48       0.2689      0.00000
 Fermi energy:        -5.9490124343

 spin component 2

 k-point     1 :       0.0000    0.0000    0.0000
  band No.  band energies     occupation 
      1     -27.4227      1.00000
      2     -22.7008      1.00000
      3     -20.2794      1.00000
      4     -19.7147      1.00000
      5     -19.0359      1.00000
      6     -16.3678      1.00000
      7     -15.7721      1.00000
      8     -14.2596      1.00000
      9     -13.1139      1.00000
     10     -11.9059      1.00000
     11     -11.7305      1.00000
     12     -11.3044      1.00000
     13     -11.3024      1.00000
     14     -10.7871      1.00000
     15     -10.5527      1.00000
     16      -9.7607      1.00000
     17      -9.7353      1.00000
     18      -9.0268      1.00000
     19      -8.9213      1.00000
     20      -8.5785      1.00000
     21      -6.8151      1.00000
     22      -6.7428      1.00000
     23      -6.1830      1.00000
     24      -2.5369      0.00000
     25      -1.2059      0.00000
     26      -0.0541      0.00000
     27       0.0169      0.00000
     28       0.0491      0.00000
     29       0.0825      0.00000
     30       0.0837      0.00000
     31       0.0845      0.00000
     32       0.0877      0.00000
     33       0.0880      0.00000
     34       0.1306      0.00000
     35       0.1684      0.00000
     36       0.1709      0.00000
     37       0.1734      0.00000
     38       0.1788      0.00000
     39       0.1788      0.00000
     40       0.1800      0.00000
     41       0.1816      0.00000
     42       0.1817      0.00000
     43       0.1818      0.00000
     44       0.1819      0.00000
     45       0.1823      0.00000
     46       0.2508      0.00000
     47       0.2662      0.00000
     48       0.2681      0.00000


--------------------------------------------------------------------------------------------------------


 soft charge-density along one line, spin component           1
         0         1         2         3         4         5         6         7         8         9
 total charge-density along one line
 
 soft charge-density along one line, spin component           2
         0         1         2         3         4         5         6         7         8         9
 total charge-density along one line
 
 pseudopotential strength for first ion, spin component:           1
 10.468  13.919  -0.000  -0.000  -0.001  -0.003   0.000   0.001
 13.919  18.508   0.000  -0.000  -0.001  -0.004   0.000   0.001
 -0.000   0.000  -4.385  -0.000   0.002   8.505   0.000  -0.003
 -0.000  -0.000  -0.000  -4.322  -0.000   0.000   8.410   0.000
 -0.001  -0.001   0.002  -0.000  -4.389  -0.003   0.000   8.512
 -0.003  -0.004   8.505   0.000  -0.003 -18.764  -0.000   0.004
  0.000   0.000   0.000   8.410   0.000  -0.000 -18.639  -0.000
  0.001   0.001  -0.003   0.000   8.512   0.004  -0.000 -18.775
 pseudopotential strength for first ion, spin component:           2
 10.468  13.919  -0.000  -0.000  -0.001  -0.003   0.000   0.001
 13.919  18.508   0.000  -0.000  -0.001  -0.004   0.000   0.001
 -0.000   0.000  -4.385  -0.000   0.002   8.505   0.000  -0.003
 -0.000  -0.000  -0.000  -4.322  -0.000   0.000   8.410   0.000
 -0.001  -0.001   0.002  -0.000  -4.389  -0.003   0.000   8.512
 -0.003  -0.004   8.505   0.000  -0.003 -18.764  -0.000   0.004
  0.000   0.000   0.000   8.410   0.000  -0.000 -18.639  -0.000
  0.001   0.001  -0.003   0.000   8.512   0.004  -0.000 -18.775
 total augmentation occupancy for first ion, spin component:           1
  8.758  -3.938   0.214   0.000   0.143   0.044   0.000   0.028
 -3.938   1.813  -0.146  -0.000  -0.090  -0.027  -0.000  -0.017
  0.214  -0.146   1.817   0.000  -0.034   0.170   0.000  -0.008
  0.000  -0.000   0.000   1.131   0.000   0.000   0.076   0.000
  0.143  -0.090  -0.034   0.000   1.876  -0.008   0.000   0.180
  0.044  -0.027   0.170   0.000  -0.008   0.017   0.000  -0.001
  0.000  -0.000   0.000   0.076   0.000   0.000   0.005   0.000
  0.028  -0.017  -0.008   0.000   0.180  -0.001   0.000   0.018
 total augmentation occupancy for first ion, spin component:           2
  0.000  -0.000   0.000   0.000   0.000   0.000   0.000  -0.000
 -0.000   0.000  -0.000  -0.000  -0.000  -0.000  -0.000   0.000
  0.000  -0.000  -0.000   0.000   0.000  -0.000   0.000  -0.000
  0.000  -0.000   0.000   0.000   0.000   0.000   0.000  -0.000
  0.000  -0.000   0.000   0.000  -0.000  -0.000   0.000  -0.000
  0.000  -0.000  -0.000   0.000  -0.000  -0.000   0.000  -0.000
  0.000  -0.000   0.000   0.000   0.000   0.000   0.000  -0.000
 -0.000   0.000  -0.000  -0.000  -0.000  -0.000  -0.000  -0.000


------------------------ aborting loop because EDIFF is reached ----------------------------------------


    CHARGE:  cpu time      1.4681: real time      1.4714
    FORLOC:  cpu time      0.3091: real time      0.3096
    FORNL :  cpu time      4.0210: real time      4.0296
    STRESS:  cpu time    111.9538: real time    112.1837
    FORCOR:  cpu time      7.6112: real time      7.6286
    FORHAR:  cpu time      0.8715: real time      0.8715
    MIXING:  cpu time      0.0997: real time      0.0998
    OFIELD:  cpu time      0.0001: real time      0.0000

 ---------------------------------------------------------------------------------------------

         DFTD3 V3.0 Rev 1        
 Edisp (eV)   -0.14027

 E6    (eV) :    -0.1098
 E8    (eV) :    -0.0305
 % E8        : 21.72
    FORVDW:  cpu time      0.0056: real time      0.0056

  FORCE on cell =-STRESS in cart. coord.  units (eV):
  Direction    XX          YY          ZZ          XY          YZ          ZX
  --------------------------------------------------------------------------------------
  Alpha Z     0.14874     0.14874     0.14874
  Ewald    2775.58466  1989.99492  -255.81929   -24.74361     0.00657     0.10548
  Hartree  2944.02882  2179.02027   782.09009     6.84662    -0.01235     0.04006
  E(xc)    -175.40003  -175.76884  -178.56547     0.19379    -0.00009    -0.00005
  Local   -6175.76103 -4606.04784 -1031.66253     3.84765     0.01169    -0.13349
  n-local   -71.68496   -72.37151   -61.56227     0.49161     0.00088     0.00083
  augment     5.01491     3.82356     4.04292     0.89789    -0.00028    -0.00045
  Kinetic   698.20722   681.53884   740.21447    13.15021    -0.00545    -0.01103
  Fock        0.00000     0.00000     0.00000     0.00000     0.00000     0.00000
  vdW        -0.06125    -0.02234    -0.00083    -0.00706     0.00000     0.00000
  -------------------------------------------------------------------------------------
  Total       0.07709     0.31579    -1.11416     0.67710     0.00098     0.00135
  in kB       0.00193     0.00791    -0.02789     0.01695     0.00002     0.00003
  external pressure =       -0.01 kB  Pullay stress =        0.00 kB


 VOLUME and BASIS-vectors are now :
 -----------------------------------------------------------------------------
  energy-cutoff  :      500.00
  volume of cell :    64000.00
      direct lattice vectors                 reciprocal lattice vectors
    40.000000000  0.000000000  0.000000000     0.025000000  0.000000000  0.000000000
     0.000000000 40.000000000  0.000000000     0.000000000  0.025000000  0.000000000
     0.000000000  0.000000000 40.000000000     0.000000000  0.000000000  0.025000000

  length of vectors
    40.000000000 40.000000000 40.000000000     0.025000000  0.025000000  0.025000000


 FORCES acting on ions
    electron-ion (+dipol)            ewald-force                    non-local-force                 convergence-correction
 -----------------------------------------------------------------------------------------------
   0.119E+02 0.179E+03 0.420E-01   -.122E+02 -.180E+03 -.420E-01   0.413E+00 0.124E+01 -.803E-03   -.364E-03 -.319E-02 -.828E-04
   -.131E+03 0.169E+03 -.370E-02   0.131E+03 -.169E+03 0.403E-02   -.793E+00 0.119E+01 0.341E-04   -.383E-03 -.577E-02 -.217E-03
   -.216E+03 0.383E+01 -.210E-01   0.216E+03 -.355E+01 0.208E-01   -.122E+01 0.173E-02 0.651E-03   0.176E-02 0.104E-03 -.439E-04
   -.138E+03 -.164E+03 -.233E-01   0.138E+03 0.165E+03 0.234E-01   -.779E+00 -.119E+01 -.667E-03   -.206E-02 0.307E-02 -.166E-05
   0.637E+00 -.182E+03 0.266E-01   -.191E+01 0.183E+03 -.268E-01   0.536E+00 -.164E+01 0.204E-02   0.875E-03 0.158E-02 -.942E-04
   0.268E+02 0.623E+01 0.584E-01   -.271E+02 -.496E+01 -.589E-01   0.192E+00 -.193E+00 0.291E-03   -.394E-02 -.878E-03 -.180E-03
   0.516E+02 0.759E+02 0.285E-01   -.501E+02 -.795E+02 -.283E-01   -.209E+01 0.546E+01 -.384E-04   -.423E-03 -.265E-02 0.140E-04
   0.144E+03 0.138E+03 -.426E-01   -.146E+03 -.136E+03 0.422E-01   0.123E+01 0.182E+00 -.557E-03   -.217E-02 0.512E-03 0.139E-03
   0.253E+03 -.301E+03 0.966E-02   -.280E+03 0.351E+03 -.894E-02   0.244E+02 -.458E+02 -.125E-02   0.153E-02 -.879E-03 0.153E-03
   0.845E+02 0.780E+01 -.880E-02   -.902E+02 -.609E+01 0.902E-02   0.578E+01 -.131E+01 -.258E-03   0.910E-03 0.326E-03 0.147E-04
   0.146E+02 0.563E+02 -.563E+02   -.135E+02 -.592E+02 0.608E+02   -.118E+01 0.324E+01 -.464E+01   -.957E-03 0.364E-03 -.634E-03
   0.146E+02 0.564E+02 0.563E+02   -.135E+02 -.593E+02 -.608E+02   -.118E+01 0.324E+01 0.464E+01   -.940E-03 0.352E-03 0.627E-03
   0.190E+02 -.850E+02 -.239E-02   -.224E+02 0.901E+02 0.259E-02   0.309E+01 -.531E+01 -.421E-03   -.112E-03 0.437E-03 -.602E-05
   -.497E+02 -.725E+02 -.173E-01   0.526E+02 0.775E+02 0.184E-01   -.315E+01 -.522E+01 -.142E-02   -.172E-03 0.497E-03 0.852E-05
   -.873E+02 0.167E+01 -.241E-01   0.930E+02 -.175E+01 0.256E-01   -.611E+01 0.119E+00 -.211E-02   0.934E-03 0.185E-03 0.124E-04
   -.468E+02 0.743E+02 -.306E-02   0.496E+02 -.793E+02 0.330E-02   -.294E+01 0.534E+01 -.253E-03   -.631E-04 0.701E-04 -.305E-04
   0.217E+02 0.828E+02 0.147E-01   -.246E+02 -.877E+02 -.153E-01   0.305E+01 0.531E+01 0.689E-03   0.418E-03 -.354E-03 -.474E-06
 -----------------------------------------------------------------------------------------------
   -.193E+02 0.354E+02 0.816E-02   0.959E-13 0.000E+00 -.672E-14   0.193E+02 -.354E+02 -.552E-02   -.515E-02 -.623E-02 -.321E-03
 
 
 POSITION                                       TOTAL-FORCE (eV/Angst)
 -----------------------------------------------------------------------------------
     20.41051     19.06461     19.99966        -0.004436      0.017847     -0.000805
     21.80124     19.03786     19.99991         0.002614      0.008875      0.000265
     22.52097     20.23038     20.00009        -0.004166     -0.005743      0.000762
     21.84880     21.45321     20.00005         0.006123     -0.011541     -0.000263
     20.46292     21.48144     19.99978        -0.008293     -0.016138      0.002003
     19.72859     20.28793     19.99964        -0.003052     -0.000090     -0.000212
     18.24088     20.36343     19.99981        -0.001230      0.009733      0.000207
     17.44286     19.09004     20.00022        -0.001835     -0.005684     -0.000829
     17.67336     21.45640     19.99982        -0.000524     -0.002224     -0.000280
     16.38278     19.33414     20.00026        -0.006107     -0.015696     -0.000115
     17.68074     18.48486     20.87881         0.011010      0.004553      0.002151
     17.68055     18.48444     19.12183         0.010671      0.004818     -0.001645
     19.92656     22.42264     19.99986        -0.003204      0.005951     -0.000256
     22.40927     22.38107     20.00030         0.008189      0.003650     -0.000279
     23.60498     20.20914     20.00044         0.002904     -0.004084     -0.000494
     22.32327     18.08776     19.99995        -0.004603      0.002968     -0.000112
     19.86176     18.13064     19.99954        -0.004061      0.002804     -0.000096
 -----------------------------------------------------------------------------------
    total drift:                                0.025640     -0.022833      0.002316


--------------------------------------------------------------------------------------------------------



  FREE ENERGIE OF THE ION-ELECTRON SYSTEM (eV)
  ---------------------------------------------------
  free  energy   TOTEN  =      -115.49018715 eV

  energy  without entropy=     -115.49018715  energy(sigma->0) =     -115.49018715
 
 d Force = 0.3670496E-04[ 0.278E-04, 0.456E-04]  d Energy = 0.3865780E-04-0.195E-05
 d Force =-0.1274016E-01[-0.127E-01,-0.128E-01]  d Ewald  =-0.1274016E-01-0.417E-08


--------------------------------------------------------------------------------------------------------


    POTLOK:  cpu time     82.4499: real time     82.6479


--------------------------------------------------------------------------------------------------------


 Conjugate gradient step on ions:
 trial-energy change:   -0.000039  1 .order   -0.000037   -0.000046   -0.000028
  (g-gl).g = 0.167E-03      g.g   = 0.181E-03  gl.gl    = 0.155E-03
 g(Force)  = 0.181E-03   g(Stress)= 0.000E+00 ortho     = 0.191E-04
 gamma     =   1.07469
 trial     =   0.22638
 opt step  =   0.57885  (harmonic =   0.57885) maximal distance =0.00147008
 next E    =  -115.490207   (d E  =  -0.00006)


--------------------------------------------------------------------------------------------------------


  
 reached required accuracy - stopping structural energy minimisation
 writing wavefunctions
     LOOP+:  cpu time    519.7015: real time    521.5648
    4ORBIT:  cpu time      0.0000: real time      0.0000

 total amount of memory used by VASP MPI-rank0   892143. kBytes
=======================================================================

   base      :      30000. kBytes
   nonlr-proj:       1072. kBytes
   fftplans  :     167689. kBytes
   grid      :     662171. kBytes
   one-center:         12. kBytes
   wavefun   :      31199. kBytes
 
  
  
 General timing and accounting informations for this job:
 ========================================================
  
                  Total CPU time used (sec):    35542.902
                            User time (sec):    33416.422
                          System time (sec):     2126.479
                         Elapsed time (sec):    35626.359
  
                   Maximum memory used (kb):     2140068.
                   Average memory used (kb):          N/A
  
                          Minor page faults:    176027849
                          Major page faults:            0
                 Voluntary context switches:      1517200
