
                                 *****************
                                 * O   R   C   A *
                                 *****************

                                            #,                                       
                                            ###                                      
                                            ####                                     
                                            #####                                    
                                            ######                                   
                                           ########,                                 
                                     ,,################,,,,,                         
                               ,,#################################,,                 
                          ,,##########################################,,             
                       ,#########################################, ''#####,          
                    ,#############################################,,   '####,        
                  ,##################################################,,,,####,       
                ,###########''''           ''''###############################       
              ,#####''   ,,,,##########,,,,          '''####'''          '####       
            ,##' ,,,,###########################,,,                        '##       
           ' ,,###''''                  '''############,,,                           
         ,,##''                                '''############,,,,        ,,,,,,###''
      ,#''                                            '''#######################'''  
     '                                                          ''''####''''         
             ,#######,   #######,   ,#######,      ##                                
            ,#'     '#,  ##    ##  ,#'     '#,    #''#        ,####,   ,####,        
            ##       ##  ##   ,#'  ##            #'  '#       #'       #'  '#        
            ##       ##  #######   ##           ,######,      #####,   #    #        
            '#,     ,#'  ##    ##  '#,     ,#' ,#      #,     #,   #   #,  ,#        
             '#######'   ##     ##  '#######'  #'      '#     '####' # '####'        



                #########################################################
                #                        -***-                          #
                #          Department of theory and spectroscopy        #
                #                                                       #
                #                      Frank Neese                      #
                #                                                       #
                #     Directorship, Architecture, Infrastructure        #
                #                    SHARK, DRIVERS                     #
                #        Core code/Algorithms in most modules           #
                #                                                       #
                #        Max Planck Institute fuer Kohlenforschung      #
                #                Kaiser Wilhelm Platz 1                 #
                #                 D-45470 Muelheim/Ruhr                 #
                #                      Germany                          #
                #                                                       #
                #                  All rights reserved                  #
                #                        -***-                          #
                #########################################################


                         Program Version 6.0.1  -  RELEASE   -


 With contributions from (in alphabetic order):
[Max-Planck-Institut fuer Kohlenforschung]                               
  Daniel Aravena         : Magnetic Suceptibility                        
  Michael Atanasov       : Ab Initio Ligand Field Theory (pilot matlab implementation)
  Alexander A. Auer      : GIAO ZORA, VPT2 properties, NMR spectrum      
  Ute Becker             : All parallelization in ORCA, NUMFREQ, NUMCALC 
  Giovanni Bistoni       : ED, misc. LED, open-shell LED, HFLD           
  Martin Brehm           : Molecular dynamics                            
  Dmytro Bykov           : pre 5.0 version of the SCF Hessian            
  Marcos Casanova-Páez   : Triplet and SCS-CIS(D). UHF-(DLPNO)-IP/EA/STEOM-CCSD. UHF-CVS-IP/STEOM-CCSD   
  Vijay G. Chilkuri      : MRCI spin determinant printing, contributions to CSF-ICE 
  Pauline Colinet        : FMM embedding                                 
  Dipayan Datta          : RHF DLPNO-CCSD density                        
  Achintya Kumar Dutta   : EOM-CC, STEOM-CC                              
  Nicolas Foglia         : Exact transition moments, OPA infrastructure, MCD improvements    
  Dmitry Ganyushin       : Spin-Orbit,Spin-Spin,Magnetic field MRCI      
  Miquel Garcia-Rates    : C-PCM and meta-GGA Hessian, CCSD/C-PCM, Gaussian charge scheme 
  Tiago L. C. Gouveia    : GS-ROHF, GS-ROCIS                             
  Yang Guo               : DLPNO-NEVPT2, F12-NEVPT2, CIM, IAO-localization        
  Andreas Hansen         : Spin unrestricted coupled pair/coupled cluster methods 
  Ingolf Harden          : AUTO-CI MPn and infrastructure                
  Benjamin Helmich-Paris : MC-RPA, TRAH-(SCF,CASSCF), AVAS, COSX integrals, SCF dyn. polar. 
  Lee Huntington         : MR-EOM, pCC                                   
  Robert Izsak           : Overlap fitted RIJCOSX, COSX-SCS-MP3, EOM     
  Riya Kayal             : Wick's Theorem for AUTO-CI, AUTO-CI UHF-CCSDT 
  Emily Kempfer          : AUTO-CI, RHF CISDT and CCSDT                  
  Christian Kollmar      : KDIIS, OOCD, Brueckner-CCSD(T), CCSD density, CASPT2, CASPT2-K, improved NEVPT2 
  Axel Koslowski         : Symmetry handling                             
  Simone Kossmann        : meta-GGA functionals, TD-DFT gradient, OOMP2, (MP2 Hessian; deprecated post 5.0) 
  Lucas Lang             : DCDCAS                                        
  Marvin Lechner         : AUTO-CI (C++ implementation), FIC-MRCC        
  Spencer Leger          : CASSCF response                               
  Dagmar Lenk            : GEPOL surface, SMD, ORCA-2-JSON               
  Dimitrios Liakos       : Extrapolation schemes; Compound Job, initial MDCI parallelization 
  Dimitrios Manganas     : Further ROCIS development; embedding schemes. LFT, Crystal Embedding 
  Dimitrios Pantazis     : SARC Basis sets                               
  Anastasios Papadopoulos: AUTO-CI, single reference methods and gradients 
  Taras Petrenko         : pre 6.0 DFT Hessian and TD-DFT gradient, (ASA, deprecated), ECA, 1-Electron XAS/XES, NRVS 
  Peter Pinski           : DLPNO-MP2, DLPNO-MP2 Gradient                 
  Christoph Reimann      : Effective Core Potentials                     
  Marius Retegan         : Local ZFS, SOC                                
  Christoph Riplinger    : Optimizer, TS searches, QM/MM, DLPNO-CCSD(T), (RO)-DLPNO pert. Triples 
  Michael Roemelt        : Original ROCIS implementation                 
  Masaaki Saitow         : Open-shell DLPNO-CCSD energy and density      
  Barbara Sandhoefer     : DKH picture change effects                    
  Kantharuban Sivalingam : CASSCF convergence/infrastructure, NEVPT2 and variants, FIC-MRCI 
  Bernardo de Souza      : ESD, SOC TD-DFT                               
  Georgi L. Stoychev     : AutoAux, RI-MP2 NMR, DLPNO-MP2 response, X2C  
  Van Anh Tran           : RI-MP2 g-tensors                              
  Willem Van den Heuvel  : Paramagnetic NMR                              
  Zikuan Wang            : NOTCH, Electric field optimization            
  Frank Wennmohs         : Technical directorship and infrastructure     
  Hang Xu                : AUTO-CI-Response properties                   
                                                                         
[FACCTs GmbH]                                                            
  Markus Bursch, Miquel Garcia-Rates, Christoph Riplinger, Bernardo de Souza, Georgi L. Stoychev 
                                                                 
  APM, Basis sets (HGBS, AHGBS, def-TZVP (Ac-Lr), def2-XVPD (La-Lu)), CI-OPT, improved COSX, DLPNO-Multilevel,           
  DOCKER, DRACO, updates on ESD, GOAT, IRC, LR-CPCM, MBIS, meta-GGA TD-DFT gradient, ML-optimized integration grids, 
  MM, NACMEs, nearIR, NEB, NEB-TS, NL-DFT gradient (VV10), 2- and 3-layer-ONIOM, interface openCOSMO-RS, QMMM,   
  Crystal-QMMM, SF, symmetry and pop. for TD-DFT, r2SCAN hybrids, SOLVATOR                                   
                                                                         
[Other institutions]                                                     
  V. Asgeirsson          : NEB                                           
  Christoph Bannwarth    : sTDA-DFT, sTD-DFT, PBEh-3c, B97-3c, D3        
  Sebastian Ehlert       : rSCAN, r2SCAN, r2SCAN-3c, D4, dhf basis sets  
  Marvin Friede          : D4 for Fr, Ra, Ac-Lr                          
  Lars Goerigk           : TD-DFT with DH, B97 family of functionals     
  Stefan Grimme          : VdW corrections, initial TS optimization, DFT functionals, gCP, sTDA/sTD-DF 
  Waldemar Hujo          : DFT-NL                                        
  H. Jonsson             : NEB                                           
  Holger Kruse           : gCP                                           
  Marcel Mueller         : wB97X-3c, vDZP basis set                      
  Hagen Neugebauer       : wr2SCAN                                       
  Tobias Risthaus        : range-separated hybrid DFT                    
  Lukas Wittmann         : regularized MP2, r2SCAN double-hybrids, wr2SCAN        
                                                                         
We gratefully acknowledge several colleagues who have allowed us to      
interface, adapt or use parts of their codes:                            
  Ed Valeev, F. Pavosevic, A. Kumar             : LibInt (2-el integral package), F12 methods 
  Garnet Chan, S. Sharma, J. Yang, R. Olivares  : DMRG                   
  Ulf Ekstrom                                   : XCFun DFT Library      
  Mihaly Kallay                                 : mrcc  (arbitrary order and MRCC methods)
  Frank Weinhold                                : gennbo (NPA and NBO analysis)           
  Simon Mueller                                 : openCOSMO-RS                            
  Christopher J. Cramer and Donald G. Truhlar   : smd solvation model                     
  S Lehtola, MJT Oliveira, MAL Marques          : LibXC Library                           
  Liviu Ungur et al                             : ANISO software                          


 Your calculation uses the libint2 library for the computation of 2-el integrals
 For citations please refer to: http://libint.valeyev.net

 Your ORCA version has been built with support for libXC version: 6.2.2
 For citations please refer to: https://libxc.gitlab.io

 This ORCA versions uses:
   CBLAS   interface :  Fast vector & matrix operations
   LAPACKE interface :  Fast linear algebra routines
   SCALAPACK package :  Parallel linear algebra routines
   Shared memory     :  Shared parallel matrices
   BLAS/LAPACK       :  OpenBLAS 0.3.27  USE64BITINT DYNAMIC_ARCH NO_AFFINITY SkylakeX SINGLE_THREADED
        Core in use  :  SkylakeX
   Copyright (c) 2011-2014, The OpenBLAS Project


NOTE: MaxCore=3000 MB was set to SCF,MP2,MDCI,CIPSI,MRCI and CIS
      => If you want to overwrite this, your respective input block should be placed after the MaxCore statement
================================================================================

----- Orbital basis set information -----
Your calculation utilizes the basis: def2-SVP
   F. Weigend and R. Ahlrichs, Phys. Chem. Chem. Phys. 7, 3297 (2005).

================================================================================
                                        WARNINGS
                       Please study these warnings very carefully!
================================================================================


WARNING: your system is open-shell and RHF/RKS was chosen
  ===> : WILL SWITCH to UHF/UKS


================================================================================
                                       INPUT FILE
================================================================================
NAME = cs_rporg_020_ox_cosmors_01.inp
|  1> !COSMORS(Acetonitrile)
|  2>  
|  3> %pal
|  4> nprocs 20
|  5> end
|  6>  
|  7> 
|  8>  
|  9> %maxcore 3000
| 10>  
| 11> 
| 12>  
| 13> * xyz 1 2
| 14> C           0.39027202850425     -0.55394955520482     -0.01147318884514
| 15> C           1.46538411398227     -1.41201451226685      0.32843134291825
| 16> C           2.76223371510298     -0.95181499222389      0.33062494963678
| 17> C           3.04842985596685      0.39380533103560     -0.01062127484712
| 18> C           2.02568592855862      1.26931648709972     -0.30266231954854
| 19> C           0.67678776447609      0.85315037925119     -0.22862200210739
| 20> C          -0.33926818993375      1.86220315940674     -0.30117717382418
| 21> C          -1.56489251647505      1.82515242057598      0.30424492715440
| 22> C          -2.56690840928871      2.90896571125331      0.23231417274704
| 23> H          -3.53355272254525      2.51293544975722     -0.13479632863314
| 24> H          -2.77605157275142      3.30247609624592      1.24606137329070
| 25> H          -2.25129259404292      3.73887527736490     -0.41869887051134
| 26> H          -1.81399596674726      0.96710759352235      0.94261722102013
| 27> H          -0.04671759270647      2.79850717185556     -0.79419889631908
| 28> H           2.24475638702766      2.31715758324724     -0.52473414148750
| 29> H           4.08568441615477      0.73993162783082     -0.02214310519638
| 30> H           3.58311040506705     -1.63750220541102      0.55778721997041
| 31> H           1.27533483486936     -2.47214630677441      0.50835511028523
| 32> C          -0.92089212283098     -1.06759805095657     -0.27601443140599
| 33> C          -1.40401796068071     -2.28526831606367      0.13493631580958
| 34> C          -2.74957477405163     -2.79884516770918     -0.18467320513625
| 35> H          -3.33583401509727     -2.10778381332124     -0.80996844556913
| 36> H          -2.66557343194919     -3.77317132724075     -0.70581020687802
| 37> H          -3.31016753031929     -3.01606684555296      0.74550545986431
| 38> H          -0.77234901522658     -2.92837616395213      0.76142767228746
| 39> H          -1.58084503506342     -0.44553323176908     -0.89033947467507
| 40> *
| 41> 
| 42>                          ****END OF INPUT****
================================================================================

------------------------------------------------------------------------------
                          OPENCOSMO-RS CALCULATION
------------------------------------------------------------------------------

----------------------
GENERAL INFORMATION
----------------------
Calculation method                          ... DFT
Functional                                  ... BP86
Basis set                                   ... DEF2-TZVPD

----------------------
SOLUTE INFORMATION
----------------------
Number of atoms                             ...     26
Total charge                                ...      1
Multiplicity                                ...      2

CARTESIAN COORDINATES (ANGSTROEM)
  C      0.390272   -0.553950   -0.011473
  C      1.465384   -1.412015    0.328431
  C      2.762234   -0.951815    0.330625
  C      3.048430    0.393805   -0.010621
  C      2.025686    1.269316   -0.302662
  C      0.676788    0.853150   -0.228622
  C     -0.339268    1.862203   -0.301177
  C     -1.564893    1.825152    0.304245
  C     -2.566908    2.908966    0.232314
  H     -3.533553    2.512935   -0.134796
  H     -2.776052    3.302476    1.246061
  H     -2.251293    3.738875   -0.418699
  H     -1.813996    0.967108    0.942617
  H     -0.046718    2.798507   -0.794199
  H      2.244756    2.317158   -0.524734
  H      4.085684    0.739932   -0.022143
  H      3.583110   -1.637502    0.557787
  H      1.275335   -2.472146    0.508355
  C     -0.920892   -1.067598   -0.276014
  C     -1.404018   -2.285268    0.134936
  C     -2.749575   -2.798845   -0.184673
  H     -3.335834   -2.107784   -0.809968
  H     -2.665573   -3.773171   -0.705810
  H     -3.310168   -3.016067    0.745505
  H     -0.772349   -2.928376    0.761428
  H     -1.580845   -0.445533   -0.890339

----------------------
SOLVENT INFORMATION
----------------------
Solvent name                                ... ACETONITRILE
Number of atoms                             ...      6
Total charge                                ...      0
Multiplicity                                ...      1

CARTESIAN COORDINATES (ANGSTROEM)
  C     -0.473900    0.097643   -0.082919
  C      0.927206   -0.190936    0.162329
  N      2.050467   -0.422270    0.358776
  H     -1.093462   -0.372885    0.692688
  H     -0.640576    1.183317   -0.065507
  H     -0.769734   -0.294867   -1.065367

----------------------------------------------
Single Point Calculation (solute / gas-phase)
----------------------------------------------
Output single point calculation redirected to >cs_rporg_020_ox_cosmors_01.solute_vac.lastout

FINAL SINGLE POINT ENERGY (Solute-gas-phase)     -465.568326745874

----------------------------------------------
Single Point Calculation (solute / CPCM)
----------------------------------------------
Output single point calculation redirected to >cs_rporg_020_ox_cosmors_01.solute_cpcm.lastout

FINAL SINGLE POINT ENERGY (Solute-CPCM)     -465.641467748233

----------------------------------------------
Single Point Calculation (solvent / CPCM)
----------------------------------------------
Output single point calculation redirected to >cs_rporg_020_ox_cosmors_01.solvent_cpcm.lastout

FINAL SINGLE POINT ENERGY (Solvent-CPCM)     -132.817950209441

----------------------
SOLVATION DATA
----------------------
Reference temperature              :                 298.15 K
Free energy of solvation (dGsolv)  :       -0.070154752706 Eh            -44.022781 kcal/mol

Note: In order to calculate the free energy of the solvated solute (Gsolv), one should add
      the computed dGsolv to the "Final Gibbs free energy" (Gvac = H-T*S) of the solute in gas-phase.
      That is: Gsolv = Gvac + dGsolv. Here, the Gvac has been calculated previously after a frequency
      calculation of the solute at a certain level of theory and printed in the "THERMOCHEMISTRY" block.

----------------------
openCOSMO-RS TIMINGS
----------------------
Time single point calculation (solute  / gas-phase) ...        29.42 (sec)
Time single point calculation (solute  / CPCM)      ...        31.85 (sec)
Time single point calculation (solvent / CPCM)      ...         6.12 (sec)
Time execution openCOSMO-RS binaries                ...         0.11 (sec)
Total time openCOSMO-RS                             ...        67.54 (sec)


--------------------------------
SUGGESTED CITATIONS FOR THIS RUN
--------------------------------

Below you find a list of papers that are relevant to this ORCA run
We neither can nor want to force you to cite these papers, but we appreciate if you do
You receive ORCA, which is the product of decades of hard work by many enthusiastic individuals, for free
The only thing we kindly ask in return is that you cite our papers,
We deeply appreciate it, if you show your appreciation for ORCA by not just citing the generic ORCA reference.

Please note that relegating all ORCA citations to the supporting information does *not* help us.
SI sections are not indexed - citations you put there will not count into any citation statistics
But we need these citations in order to attract the funding resources that allow us to do what we are doing

Therefore, if you are a happy ORCA user, please consider citing a few of the papers listed below in the main body of your paper

In addition to the list printed below, the program has created the file cs_rporg_020_ox_cosmors_01.bibtex that contains the list in bibtex format
You can import this file easily into all common literature databanks and citation aid programs


List of essential papers. We consider these as the minimum necessary citations

  1. Neese,F.
     Software update: the ORCA program system, version 5.0
     WIRES Comput. Molec. Sci., 2022 12(1)e1606
     doi.org/10.1002/wcms.1606

List of papers to cite with high priority. The work reported in these papers was absolutely
necessary for this run to complete.
Our perspective: the developers of density functionals and basis sets usually get cited in chemistry papers
Good! But without the algorithms to do something with them, the functionals or basis sets would not do anything.
Hence, in our opinion, the algorithm design and method developments papers are equally worthy of getting cited

  1. Garcia-Rates,M.; Neese,F.
     Effect of the Solute Cavity on the Solvation Energy and its Derivatives within the Framework of the Gaussian Charge Scheme
     J. Comput. Chem., 2020 41 922-939
     doi.org/10.1002/jcc.26139
  2. Gerlach,T.; Müller,S.; González de Castilla,A.; Smirnova,I.
     An Open Source COSMO-RS Implementation and Parameterization Supporting the Efficient Implementation of Multiple Segment Descriptors
     Fluid Phase Equilibria, 2022 560 113472
     doi.org/10.1016/j.fluid.2022.113472
  3. Neese,F.
     The SHARK Integral Generation and Digestion System
     J. Comp. Chem., 2022  1-16
     doi.org/10.1002/jcc.26942
  4. Müller,S.; Nevolianis,T.; Garcia-Rates,M.; Riplinger,C.; Leonhard,K.; Smirnova,I.
     Predicting solvation free energies for neutral molecules in any solvent with openCOSMO-RS
     Fluid Phase Equilibria, 2024  
     doi.org/10.1016/j.fluid.2024.114250

List of suggested additional citations. These are papers that are important in the 'surrounding' of 
of this run, or papers that preceded the highly important papers. If you like your results we are grateful for a citation.

  1. Neese,F.
     The ORCA program system
     WIRES Comput. Molec. Sci., 2012 2(1)73-78
     doi.org/10.1002/wcms.81
  2. Neese,F.
     Software update: the ORCA program system, version 4.0
     WIRES Comput. Molec. Sci., 2018 8(1)1-6
     doi.org/10.1002/wcms.1327
  3. Neese,F.; Wennmohs,F.; Becker,U.; Riplinger,C.
     The ORCA quantum chemistry program package
     J. Chem. Phys., 2020 152 Art. No. L224108
     doi.org/10.1063/5.0004608

List of optional additional citations

  1. Neese,F.
     Approximate second-order SCF convergence for spin unrestricted wavefunctions
     Chem. Phys. Lett., 2000 325(1-3)93-98
     doi.org/10.1016/s0009-2614(00)00662-x

Timings for individual modules:

Sum of individual times          ...       67.537 sec (=   1.126 min)
OPENCOSMO-RS module              ...       67.537 sec (=   1.126 min) 100.0 %
                             ****ORCA TERMINATED NORMALLY****
TOTAL RUN TIME: 0 days 0 hours 1 minutes 8 seconds 22 msec
