
                                 *****************
                                 * O   R   C   A *
                                 *****************

                                            #,                                       
                                            ###                                      
                                            ####                                     
                                            #####                                    
                                            ######                                   
                                           ########,                                 
                                     ,,################,,,,,                         
                               ,,#################################,,                 
                          ,,##########################################,,             
                       ,#########################################, ''#####,          
                    ,#############################################,,   '####,        
                  ,##################################################,,,,####,       
                ,###########''''           ''''###############################       
              ,#####''   ,,,,##########,,,,          '''####'''          '####       
            ,##' ,,,,###########################,,,                        '##       
           ' ,,###''''                  '''############,,,                           
         ,,##''                                '''############,,,,        ,,,,,,###''
      ,#''                                            '''#######################'''  
     '                                                          ''''####''''         
             ,#######,   #######,   ,#######,      ##                                
            ,#'     '#,  ##    ##  ,#'     '#,    #''#        ,####,   ,####,        
            ##       ##  ##   ,#'  ##            #'  '#       #'       #'  '#        
            ##       ##  #######   ##           ,######,      #####,   #    #        
            '#,     ,#'  ##    ##  '#,     ,#' ,#      #,     #,   #   #,  ,#        
             '#######'   ##     ##  '#######'  #'      '#     '####' # '####'        



                #########################################################
                #                        -***-                          #
                #          Department of theory and spectroscopy        #
                #                                                       #
                #                      Frank Neese                      #
                #                                                       #
                #     Directorship, Architecture, Infrastructure        #
                #                    SHARK, DRIVERS                     #
                #        Core code/Algorithms in most modules           #
                #                                                       #
                #        Max Planck Institute fuer Kohlenforschung      #
                #                Kaiser Wilhelm Platz 1                 #
                #                 D-45470 Muelheim/Ruhr                 #
                #                      Germany                          #
                #                                                       #
                #                  All rights reserved                  #
                #                        -***-                          #
                #########################################################


                         Program Version 6.0.0  -   RELEASE  -


 With contributions from (in alphabetic order):
   Daniel Aravena         : Magnetic Suceptibility
   Michael Atanasov       : Ab Initio Ligand Field Theory (pilot matlab implementation)
   Alexander A. Auer      : GIAO ZORA, VPT2 properties, NMR spectrum
   Ute Becker             : All parallelization in ORCA, NUMFREQ, NUMCALC
   Giovanni Bistoni       : ED, misc. LED, open-shell LED, HFLD
   Martin Brehm           : Molecular dynamics
   Dmytro Bykov           : pre 5.0 version of the SCF Hessian
   Marcos Casanova-Páez   : Triplet and SCS-CIS(D). UHF-(DLPNO)-IP/EA/STEOM-CCSD. UHF-CVS-IP/STEOM-CCSD
   Vijay G. Chilkuri      : MRCI spin determinant printing, contributions to CSF-ICE
   Pauline Colinet        : FMM embedding
   Dipayan Datta          : RHF DLPNO-CCSD density
   Achintya Kumar Dutta   : EOM-CC, STEOM-CC
   Nicolas Foglia         : Exact transition moments, OPA infrastructure, MCD improvements
   Dmitry Ganyushin       : Spin-Orbit,Spin-Spin,Magnetic field MRCI
   Miquel Garcia          : C-PCM and meta-GGA Hessian, CCSD/C-PCM, Gaussian charge scheme
   Tiago L. C. Gouveia    : GS-ROHF, GS-ROCIS
   Yang Guo               : DLPNO-NEVPT2, F12-NEVPT2, CIM, IAO-localization
   Andreas Hansen         : Spin unrestricted coupled pair/coupled cluster methods
   Ingolf Harden          : AUTO-CI MPn and infrastructure 
   Benjamin Helmich-Paris : MC-RPA, TRAH-(SCF,CASSCF), AVAS, COSX integrals, SCF dyn. polar.
   Lee Huntington         : MR-EOM, pCC
   Robert Izsak           : Overlap fitted RIJCOSX, COSX-SCS-MP3, EOM
   Riya Kayal             : Wick's Theorem for AUTO-CI, AUTO-CI UHF-CCSDT
   Emily Kempfer          : AUTO-CI, RHF CISDT and CCSDT
   Christian Kollmar      : KDIIS, OOCD, Brueckner-CCSD(T), CCSD density, CASPT2, CASPT2-K, improved NEVPT2
   Axel Koslowski         : Symmetry handling
   Simone Kossmann        : Meta GGA functionals, TD-DFT gradient, OOMP2, (MP2 Hessian; deprecated post 5.0)
   Lucas Lang             : DCDCAS
   Marvin Lechner         : AUTO-CI (C++ implementation), FIC-MRCC
   Spencer Leger          : CASSCF response
   Dagmar Lenk            : GEPOL surface, SMD, ORCA-2-JSON
   Dimitrios Liakos       : Extrapolation schemes; Compound Job, initial MDCI parallelization
   Dimitrios Manganas     : Further ROCIS development; embedding schemes. LFT, Crystal Embedding
   Dimitrios Pantazis     : SARC Basis sets
   Anastasios Papadopoulos: AUTO-CI, single reference methods and gradients
   Taras Petrenko         : pre 6.0 DFT Hessian and TD-DFT gradient, (ASA, deprecated), ECA, 1-Electron XAS/XES, NRVS
   Peter Pinski           : DLPNO-MP2, DLPNO-MP2 Gradient
   Christoph Reimann      : Effective Core Potentials
   Marius Retegan         : Local ZFS, SOC
   Christoph Riplinger    : Optimizer, TS searches, QM/MM, DLPNO-CCSD(T), (RO)-DLPNO pert. Triples
   Michael Roemelt        : Original ROCIS implementation
   Masaaki Saitow         : Open-shell DLPNO-CCSD energy and density
   Barbara Sandhoefer     : DKH picture change effects
   Kantharuban Sivalingam : CASSCF convergence/infrastructure, NEVPT2 and variants, FIC-MRCI
   Bernardo de Souza      : ESD, SOC TD-DFT
   Georgi Stoychev        : AutoAux, RI-MP2 NMR, DLPNO-MP2 response, X2C
   Van Anh Tran           : RI-MP2 g-tensors
   Willem Van den Heuvel  : Paramagnetic NMR
   Zikuan Wang            : NOTCH, Electric field optimization 
   Frank Wennmohs         : Technical directorship and infrastructure
   Hang Xu                : AUTO-CI-Response properties 


 We gratefully acknowledge several colleagues who have allowed us to
 interface, adapt or use parts of their codes:
   Stefan Grimme, W. Hujo, H. Kruse, P. Pracht,  : VdW corrections, initial TS optimization,
                  C. Bannwarth, S. Ehlert,         DFT functionals, gCP, sTDA/sTD-DF
                  L. Wittmann, M. Mueller
   Ed Valeev, F. Pavosevic, A. Kumar             : LibInt (2-el integral package), F12 methods
   Garnet Chan, S. Sharma, J. Yang, R. Olivares  : DMRG
   Ulf Ekstrom                                   : XCFun DFT Library
   Mihaly Kallay                                 : mrcc  (arbitrary order and MRCC methods)
   Frank Weinhold                                : gennbo (NPA and NBO analysis)
   Simon Mueller                                 : openCOSMO-RS
   Christopher J. Cramer and Donald G. Truhlar   : smd solvation model
   Lars Goerigk                                  : TD-DFT with DH, B97 family of functionals
   V. Asgeirsson, H. Jonsson                     : NEB implementation
   FAccTs GmbH                                   : IRC, NEB, NEB-TS, DLPNO-Multilevel, CI-OPT
                                                   MM, QMMM, 2- and 3-layer-ONIOM, Crystal-QMMM,
                                                   LR-CPCM, SF, NACMEs, symmetry and pop. for TD-DFT,
                                                   nearIR, NL-DFT gradient (VV10), updates on ESD,
                                                   ML-optimized integration grids, MBIS, APM,
                                                   GOAT, DOCKER, SOLVATOR, interface openCOSMO-RS
   S Lehtola, MJT Oliveira, MAL Marques          : LibXC Library
   Liviu Ungur et al                             : ANISO software


 Your calculation uses the libint2 library for the computation of 2-el integrals
 For citations please refer to: http://libint.valeyev.net

 Your ORCA version has been built with support for libXC version: 6.2.2
 For citations please refer to: https://libxc.gitlab.io

 This ORCA versions uses:
   CBLAS   interface :  Fast vector & matrix operations
   LAPACKE interface :  Fast linear algebra routines
   SCALAPACK package :  Parallel linear algebra routines
   Shared memory     :  Shared parallel matrices
   BLAS/LAPACK       :  OpenBLAS 0.3.27  USE64BITINT DYNAMIC_ARCH NO_AFFINITY SkylakeX SINGLE_THREADED
        Core in use  :  SkylakeX
   Copyright (c) 2011-2014, The OpenBLAS Project


NOTE: MaxCore=3000 MB was set to SCF,MP2,MDCI,CIPSI,MRCI and CIS
      => If you want to overwrite this, your respective input block should be placed after the MaxCore statement
Your calculation utilizes the atom-pairwise dispersion correction
with the Becke-Johnson damping scheme (D3BJ)


Your calculation utilizes the SMD solvation module
Please cite in your paper:
A.V. Marenich, C.J. Cramer, D.G. Truhlar J. Phys. Chem. B, 113, (2009), 6378 

Warning: RI is on but no J-basis has been assigned. Assigning Def2/J (nothing to worry about!)
================================================================================

----- Orbital basis set information -----
Your calculation utilizes the basis: aug-cc-pVTZ 
    H, B-Ne : Obtained from the ccRepo (grant-hill.group.shef.ac.uk/ccrepo) Feb. 2017
              R. A. Kendall, T. H. Dunning, Jr., R. J. Harrison, J. Chem. Phys. 96, 6796 (1992)
         He : Obtained from the ccRepo (grant-hill.group.shef.ac.uk/ccrepo) Feb. 2017
              D. E. Woon, T. H. Dunning, Jr., J. Chem. Phys. 100, 2975 (1994)
  Li-Be, Na : Obtained from the ccRepo (grant-hill.group.shef.ac.uk/ccrepo) Feb. 2017
              B. P. Prascher, D. E. Woon, K. A. Peterson, T. H. Dunning, Jr., A. K. Wilson, Theor. Chem. Acc. 128, 69 (2011)
         Mg : Obtained from the Peterson Research Group Website (tyr0.chem.wsu.edu/~kipeters) Feb. 2017
              B. P. Prascher, D. E. Woon, K. A. Peterson, T. H. Dunning, Jr., A. K. Wilson, Theor. Chem. Acc. 128, 69 (2011)
      Al-Ar : Obtained from the ccRepo (grant-hill.group.shef.ac.uk/ccrepo) Feb. 2017
              D. E. Woon, T. H. Dunning, Jr., J. Chem. Phys. 98, 1358 (1993)
      Sc-Zn : Obtained from the ccRepo (grant-hill.group.shef.ac.uk/ccrepo) Feb. 2017
              N. B. Balabanov, K. A. Peterson, J. Chem. Phys. 123, 064107 (2005)
              N. B. Balabanov, K. A. Peterson, J. Chem. Phys. 125, 074110 (2006)
      Ga-Kr : Obtained from the ccRepo (grant-hill.group.shef.ac.uk/ccrepo) Feb. 2017
              A. K. Wilson, D. E. Woon, K. A. Peterson, T. H. Dunning, Jr., J. Chem. Phys. 110, 7667 (1999)
     Ag, Au : Obtained from the Peterson Research Group Website (tyr0.chem.wsu.edu/~kipeters) Feb. 2017
              K. A. Peterson, C. Puzzarini, Theor. Chem. Acc. 114, 283 (2005)

----- AuxJ basis set information -----
Your calculation utilizes the auxiliary basis: def2/J
   F. Weigend, Phys. Chem. Chem. Phys. 8, 1057 (2006).

================================================================================
                                        WARNINGS
                       Please study these warnings very carefully!
================================================================================

Using LibXC functional ID 497 : Re-regularized SCAN exchange by Furness et al
[ 1]  J. W. Furness, A. D. Kaplan, J. Ning, J. P. Perdew, and J. Sun.,  J. Phys. Chem. Lett. 11, 8208-8215 (2020)
[ 2]  J. W. Furness, A. D. Kaplan, J. Ning, J. P. Perdew, and J. Sun.,  J. Phys. Chem. Lett. 11, 9248-9248 (2020)
Using LibXC functional ID 498 : Re-regularized SCAN correlation by Furness et al
[ 1]  J. W. Furness, A. D. Kaplan, J. Ning, J. P. Perdew, and J. Sun.,  J. Phys. Chem. Lett. 11, 8208-8215 (2020)
[ 2]  J. W. Furness, A. D. Kaplan, J. Ning, J. P. Perdew, and J. Sun.,  J. Phys. Chem. Lett. 11, 9248-9248 (2020)
Using LibXC functional ID 497 : Re-regularized SCAN exchange by Furness et al
[ 1]  J. W. Furness, A. D. Kaplan, J. Ning, J. P. Perdew, and J. Sun.,  J. Phys. Chem. Lett. 11, 8208-8215 (2020)
[ 2]  J. W. Furness, A. D. Kaplan, J. Ning, J. P. Perdew, and J. Sun.,  J. Phys. Chem. Lett. 11, 9248-9248 (2020)
Using LibXC functional ID 498 : Re-regularized SCAN correlation by Furness et al
[ 1]  J. W. Furness, A. D. Kaplan, J. Ning, J. P. Perdew, and J. Sun.,  J. Phys. Chem. Lett. 11, 8208-8215 (2020)
[ 2]  J. W. Furness, A. D. Kaplan, J. Ning, J. P. Perdew, and J. Sun.,  J. Phys. Chem. Lett. 11, 9248-9248 (2020)


WARNING: Found flag for RIJCOSX approximation but no HF exchange needed!
  ===> : RIJCOSX  will be disabled and Split-RI-J is turned on

WARNING: your system is open-shell and RHF/RKS was chosen
  ===> : WILL SWITCH to UHF/UKS


================================================================================
                                       INPUT FILE
================================================================================
NAME = cs_rporg_020_ox_solv_03.inp
|  1> !r2SCAN aug-cc-pVTZ d3 TightSCF SlowConv RIJCOSX defgrid2
|  2>  
|  3> %pal
|  4> nprocs 4
|  5> end
|  6>  
|  7> %scf
|  8> MaxIter 1500
|  9> end
| 10>  
| 11> %maxcore 3000
| 12>  
| 13> !CPCM
| 14> %cpcm smd true
| 15> SMDsolvent "MeCN"
| 16> surfacetype gepol_ses
| 17> rsolv 2.19
| 18> end 
| 19>  
| 20> * xyz 1 2
| 21> C           0.39027202850425     -0.55394955520482     -0.01147318884514
| 22> C           1.46538411398227     -1.41201451226685      0.32843134291825
| 23> C           2.76223371510298     -0.95181499222389      0.33062494963678
| 24> C           3.04842985596685      0.39380533103560     -0.01062127484712
| 25> C           2.02568592855862      1.26931648709972     -0.30266231954854
| 26> C           0.67678776447609      0.85315037925119     -0.22862200210739
| 27> C          -0.33926818993375      1.86220315940674     -0.30117717382418
| 28> C          -1.56489251647505      1.82515242057598      0.30424492715440
| 29> C          -2.56690840928871      2.90896571125331      0.23231417274704
| 30> H          -3.53355272254525      2.51293544975722     -0.13479632863314
| 31> H          -2.77605157275142      3.30247609624592      1.24606137329070
| 32> H          -2.25129259404292      3.73887527736490     -0.41869887051134
| 33> H          -1.81399596674726      0.96710759352235      0.94261722102013
| 34> H          -0.04671759270647      2.79850717185556     -0.79419889631908
| 35> H           2.24475638702766      2.31715758324724     -0.52473414148750
| 36> H           4.08568441615477      0.73993162783082     -0.02214310519638
| 37> H           3.58311040506705     -1.63750220541102      0.55778721997041
| 38> H           1.27533483486936     -2.47214630677441      0.50835511028523
| 39> C          -0.92089212283098     -1.06759805095657     -0.27601443140599
| 40> C          -1.40401796068071     -2.28526831606367      0.13493631580958
| 41> C          -2.74957477405163     -2.79884516770918     -0.18467320513625
| 42> H          -3.33583401509727     -2.10778381332124     -0.80996844556913
| 43> H          -2.66557343194919     -3.77317132724075     -0.70581020687802
| 44> H          -3.31016753031929     -3.01606684555296      0.74550545986431
| 45> H          -0.77234901522658     -2.92837616395213      0.76142767228746
| 46> H          -1.58084503506342     -0.44553323176908     -0.89033947467507
| 47> *
| 48> 
| 49>                          ****END OF INPUT****
================================================================================

                       ****************************
                       * Single Point Calculation *
                       ****************************

---------------------------------
CARTESIAN COORDINATES (ANGSTROEM)
---------------------------------
  C      0.390272   -0.553950   -0.011473
  C      1.465384   -1.412015    0.328431
  C      2.762234   -0.951815    0.330625
  C      3.048430    0.393805   -0.010621
  C      2.025686    1.269316   -0.302662
  C      0.676788    0.853150   -0.228622
  C     -0.339268    1.862203   -0.301177
  C     -1.564893    1.825152    0.304245
  C     -2.566908    2.908966    0.232314
  H     -3.533553    2.512935   -0.134796
  H     -2.776052    3.302476    1.246061
  H     -2.251293    3.738875   -0.418699
  H     -1.813996    0.967108    0.942617
  H     -0.046718    2.798507   -0.794199
  H      2.244756    2.317158   -0.524734
  H      4.085684    0.739932   -0.022143
  H      3.583110   -1.637502    0.557787
  H      1.275335   -2.472146    0.508355
  C     -0.920892   -1.067598   -0.276014
  C     -1.404018   -2.285268    0.134936
  C     -2.749575   -2.798845   -0.184673
  H     -3.335834   -2.107784   -0.809968
  H     -2.665573   -3.773171   -0.705810
  H     -3.310168   -3.016067    0.745505
  H     -0.772349   -2.928376    0.761428
  H     -1.580845   -0.445533   -0.890339

----------------------------
CARTESIAN COORDINATES (A.U.)
----------------------------
  NO LB      ZA    FRAG     MASS         X           Y           Z
   0 C     6.0000    0    12.011    0.737507   -1.046813   -0.021681
   1 C     6.0000    0    12.011    2.769175   -2.668321    0.620645
   2 C     6.0000    0    12.011    5.219865   -1.798670    0.624791
   3 C     6.0000    0    12.011    5.760698    0.744184   -0.020071
   4 C     6.0000    0    12.011    3.827992    2.398661   -0.571949
   5 C     6.0000    0    12.011    1.278944    1.612221   -0.432033
   6 C     6.0000    0    12.011   -0.641124    3.519054   -0.569142
   7 C     6.0000    0    12.011   -2.957218    3.449038    0.574940
   8 C     6.0000    0    12.011   -4.850754    5.497149    0.439010
   9 H     1.0000    0     1.008   -6.677447    4.748760   -0.254728
  10 H     1.0000    0     1.008   -5.245977    6.240775    2.354715
  11 H     1.0000    0     1.008   -4.254326    7.065450   -0.791226
  12 H     1.0000    0     1.008   -3.427956    1.827568    1.781288
  13 H     1.0000    0     1.008   -0.088283    5.288412   -1.500818
  14 H     1.0000    0     1.008    4.241975    4.378793   -0.991604
  15 H     1.0000    0     1.008    7.720825    1.398268   -0.041844
  16 H     1.0000    0     1.008    6.771097   -3.094431    1.054065
  17 H     1.0000    0     1.008    2.410034   -4.671679    0.960652
  18 C     6.0000    0    12.011   -1.740234   -2.017468   -0.521592
  19 C     6.0000    0    12.011   -2.653209   -4.318531    0.254993
  20 C     6.0000    0    12.011   -5.195943   -5.289051   -0.348982
  21 H     1.0000    0     1.008   -6.303813   -3.983134   -1.530619
  22 H     1.0000    0     1.008   -5.037204   -7.130260   -1.333788
  23 H     1.0000    0     1.008   -6.255310   -5.699540    1.408801
  24 H     1.0000    0     1.008   -1.459528   -5.533829    1.438890
  25 H     1.0000    0     1.008   -2.987364   -0.841936   -1.682498

--------------------------------
INTERNAL COORDINATES (ANGSTROEM)
--------------------------------
 C      0   0   0     0.000000000000     0.00000000     0.00000000
 C      1   0   0     1.416925035982     0.00000000     0.00000000
 C      2   1   0     1.376084044703   120.85947516     0.00000000
 C      3   2   1     1.417410057513   120.49037079   359.89088517
 C      4   3   2     1.377611301214   120.29650865     2.30677035
 C      5   4   3     1.413577891378   120.67896583     1.88724171
 C      6   5   4     1.433813610123   117.79918910   168.73478328
 C      7   6   5     1.367502712031   126.41625597   211.09828042
 C      8   7   6     1.477789271828   124.49143398   178.15213102
 H      9   8   7     1.107253953073   110.22870697   125.53995268
 H      9   8   7     1.107372869692   110.12797668   241.43232960
 H      9   8   7     1.100991014155   112.78251635     3.59655090
 H      8   7   6     1.098095004882   118.80691223     2.18518864
 H      7   6   5     1.097871337871   115.72675641    23.40679139
 H      5   4   3     1.093288032793   120.22580904   177.43122569
 H      4   3   2     1.093541580617   119.63981234   181.11726205
 H      3   2   1     1.093438700393   119.87552137   182.36235883
 H      2   1   3     1.091957285007   119.69617209   185.25787278
 C      1   2   3     1.432818299000   121.43544087   167.49937286
 C     19   1   2     1.372957379659   125.78098854    20.85725855
 C     20  19   1     1.475274403775   124.39185371   181.64782990
 H     21  20  19     1.101026716728   112.96594858     0.96828380
 H     21  20  19     1.108129714973   109.80580868   122.83552964
 H     21  20  19     1.107556700367   110.36357064   238.26835479
 H     20  19   1     1.097763535744   119.20353811     2.97019568
 H     19   1   2     1.095398440944   116.82629382   203.12694627

---------------------------
INTERNAL COORDINATES (A.U.)
---------------------------
 C      0   0   0     0.000000000000     0.00000000     0.00000000
 C      1   0   0     2.677600270302     0.00000000     0.00000000
 C      2   1   0     2.600421981747   120.85947516     0.00000000
 C      3   2   1     2.678516828165   120.49037079   359.89088517
 C      4   3   2     2.603308078290   120.29650865     2.30677035
 C      5   4   3     2.671275083671   120.67896583     1.88724171
 C      6   5   4     2.709515050222   117.79918910   168.73478328
 C      7   6   5     2.584205613132   126.41625597   211.09828042
 C      8   7   6     2.792617007402   124.49143398   178.15213102
 H      9   8   7     2.092406732009   110.22870697   125.53995268
 H      9   8   7     2.092631451853   110.12797668   241.43232960
 H      9   8   7     2.080571492661   112.78251635     3.59655090
 H      8   7   6     2.075098828254   118.80691223     2.18518864
 H      7   6   5     2.074676158857   115.72675641    23.40679139
 H      5   4   3     2.066014967473   120.22580904   177.43122569
 H      4   3   2     2.066494103422   119.63981234   181.11726205
 H      3   2   1     2.066299687974   119.87552137   182.36235883
 H      2   1   3     2.063500218604   119.69617209   185.25787278
 C      1   2   3     2.707634184782   121.43544087   167.49937286
 C     19   1   2     2.594513441102   125.78098854    20.85725855
 C     20  19   1     2.787864595519   124.39185371   181.64782990
 H     21  20  19     2.080638960746   112.96594858     0.96828380
 H     21  20  19     2.094061682160   109.80580868   122.83552964
 H     21  20  19     2.092978841483   110.36357064   238.26835479
 H     20  19   1     2.074472442361   119.20353811     2.97019568
 H     19   1   2     2.070003060908   116.82629382   203.12694627

---------------------
BASIS SET INFORMATION
---------------------
There are 2 groups of distinct atoms

 Group   1 Type C   : 19s6p3d2f contracted to 5s4p3d2f pattern {88111/3111/111/11}
 Group   2 Type H   : 6s3p2d contracted to 4s3p2d pattern {3111/111/11}

Atom   0C    basis set group =>   1
Atom   1C    basis set group =>   1
Atom   2C    basis set group =>   1
Atom   3C    basis set group =>   1
Atom   4C    basis set group =>   1
Atom   5C    basis set group =>   1
Atom   6C    basis set group =>   1
Atom   7C    basis set group =>   1
Atom   8C    basis set group =>   1
Atom   9H    basis set group =>   2
Atom  10H    basis set group =>   2
Atom  11H    basis set group =>   2
Atom  12H    basis set group =>   2
Atom  13H    basis set group =>   2
Atom  14H    basis set group =>   2
Atom  15H    basis set group =>   2
Atom  16H    basis set group =>   2
Atom  17H    basis set group =>   2
Atom  18C    basis set group =>   1
Atom  19C    basis set group =>   1
Atom  20C    basis set group =>   1
Atom  21H    basis set group =>   2
Atom  22H    basis set group =>   2
Atom  23H    basis set group =>   2
Atom  24H    basis set group =>   2
Atom  25H    basis set group =>   2
---------------------------------
AUXILIARY/J BASIS SET INFORMATION
---------------------------------
There are 2 groups of distinct atoms

 Group   1 Type C   : 12s5p4d2f1g contracted to 6s4p3d1f1g pattern {711111/2111/211/2/1}
 Group   2 Type H   : 5s2p1d contracted to 3s1p1d pattern {311/2/1}

Atom   0C    basis set group =>   1
Atom   1C    basis set group =>   1
Atom   2C    basis set group =>   1
Atom   3C    basis set group =>   1
Atom   4C    basis set group =>   1
Atom   5C    basis set group =>   1
Atom   6C    basis set group =>   1
Atom   7C    basis set group =>   1
Atom   8C    basis set group =>   1
Atom   9H    basis set group =>   2
Atom  10H    basis set group =>   2
Atom  11H    basis set group =>   2
Atom  12H    basis set group =>   2
Atom  13H    basis set group =>   2
Atom  14H    basis set group =>   2
Atom  15H    basis set group =>   2
Atom  16H    basis set group =>   2
Atom  17H    basis set group =>   2
Atom  18C    basis set group =>   1
Atom  19C    basis set group =>   1
Atom  20C    basis set group =>   1
Atom  21H    basis set group =>   2
Atom  22H    basis set group =>   2
Atom  23H    basis set group =>   2
Atom  24H    basis set group =>   2
Atom  25H    basis set group =>   2


           ************************************************************
           *        Program running with 4 parallel MPI-processes     *
           *              working on a common directory               *
           ************************************************************
------------------------------------------------------------------------------
                             ORCA STARTUP CALCULATIONS
                           -- RI-GTO INTEGRALS CHOSEN --
------------------------------------------------------------------------------
------------------------------------------------------------------------------
                   ___                                                        
                  /   \      - P O W E R E D   B Y -                         
                 /     \                                                     
                 |  |  |   _    _      __       _____    __    __             
                 |  |  |  | |  | |    /  \     |  _  \  |  |  /  |          
                  \  \/   | |  | |   /    \    | | | |  |  | /  /          
                 / \  \   | |__| |  /  /\  \   | |_| |  |  |/  /          
                |  |  |   |  __  | /  /__\  \  |    /   |      \           
                |  |  |   | |  | | |   __   |  |    \   |  |\   \          
                \     /   | |  | | |  |  |  |  | |\  \  |  | \   \       
                 \___/    |_|  |_| |__|  |__|  |_| \__\ |__|  \__/        
                                                                              
                      - O R C A' S   B I G   F R I E N D -                    
                                      &                                       
                       - I N T E G R A L  F E E D E R -                       
                                                                              
 v1 FN, 2020, v2 2021, v3 2022-2024                                           
------------------------------------------------------------------------------


----------------------
SHARK INTEGRAL PACKAGE
----------------------

Number of atoms                             ...     26
Number of basis functions                   ...    946
Number of shells                            ...    366
Maximum angular momentum                    ...      3
Integral batch strategy                     ... SHARK/LIBINT Hybrid
RI-J (if used) integral strategy            ... SPLIT-RIJ (Revised 2003 algorithm where possible)
Printlevel                                  ...      1
Contraction scheme used                     ... PARTIAL GENERAL contraction
Prescreening option                         ... SCHWARTZ
   Thresh                                   ... 2.500e-11
   Tcut                                     ... 2.500e-12
   Tpresel                                  ... 2.500e-12 
Coulomb Range Separation                    ... NOT USED
Exchange Range Separation                   ... NOT USED
Multipole approximations                    ... NOT USED
Finite Nucleus Model                        ... NOT USED
CABS basis                                  ... NOT available
Auxiliary Coulomb fitting basis             ... AVAILABLE
   # of basis functions in Aux-J            ...    742
   # of shells in Aux-J                     ...    250
   Maximum angular momentum in Aux-J        ...      4
Auxiliary J/K fitting basis                 ... NOT available
Auxiliary Correlation fitting basis         ... NOT available
Auxiliary 'external' fitting basis          ... NOT available

Checking pre-screening integrals            ... done (  0.1 sec) Dimension = 366
Save PGC pre-screening integrals            ... done (  0.2 sec) Dimension = 366
Calculate PGC overlap integrals             ... done (  0.4 sec) Dimension = 294
Calculating pre-screening integrals (ORCA)  ... done (  0.6 sec) Dimension = 294
Check shell pair data                       ... done (  0.1 sec)
Shell pair information
Shell pair cut-off parameter TPreSel        ...   2.5e-12
Total number of shell pairs                 ...     67161
Shell pairs after pre-screening             ...     53338
Total number of primitive shell pairs       ...     87649
Primitive shell pairs kept                  ...     63699
          la=0 lb=0:  12006 shell pairs
          la=1 lb=0:  13753 shell pairs
          la=1 lb=1:   3668 shell pairs
          la=2 lb=0:   9566 shell pairs
          la=2 lb=1:   5077 shell pairs
          la=2 lb=2:   1809 shell pairs
          la=3 lb=0:   3787 shell pairs
          la=3 lb=1:   1974 shell pairs
          la=3 lb=2:   1408 shell pairs
          la=3 lb=3:    290 shell pairs

Calculating one electron integrals          ... done (  0.1 sec)
Calculating RI/J V-Matrix + Cholesky decomp.... done (  0.2 sec)
Calculating Nuclear repulsion               ... done (  0.0 sec) ENN=    629.406172393287 Eh

Diagonalization of the overlap matrix:
Smallest eigenvalue                        ... 6.126e-07
Time for diagonalization                   ...    0.176 sec
Threshold for overlap eigenvalues          ... 1.000e-07
Number of eigenvalues below threshold      ... 0

IMPORTANT:
Smallest eigenvalue of S below the DiffSThresh (1.000e-06) while
Thresh>1e-12 and/or TCut>1e-13! In order to avoid SCF convergence issues,
Thresh will be set to at least 1e-12 and TCut to at least 1e-13.
This can be turned off by adding %SCF DiffSThresh -1 END to the input.

Time for construction of square roots      ...    0.096 sec
Total time needed                          ...    0.345 sec

-------------------
DFT GRID GENERATION
-------------------

General Integration Accuracy     IntAcc      ... 4.388
Radial Grid Type                 RadialGrid  ... OptM3 with GC (2021)
Angular Grid (max. ang.)         AngularGrid ... 4 (Lebedev-302)
Angular grid pruning method      GridPruning ... 4 (adaptive)
Weight generation scheme         WeightScheme... mBecke (2022)
Basis function cutoff            BFCut       ... 1.0000e-11
Integration weight cutoff        WCut        ... 1.0000e-14
Partially contracted basis set               ... off
Rotationally invariant grid construction     ... off
Angular grids for H and He will be reduced by one unit
Diffuse basis detected: some atoms will have their outermost
                        angular grid increased by 1.

Total number of grid points                  ...   122398
Total number of batches                      ...     1926
Average number of points per batch           ...       63
Average number of grid points per atom       ...     4708

---------------------
SHARK GRID GENERATION
---------------------

General Integration Accuracy     IntAcc      ... 4.388
Radial Grid Type                 RadialGrid  ... OptM3 with GC (2021)
Angular Grid (max. ang.)         AngularGrid ... 4 (Lebedev-302)
Angular grid pruning method      GridPruning ... 4 (adaptive)
Weight generation scheme         WeightScheme... mBecke (2022)
Basis function cutoff            BFCut       ... 1.0000e-11
Integration weight cutoff        WCut        ... 1.0000e-14
Partially contracted basis set               ... off
Rotationally invariant grid construction     ... off
Angular grids for H and He will be reduced by one unit
Diffuse basis detected: some atoms will have their outermost
                        angular grid increased by 1.
Steep s-basis detected: some atoms will have their radial
                        grid points doubled.

Total number of grid points                  ...   197577
Total number of batches                      ...     3101
Average number of points per batch           ...       63
Average number of grid points per atom       ...     7599
Initializing property integral containers    ... done (  0.1 sec)

SHARK setup successfully completed in  13.9 seconds

Maximum memory used throughout the entire STARTUP-calculation: 117.6 MB


           ************************************************************
           *        Program running with 4 parallel MPI-processes     *
           *              working on a common directory               *
           ************************************************************
-------------------------------------------------------------------------------
                                 ORCA GUESS
                   Start orbitals & Density for SCF / CASSCF
-------------------------------------------------------------------------------

------------
SCF SETTINGS
------------
Hamiltonian:
 Density Functional     Method          .... DFT(GTOs)
  Functional kind                       .... Exchange
  Functional name                       .... Re-regularized SCAN exchange by Furness et al
  Functional family                     .... MGGA
  Functional refs                              
    [ 0] J. W. Furness, A. D. Kaplan, J. Ning, J. P. Perdew, and J. Sun.,  J. Phys. Chem. Lett. 11, 8208-8215 (2020), doi: 10.1021/acs.jpclett.0c02405
    [ 1] J. W. Furness, A. D. Kaplan, J. Ning, J. P. Perdew, and J. Sun.,  J. Phys. Chem. Lett. 11, 9248-9248 (2020), doi: 10.1021/acs.jpclett.0c03077
  Functional external parameters        .... 6
    Parameter  0 _c1        =  6.670000e-01 : c1 parameter        
    Parameter  1 _c2        =  8.000000e-01 : c2 parameter        
    Parameter  2 _d         =  1.240000e+00 : d parameter         
    Parameter  3 _k1        =  6.500000e-02 : k1 parameter        
    Parameter  4 _eta       =  1.000000e-03 : eta parameter       
    Parameter  5 _dp2       =  3.610000e-01 : dp2 parameter       
  Functional kind                       .... Correlation
  Functional name                       .... Re-regularized SCAN correlation by Furness et al
  Functional family                     .... MGGA
  Functional refs                              
    [ 0] J. W. Furness, A. D. Kaplan, J. Ning, J. P. Perdew, and J. Sun.,  J. Phys. Chem. Lett. 11, 8208-8215 (2020), doi: 10.1021/acs.jpclett.0c02405
    [ 1] J. W. Furness, A. D. Kaplan, J. Ning, J. P. Perdew, and J. Sun.,  J. Phys. Chem. Lett. 11, 9248-9248 (2020), doi: 10.1021/acs.jpclett.0c03077
  Functional external parameters        .... 1
    Parameter  0 _eta       =  1.000000e-03 : Regularization parameter
 Gradients option       PostSCFGGA      .... off
   NL short-range parameter             .... 12.300000
 RI-approximation to the Coulomb term is turned on
   Number of AuxJ basis functions       .... 742


General Settings:
 Integral files         IntName         .... cs_rporg_020_ox_solv_03
 Hartree-Fock type      HFTyp           .... UHF
 Total Charge           Charge          ....    1
 Multiplicity           Mult            ....    2
 Number of Electrons    NEL             ....   85
 Basis Dimension        Dim             ....  874
 Nuclear Repulsion      ENuc            ....    629.4061723933 Eh

Convergence Acceleration:
 AO-DIIS                CNVDIIS         .... on
   Start iteration      DIISMaxIt       ....     0
   Startup error        DIISStart       ....  0.200000
   # of expansion vecs  DIISMaxEq       ....     5
   Bias factor          DIISBfac        ....   1.050
   Max. coefficient     DIISMaxC        ....  10.000
 MO-DIIS                CNVKDIIS        .... off
 Trust-Rad. Augm. Hess. CNVTRAH         .... auto
   Auto Start mean grad. ratio tolernc. ....  1.125000
   Auto Start start iteration           ....    50
   Auto Start num. interpolation iter.  ....    10
   Max. Number of Micro iterations      ....    24
   Max. Number of Macro iterations      .... Maxiter - #DIIS iter
   Number of Davidson start vectors     ....     2
   Converg. threshold    (grad. norm)   ....   1.000e-05
   Grad. Scal. Fac. for Micro threshold ....   0.100
   Minimum threshold for Micro iter.    ....   1.000e-02
   NR start threshold (gradient norm)   ....   1.000e-04
   Initial trust radius                 ....   0.400
   Minimum AH scaling param. (alpha)    ....   1.000
   Maximum AH scaling param. (alpha)    .... 1000.000
   Quad. conv. algorithm                .... NR
   White noise on init. David. guess    .... on
   Maximum white noise                  ....   0.010
   Pseudo random numbers                .... off
   Inactive MOs                         .... canonical
   Orbital update algorithm             .... Taylor
   Preconditioner                       .... Diag
   Full preconditioner red. dimension   ....   250
 SOSCF                  CNVSOSCF        .... on
   Start iteration      SOSCFMaxIt      ....   150
   Startup grad/error   SOSCFStart      ....  0.001000
   Hessian update       SOSCFHessUp     .... L-BFGS
 Level Shifting         CNVShift        .... on
   Level shift para.    LevelShift      ....    0.2500
   Turn off err/grad.   ShiftErr        ....    0.0000
 Zerner damping         CNVZerner       .... off
 Static damping         CNVDamp         .... on
   Fraction old density DampFac         ....    0.8500
   Max. Damping (<1)    DampMax         ....    0.9800
   Min. Damping (>=0)   DampMin         ....    0.0000
   Turn off err/grad.   DampErr         ....    0.0300

SCF Procedure:
 Maximum # iterations   MaxIter         ....  1500
 SCF integral mode      SCFMode         .... Direct
   Integral package                     .... SHARK and LIBINT hybrid scheme
 Reset frequency        DirectResetFreq ....    20
 Integral Threshold     Thresh          ....  1.000e-12 Eh
 Primitive CutOff       TCut            ....  1.000e-13 Eh

Convergence Tolerance:
 Convergence Check Mode ConvCheckMode   .... Total+1el-Energy
 Convergence forced     ConvForced      .... 0
 Energy Change          TolE            ....  1.000e-08 Eh
 1-El. energy change                    ....  1.000e-05 Eh
 Orbital Gradient       TolG            ....  1.000e-05
 Orbital Rotation angle TolX            ....  1.000e-05
 DIIS Error             TolErr          ....  5.000e-07

------------------------------
INITIAL GUESS: MODEL POTENTIAL
------------------------------
Loading Hartree-Fock densities                     ... done
Calculating cut-offs                               ... done
Initializing the effective Hamiltonian             ... done
Setting up the integral package (SHARK)            ... done
Starting the Coulomb interaction                   ... done (   1.2 sec)
Making the grid                                    ... done (   0.7 sec)
Mapping shells                                     ... done
Starting the XC term evaluation                    ... done (   1.9 sec)
  promolecular density results
     # of electrons  =     85.992473463
     EX              =    -65.437500956
     EC              =     -2.811772613
     EX+EC           =    -68.249273569
Transforming the Hamiltonian                       ... done (   0.1 sec)
Diagonalizing the Hamiltonian                      ... done (   0.2 sec)
Back transforming the eigenvectors                 ... done (   0.1 sec)
Now organizing SCF variables                       ... done
                      ------------------
                      INITIAL GUESS DONE (   4.5 sec)
                      ------------------
             **** ENERGY FILE WAS UPDATED (cs_rporg_020_ox_solv_03.en.tmp) ****
Finished Guess after   5.9 sec
Maximum memory used throughout the entire GUESS-calculation: 94.5 MB


           ************************************************************
           *        Program running with 4 parallel MPI-processes     *
           *              working on a common directory               *
           ************************************************************

-------------------------------------------------------------------------------------------
                                      ORCA LEAN-SCF
                              memory conserving SCF solver
-------------------------------------------------------------------------------------------

--------------------
CPCM SOLVATION MODEL
--------------------
CPCM parameters:
  Epsilon                                         ...      35.6880
  Refrac                                          ...       1.3442
  Rsolv                                           ...       2.1900
  Surface type                                    ...    GEPOL SES
  Discretization scheme                           ... Constant num. charges
  Epsilon function type                           ...         CPCM
Solvent:                                          ... ACETONITRILE
SMD-CDS solvent descriptors:
  Soln                                            ...       1.3442
  Soln25                                          ...       1.3416
  Sola                                            ...       0.0700
  Solb                                            ...       0.3200
  Solg                                            ...      41.2500
  Solc                                            ...       0.0000
  Solh                                            ...       0.0000
Radii:
  Scheme                                          ... Element-dependent radii
  Radius for C  used is    3.4960 Bohr (=   1.8500 Ang.)
  Radius for H  used is    2.2677 Bohr (=   1.2000 Ang.)
Calculating surface                               ...        done! (  0.1s)
Cavity surface points                             ...         1159
Cavity Volume                                     ...    1334.6626
Cavity Surface-area                               ...     756.2599
Calculating surface distance matrix               ...        done! (  0.0s)
Performing Cholesky decomposition & store         ...        done! (  0.1s)
Overall time for CPCM initialization              ...                 0.2s

----------------------------------------D-I-I-S--------------------------------------------
Iteration    Energy (Eh)           Delta-E    RMSDP     MaxDP     DIISErr   Damp  Time(sec)
-------------------------------------------------------------------------------------------
               ***  Starting incremental Fock matrix formation  ***
    1    -465.1615832189887669     0.00e+00  4.54e-04  3.25e-02  8.95e-02  0.850  40.0
Warning: op=1 Small HOMO/LUMO gap (   0.025) - skipping pre-diagonalization
         Will do a full diagonalization
    2    -465.2123351338360635    -5.08e-02  4.35e-04  2.74e-02  6.75e-02  0.850  33.9
                               ***Turning on AO-DIIS***
    3    -465.2472717252222765    -3.49e-02  3.33e-04  2.30e-02  4.62e-02  0.850  32.5
    4    -465.2705295147364950    -2.33e-02  2.72e-04  1.86e-02  3.64e-02  0.850  31.6
    5    -465.2875066713125989    -1.70e-02  2.29e-04  1.50e-02  3.03e-02  0.850  30.9
    6    -465.3008555309821759    -1.33e-02  1.94e-04  1.23e-02  2.56e-02  0.850  30.5
    7    -465.3117621745062706    -1.09e-02  1.10e-03  6.76e-02  2.16e-02  0.000  28.2
    8    -465.3666807195601223    -5.49e-02  4.96e-05  3.47e-03  1.96e-03  0.000  32.9
    9    -465.3668025793061815    -1.22e-04  2.31e-05  2.04e-03  1.26e-03  0.000  27.0
                              *** Initializing SOSCF ***
---------------------------------------S-O-S-C-F--------------------------------------
Iteration    Energy (Eh)           Delta-E    RMSDP     MaxDP     MaxGrad    Time(sec)
--------------------------------------------------------------------------------------
   10    -465.3668688149863328    -6.62e-05  2.19e-05  2.74e-03  7.11e-04    26.9
               *** Restarting incremental Fock matrix formation ***
   11    -465.3669025417387957    -3.37e-05  1.02e-05  5.35e-04  8.72e-04    33.6
   12    -465.3669249428938883    -2.24e-05  3.02e-05  1.78e-03  4.33e-04    23.3
   13    -465.3669381328237478    -1.32e-05  9.38e-06  1.10e-03  4.04e-04    24.1
   14    -465.3669433433750555    -5.21e-06  3.41e-06  1.86e-04  1.47e-04    22.0
   15    -465.3669437053196134    -3.62e-07  1.87e-06  1.04e-04  5.63e-05    21.1
   16    -465.3669442130147900    -5.08e-07  8.21e-07  6.32e-05  1.72e-05    20.3
   17    -465.3669442011004094     1.19e-08  5.08e-07  4.66e-05  1.63e-05    18.8
   18    -465.3669442414856121    -4.04e-08  6.67e-07  5.79e-05  4.20e-06    19.2
   19    -465.3669442403896710     1.10e-09  7.02e-07  5.79e-05  3.15e-06    18.6
                 **** Energy Check signals convergence ****

               *****************************************************
               *                     SUCCESS                       *
               *           SCF CONVERGED AFTER  19 CYCLES          *
               *****************************************************


SMD CDS free energy correction energy :                -2.79091     Kcal/mol
Total Energy after SMD CDS correction =              -465.371391837 Eh
             **** ENERGY FILE WAS UPDATED (cs_rporg_020_ox_solv_03.en.tmp) ****

----------------
TOTAL SCF ENERGY
----------------

Total Energy       :       -465.37139183746490 Eh          -12663.39937 eV

Components:
Nuclear Repulsion  :        629.40617239328697 Eh           17127.01267 eV
Electronic Energy  :      -1094.69696550082813 Eh          -29788.21884 eV
One Electron Energy:      -1860.56477460327778 Eh          -50628.54142 eV
Two Electron Energy:        765.86780910244966 Eh           20840.32259 eV
CPCM Dielectric    :         -0.07615113284844 Eh              -2.07218 eV
SMD CDS (Gcds)     :         -0.00444759707520 Eh              -0.12103 eV

Virial components:
Potential Energy   :       -927.81456968173859 Eh          -25247.11798 eV
Kinetic Energy     :        462.44317784427369 Eh           12583.71861 eV
Virial Ratio       :          2.00633205144650

DFT components:
N(Alpha)           :       43.000007493323 electrons
N(Beta)            :       42.000006978348 electrons
N(Total)           :       85.000014471671 electrons
E(X)               :      -67.060879723417 Eh       
E(C)               :       -2.683310332804 Eh       
E(XC)              :      -69.744190056221 Eh       

CPCM Solvation Model Properties:
Surface-charge          :         -1.04665491860283
Corrected charge        :         -1.00000000000000
Outlying charge corr.   :          0.00013968794265 Eh               0.00380 eV
Free-energy (cav+disp)  :         -0.00444759707520 Eh              -0.12103 eV

---------------
SCF CONVERGENCE
---------------

  Last Energy change         ...   -1.0959e-09  Tolerance :   1.0000e-08
  Last MAX-Density change    ...    5.7866e-05  Tolerance :   1.0000e-07
  Last RMS-Density change    ...    7.0205e-07  Tolerance :   5.0000e-09
  Last DIIS Error            ...    7.1108e-04  Tolerance :   5.0000e-07
  Last Orbital Gradient      ...    3.1459e-06  Tolerance :   1.0000e-05
  Last Orbital Rotation      ...    5.6474e-05  Tolerance :   1.0000e-05


----------------------
UHF SPIN CONTAMINATION
----------------------

Warning: in a DFT calculation there is little theoretical justification to 
         calculate <S**2> as in Hartree-Fock theory. We will do it anyways
         but you should keep in mind that the values have only limited relevance

Expectation value of <S**2>     :     0.774302
Ideal value S*(S+1) for S=0.5   :     0.750000
Deviation                       :     0.024302

----------------
ORBITAL ENERGIES
----------------
                 SPIN UP ORBITALS
  NO   OCC          E(Eh)            E(eV) 
   0   1.0000     -10.103022      -274.9172 
   1   1.0000     -10.100685      -274.8536 
   2   1.0000     -10.095255      -274.7059 
   3   1.0000     -10.089824      -274.5581 
   4   1.0000     -10.079955      -274.2895 
   5   1.0000     -10.074592      -274.1436 
   6   1.0000     -10.073663      -274.1183 
   7   1.0000     -10.072213      -274.0789 
   8   1.0000     -10.068625      -273.9812 
   9   1.0000     -10.066328      -273.9187 
  10   1.0000     -10.046349      -273.3751 
  11   1.0000     -10.044545      -273.3260 
  12   1.0000      -0.869092       -23.6492 
  13   1.0000      -0.805323       -21.9139 
  14   1.0000      -0.802104       -21.8264 
  15   1.0000      -0.750048       -20.4098 
  16   1.0000      -0.748418       -20.3655 
  17   1.0000      -0.685523       -18.6540 
  18   1.0000      -0.663912       -18.0660 
  19   1.0000      -0.611979       -16.6528 
  20   1.0000      -0.595162       -16.1952 
  21   1.0000      -0.548715       -14.9313 
  22   1.0000      -0.544020       -14.8035 
  23   1.0000      -0.502415       -13.6714 
  24   1.0000      -0.471862       -12.8400 
  25   1.0000      -0.462893       -12.5960 
  26   1.0000      -0.437028       -11.8921 
  27   1.0000      -0.423727       -11.5302 
  28   1.0000      -0.422122       -11.4865 
  29   1.0000      -0.402603       -10.9554 
  30   1.0000      -0.398721       -10.8498 
  31   1.0000      -0.397705       -10.8221 
  32   1.0000      -0.381446       -10.3797 
  33   1.0000      -0.378495       -10.2994 
  34   1.0000      -0.368805       -10.0357 
  35   1.0000      -0.350849        -9.5471 
  36   1.0000      -0.345281        -9.3956 
  37   1.0000      -0.339359        -9.2344 
  38   1.0000      -0.330281        -8.9874 
  39   1.0000      -0.305870        -8.3231 
  40   1.0000      -0.303181        -8.2500 
  41   1.0000      -0.249894        -6.8000 
  42   1.0000      -0.231747        -6.3062 
  43   0.0000      -0.114396        -3.1129 
  44   0.0000      -0.081528        -2.2185 
  45   0.0000      -0.030533        -0.8308 
  46   0.0000      -0.011320        -0.3080 
  47   0.0000       0.005659         0.1540 
  48   0.0000       0.014640         0.3984 
  49   0.0000       0.015392         0.4188 
  50   0.0000       0.025122         0.6836 
  51   0.0000       0.032770         0.8917 
  52   0.0000       0.033918         0.9230 
  53   0.0000       0.035139         0.9562 

                 SPIN DOWN ORBITALS
  NO   OCC          E(Eh)            E(eV) 
   0   1.0000     -10.100178      -274.8398 
   1   1.0000     -10.098157      -274.7848 
   2   1.0000     -10.089173      -274.5403 
   3   1.0000     -10.085474      -274.4397 
   4   1.0000     -10.080093      -274.2933 
   5   1.0000     -10.074550      -274.1424 
   6   1.0000     -10.072100      -274.0758 
   7   1.0000     -10.071069      -274.0477 
   8   1.0000     -10.069165      -273.9959 
   9   1.0000     -10.067108      -273.9399 
  10   1.0000     -10.046499      -273.3791 
  11   1.0000     -10.044662      -273.3291 
  12   1.0000      -0.863461       -23.4960 
  13   1.0000      -0.797728       -21.7073 
  14   1.0000      -0.795669       -21.6513 
  15   1.0000      -0.745426       -20.2841 
  16   1.0000      -0.742174       -20.1956 
  17   1.0000      -0.685093       -18.6423 
  18   1.0000      -0.660555       -17.9746 
  19   1.0000      -0.607373       -16.5275 
  20   1.0000      -0.590858       -16.0781 
  21   1.0000      -0.543638       -14.7931 
  22   1.0000      -0.540414       -14.7054 
  23   1.0000      -0.501082       -13.6351 
  24   1.0000      -0.470364       -12.7993 
  25   1.0000      -0.461274       -12.5519 
  26   1.0000      -0.435226       -11.8431 
  27   1.0000      -0.421500       -11.4696 
  28   1.0000      -0.418956       -11.4004 
  29   1.0000      -0.397857       -10.8263 
  30   1.0000      -0.391438       -10.6516 
  31   1.0000      -0.390808       -10.6344 
  32   1.0000      -0.377974       -10.2852 
  33   1.0000      -0.371337       -10.1046 
  34   1.0000      -0.367030        -9.9874 
  35   1.0000      -0.349675        -9.5151 
  36   1.0000      -0.344258        -9.3677 
  37   1.0000      -0.338131        -9.2010 
  38   1.0000      -0.328350        -8.9349 
  39   1.0000      -0.296599        -8.0709 
  40   1.0000      -0.291457        -7.9309 
  41   1.0000      -0.240191        -6.5359 
  42   0.0000      -0.200656        -5.4601 
  43   0.0000      -0.088396        -2.4054 
  44   0.0000      -0.072073        -1.9612 
  45   0.0000      -0.015512        -0.4221 
  46   0.0000       0.003447         0.0938 
  47   0.0000       0.006922         0.1884 
  48   0.0000       0.015640         0.4256 
  49   0.0000       0.016212         0.4411 
  50   0.0000       0.025758         0.7009 
  51   0.0000       0.033729         0.9178 
  52   0.0000       0.034535         0.9397 
*Only the first 10 virtual orbitals were printed.

                    ********************************
                    * MULLIKEN POPULATION ANALYSIS *
                    ********************************

--------------------------------------------
MULLIKEN ATOMIC CHARGES AND SPIN POPULATIONS
--------------------------------------------
   0 C :    1.560463    0.232788
   1 C :   -0.851298   -0.075793
   2 C :   -0.655444    0.073239
   3 C :   -0.345118    0.098497
   4 C :   -0.937629   -0.081141
   5 C :    1.416449    0.167084
   6 C :   -0.305169   -0.020009
   7 C :    0.124990    0.226764
   8 C :   -0.762741   -0.026039
   9 H :    0.189299    0.022696
  10 H :    0.188280    0.022673
  11 H :    0.229133   -0.004261
  12 H :    0.249992    0.023257
  13 H :    0.005188    0.006390
  14 H :    0.047711   -0.000222
  15 H :    0.481819    0.005713
  16 H :    0.428012    0.002832
  17 H :    0.025588   -0.006051
  18 C :    0.127509   -0.024167
  19 C :   -0.431285    0.311705
  20 C :   -0.713025   -0.048938
  21 H :    0.235967   -0.007428
  22 H :    0.203591    0.034279
  23 H :    0.170297    0.032747
  24 H :    0.161937    0.037990
  25 H :    0.155484   -0.004603
Sum of atomic charges         :    1.0000000
Sum of atomic spin populations:    1.0000000

-----------------------------------------------------
MULLIKEN REDUCED ORBITAL CHARGES AND SPIN POPULATIONS
-----------------------------------------------------
CHARGE
  0 C s       :     3.262833  s :     3.262833
      pz      :     0.869653  p :     1.425128
      px      :     0.179649
      py      :     0.375826
      dz2     :    -0.033829  d :    -0.143346
      dxz     :    -0.014712
      dyz     :    -0.055203
      dx2y2   :    -0.010427
      dxy     :    -0.029176
      f0      :    -0.000366  f :    -0.105077
      f+1     :    -0.003356
      f-1     :    -0.001657
      f+2     :    -0.008866
      f-2     :    -0.005093
      f+3     :    -0.047682
      f-3     :    -0.038057

  1 C s       :     3.928234  s :     3.928234
      pz      :     0.975639  p :     2.791265
      px      :     0.854913
      py      :     0.960713
      dz2     :     0.001957  d :     0.147670
      dxz     :     0.050089
      dyz     :    -0.009583
      dx2y2   :     0.109864
      dxy     :    -0.004657
      f0      :     0.000721  f :    -0.015871
      f+1     :     0.000272
      f-1     :    -0.000377
      f+2     :    -0.001155
      f-2     :    -0.000837
      f+3     :    -0.006955
      f-3     :    -0.007540

  2 C s       :     3.773547  s :     3.773547
      pz      :     0.910671  p :     2.818248
      px      :     1.097167
      py      :     0.810410
      dz2     :    -0.004324  d :     0.067973
      dxz     :     0.036819
      dyz     :     0.028728
      dx2y2   :     0.044310
      dxy     :    -0.037560
      f0      :     0.000349  f :    -0.004324
      f+1     :     0.000435
      f-1     :     0.000118
      f+2     :    -0.000734
      f-2     :     0.001270
      f+3     :    -0.002853
      f-3     :    -0.002909

  3 C s       :     3.599930  s :     3.599930
      pz      :     0.944455  p :     2.752336
      px      :     0.945108
      py      :     0.862773
      dz2     :     0.003893  d :    -0.002685
      dxz     :     0.026341
      dyz     :     0.033282
      dx2y2   :     0.001120
      dxy     :    -0.067322
      f0      :     0.000615  f :    -0.004463
      f+1     :     0.001069
      f-1     :     0.000419
      f+2     :    -0.000621
      f-2     :    -0.000746
      f+3     :    -0.007343
      f-3     :     0.002144

  4 C s       :     4.099386  s :     4.099386
      pz      :     0.960824  p :     2.768778
      px      :     0.914599
      py      :     0.893355
      dz2     :     0.006786  d :     0.079573
      dxz     :     0.000353
      dyz     :     0.010687
      dx2y2   :     0.093956
      dxy     :    -0.032208
      f0      :     0.000855  f :    -0.010108
      f+1     :    -0.000449
      f-1     :    -0.000407
      f+2     :    -0.000146
      f-2     :    -0.000734
      f+3     :    -0.014099
      f-3     :     0.004872

  5 C s       :     3.167323  s :     3.167323
      pz      :     0.937703  p :     1.761987
      px      :     0.219071
      py      :     0.605212
      dz2     :    -0.024030  d :    -0.247661
      dxz     :    -0.050381
      dyz     :     0.018755
      dx2y2   :    -0.101400
      dxy     :    -0.090605
      f0      :    -0.000708  f :    -0.098098
      f+1     :    -0.003584
      f-1     :    -0.001327
      f+2     :    -0.004802
      f-2     :    -0.003490
      f+3     :    -0.050656
      f-3     :    -0.033531

  6 C s       :     3.800937  s :     3.800937
      pz      :     0.954041  p :     2.557707
      px      :     0.639059
      py      :     0.964607
      dz2     :     0.012757  d :    -0.020258
      dxz     :    -0.003674
      dyz     :     0.009655
      dx2y2   :    -0.028920
      dxy     :    -0.010076
      f0      :     0.000209  f :    -0.033217
      f+1     :    -0.002974
      f-1     :     0.000117
      f+2     :    -0.002272
      f-2     :    -0.004331
      f+3     :    -0.010422
      f-3     :    -0.013544

  7 C s       :     3.456760  s :     3.456760
      pz      :     0.875069  p :     2.442957
      px      :     0.690877
      py      :     0.877012
      dz2     :    -0.001341  d :    -0.005693
      dxz     :     0.005805
      dyz     :     0.015964
      dx2y2   :     0.033146
      dxy     :    -0.059267
      f0      :    -0.001383  f :    -0.019014
      f+1     :    -0.001283
      f-1     :     0.000208
      f+2     :    -0.001433
      f-2     :    -0.005187
      f+3     :    -0.005513
      f-3     :    -0.004423

  8 C s       :     3.565947  s :     3.565947
      pz      :     1.114152  p :     3.123899
      px      :     1.013685
      py      :     0.996062
      dz2     :     0.015509  d :     0.064523
      dxz     :     0.012345
      dyz     :     0.014294
      dx2y2   :     0.007576
      dxy     :     0.014799
      f0      :     0.002127  f :     0.008372
      f+1     :    -0.000585
      f-1     :     0.001299
      f+2     :     0.001051
      f-2     :     0.003026
      f+3     :     0.000935
      f-3     :     0.000519

  9 H s       :     0.746087  s :     0.746087
      pz      :     0.020835  p :     0.056050
      px      :     0.019959
      py      :     0.015256
      dz2     :     0.001466  d :     0.008564
      dxz     :     0.001369
      dyz     :     0.000743
      dx2y2   :     0.002185
      dxy     :     0.002801

 10 H s       :     0.750248  s :     0.750248
      pz      :     0.012515  p :     0.052711
      px      :     0.021099
      py      :     0.019096
      dz2     :     0.001109  d :     0.008761
      dxz     :     0.003123
      dyz     :     0.002563
      dx2y2   :    -0.000022
      dxy     :     0.001989

 11 H s       :     0.713988  s :     0.713988
      pz      :     0.015601  p :     0.048675
      px      :     0.007608
      py      :     0.025467
      dz2     :     0.003353  d :     0.008204
      dxz     :     0.000476
      dyz     :     0.000298
      dx2y2   :     0.001249
      dxy     :     0.002828

 12 H s       :     0.736030  s :     0.736030
      pz      :     0.017930  p :     0.005946
      px      :     0.008265
      py      :    -0.020249
      dz2     :     0.003169  d :     0.008032
      dxz     :     0.000279
      dyz     :     0.000932
      dx2y2   :     0.001086
      dxy     :     0.002566

 13 H s       :     0.977029  s :     0.977029
      pz      :     0.023443  p :     0.008658
      px      :    -0.013423
      py      :    -0.001362
      dz2     :     0.002684  d :     0.009125
      dxz     :    -0.000008
      dyz     :     0.001966
      dx2y2   :     0.003158
      dxy     :     0.001326

 14 H s       :     0.899530  s :     0.899530
      pz      :     0.032971  p :     0.042596
      px      :     0.016361
      py      :    -0.006737
      dz2     :     0.000471  d :     0.010164
      dxz     :     0.000271
      dyz     :     0.004783
      dx2y2   :     0.000631
      dxy     :     0.004008

 15 H s       :     0.511051  s :     0.511051
      pz      :     0.022476  p :    -0.002614
      px      :    -0.024005
      py      :    -0.001085
      dz2     :    -0.000342  d :     0.009744
      dxz     :     0.004948
      dyz     :     0.000424
      dx2y2   :     0.002302
      dxy     :     0.002413

 16 H s       :     0.556371  s :     0.556371
      pz      :     0.019771  p :     0.005754
      px      :    -0.008716
      py      :    -0.005301
      dz2     :     0.000646  d :     0.009863
      dxz     :     0.002447
      dyz     :     0.001910
      dx2y2   :     0.003299
      dxy     :     0.001560

 17 H s       :     0.944843  s :     0.944843
      pz      :     0.033836  p :     0.021335
      px      :    -0.006678
      py      :    -0.005823
      dz2     :    -0.000599  d :     0.008235
      dxz     :    -0.000279
      dyz     :     0.005743
      dx2y2   :     0.003200
      dxy     :     0.000170

 18 C s       :     3.515506  s :     3.515506
      pz      :     0.981897  p :     2.484262
      px      :     0.833268
      py      :     0.669097
      dz2     :     0.019673  d :    -0.092056
      dxz     :    -0.055229
      dyz     :    -0.006740
      dx2y2   :    -0.052065
      dxy     :     0.002304
      f0      :    -0.000870  f :    -0.035221
      f+1     :    -0.001158
      f-1     :    -0.002313
      f+2     :    -0.005043
      f-2     :    -0.001705
      f+3     :    -0.019767
      f-3     :    -0.004364

 19 C s       :     3.842985  s :     3.842985
      pz      :     0.837189  p :     2.542996
      px      :     0.864006
      py      :     0.841802
      dz2     :     0.002654  d :     0.058555
      dxz     :     0.044280
      dyz     :    -0.013340
      dx2y2   :    -0.019468
      dxy     :     0.044429
      f0      :    -0.001165  f :    -0.013251
      f+1     :    -0.000209
      f-1     :    -0.001188
      f+2     :    -0.001175
      f-2     :    -0.001967
      f+3     :    -0.005711
      f-3     :    -0.001836

 20 C s       :     3.553122  s :     3.553122
      pz      :     1.096428  p :     3.098921
      px      :     0.917197
      py      :     1.085297
      dz2     :     0.006431  d :     0.051967
      dxz     :     0.011601
      dyz     :     0.016152
      dx2y2   :     0.003658
      dxy     :     0.014125
      f0      :     0.001152  f :     0.009014
      f+1     :     0.001587
      f-1     :     0.000104
      f+2     :     0.002899
      f-2     :     0.001576
      f+3     :     0.001494
      f-3     :     0.000202

 21 H s       :     0.706711  s :     0.706711
      pz      :     0.016352  p :     0.048196
      px      :     0.022068
      py      :     0.009776
      dz2     :     0.002574  d :     0.009126
      dxz     :     0.001761
      dyz     :     0.000588
      dx2y2   :     0.003656
      dxy     :     0.000547

 22 H s       :     0.739610  s :     0.739610
      pz      :     0.019066  p :     0.048646
      px      :     0.015840
      py      :     0.013739
      dz2     :     0.001896  d :     0.008153
      dxz     :     0.000951
      dyz     :     0.001002
      dx2y2   :     0.000297
      dxy     :     0.004007

 23 H s       :     0.760457  s :     0.760457
      pz      :     0.014774  p :     0.060740
      px      :     0.024689
      py      :     0.021277
      dz2     :     0.001959  d :     0.008506
      dxz     :     0.000597
      dyz     :     0.002951
      dx2y2   :     0.001341
      dxy     :     0.001658

 24 H s       :     0.806776  s :     0.806776
      pz      :     0.014981  p :     0.023061
      px      :    -0.012113
      py      :     0.020192
      dz2     :     0.004107  d :     0.008226
      dxz     :     0.001494
      dyz     :     0.000767
      dx2y2   :     0.000937
      dxy     :     0.000921

 25 H s       :     0.882452  s :     0.882452
      pz      :     0.003063  p :    -0.047999
      px      :     0.001138
      py      :    -0.052201
      dz2     :     0.003462  d :     0.010064
      dxz     :     0.002159
      dyz     :    -0.001264
      dx2y2   :     0.002292
      dxy     :     0.003414


SPIN
  0 C s       :     0.046680  s :     0.046680
      pz      :     0.136762  p :     0.188486
      px      :     0.021571
      py      :     0.030153
      dz2     :     0.001934  d :     0.001467
      dxz     :     0.004169
      dyz     :    -0.000283
      dx2y2   :     0.003882
      dxy     :    -0.008234
      f0      :    -0.000333  f :    -0.003846
      f+1     :    -0.000201
      f-1     :    -0.000112
      f+2     :    -0.000892
      f-2     :    -0.000026
      f+3     :    -0.002467
      f-3     :     0.000185

  1 C s       :    -0.017161  s :    -0.017161
      pz      :    -0.045032  p :    -0.064551
      px      :    -0.015077
      py      :    -0.004442
      dz2     :     0.001189  d :     0.006536
      dxz     :    -0.001497
      dyz     :     0.000453
      dx2y2   :     0.006407
      dxy     :    -0.000016
      f0      :     0.000109  f :    -0.000617
      f+1     :    -0.000027
      f-1     :     0.000123
      f+2     :    -0.000052
      f-2     :    -0.000074
      f+3     :    -0.000265
      f-3     :    -0.000431

  2 C s       :     0.002931  s :     0.002931
      pz      :     0.068742  p :     0.072612
      px      :     0.005622
      py      :    -0.001753
      dz2     :    -0.000430  d :    -0.001615
      dxz     :    -0.001906
      dyz     :     0.000508
      dx2y2   :    -0.001119
      dxy     :     0.001333
      f0      :    -0.000107  f :    -0.000689
      f+1     :    -0.000036
      f-1     :    -0.000190
      f+2     :    -0.000032
      f-2     :    -0.000060
      f+3     :    -0.000017
      f-3     :    -0.000247

  3 C s       :     0.006354  s :     0.006354
      pz      :     0.086994  p :     0.095933
      px      :     0.004162
      py      :     0.004776
      dz2     :    -0.001188  d :    -0.002885
      dxz     :     0.000650
      dyz     :     0.000479
      dx2y2   :    -0.000004
      dxy     :    -0.002823
      f0      :    -0.000138  f :    -0.000905
      f+1     :    -0.000173
      f-1     :    -0.000224
      f+2     :    -0.000005
      f-2     :    -0.000163
      f+3     :    -0.000300
      f-3     :     0.000099

  4 C s       :    -0.022225  s :    -0.022225
      pz      :    -0.048940  p :    -0.067247
      px      :    -0.009262
      py      :    -0.009045
      dz2     :     0.000573  d :     0.008866
      dxz     :     0.004145
      dyz     :     0.000748
      dx2y2   :     0.003017
      dxy     :     0.000383
      f0      :     0.000005  f :    -0.000535
      f+1     :     0.000175
      f-1     :     0.000048
      f+2     :    -0.000203
      f-2     :    -0.000176
      f+3     :    -0.000361
      f-3     :    -0.000022

  5 C s       :     0.020133  s :     0.020133
      pz      :     0.133998  p :     0.156117
      px      :     0.014062
      py      :     0.008056
      dz2     :    -0.001696  d :    -0.005767
      dxz     :     0.001059
      dyz     :    -0.004321
      dx2y2   :     0.003984
      dxy     :    -0.004792
      f0      :    -0.000401  f :    -0.003398
      f+1     :    -0.000075
      f-1     :    -0.000123
      f+2     :    -0.000125
      f-2     :    -0.000607
      f+3     :    -0.001391
      f-3     :    -0.000676

  6 C s       :    -0.019020  s :    -0.019020
      pz      :     0.009209  p :    -0.001927
      px      :     0.010676
      py      :    -0.021812
      dz2     :     0.000912  d :     0.002066
      dxz     :     0.004740
      dyz     :     0.001198
      dx2y2   :    -0.000749
      dxy     :    -0.004035
      f0      :     0.000184  f :    -0.001128
      f+1     :     0.000115
      f-1     :     0.000145
      f+2     :    -0.000245
      f-2     :    -0.000709
      f+3     :    -0.000054
      f-3     :    -0.000563

  7 C s       :    -0.018349  s :    -0.018349
      pz      :     0.124366  p :     0.245682
      px      :     0.063093
      py      :     0.058223
      dz2     :     0.001825  d :     0.001484
      dxz     :     0.001712
      dyz     :    -0.002768
      dx2y2   :     0.001392
      dxy     :    -0.000678
      f0      :    -0.000199  f :    -0.002052
      f+1     :    -0.000539
      f-1     :    -0.000113
      f+2     :    -0.000256
      f-2     :    -0.000281
      f+3     :    -0.000283
      f-3     :    -0.000381

  8 C s       :    -0.026592  s :    -0.026592
      pz      :    -0.002082  p :    -0.007745
      px      :    -0.000975
      py      :    -0.004688
      dz2     :     0.000939  d :     0.007843
      dxz     :     0.003215
      dyz     :    -0.000098
      dx2y2   :     0.002852
      dxy     :     0.000934
      f0      :    -0.000006  f :     0.000455
      f+1     :     0.000048
      f-1     :     0.000168
      f+2     :     0.000084
      f-2     :     0.000138
      f+3     :    -0.000127
      f-3     :     0.000151

  9 H s       :     0.019315  s :     0.019315
      pz      :     0.000444  p :     0.002977
      px      :     0.001919
      py      :     0.000613
      dz2     :     0.000056  d :     0.000404
      dxz     :    -0.000044
      dyz     :     0.000081
      dx2y2   :     0.000191
      dxy     :     0.000121

 10 H s       :     0.020150  s :     0.020150
      pz      :     0.000188  p :     0.002181
      px      :     0.001165
      py      :     0.000827
      dz2     :     0.000065  d :     0.000342
      dxz     :     0.000113
      dyz     :     0.000151
      dx2y2   :    -0.000076
      dxy     :     0.000089

 11 H s       :    -0.004619  s :    -0.004619
      pz      :     0.000063  p :     0.000151
      px      :    -0.000118
      py      :     0.000205
      dz2     :     0.000117  d :     0.000207
      dxz     :    -0.000026
      dyz     :     0.000045
      dx2y2   :    -0.000056
      dxy     :     0.000125

 12 H s       :     0.016589  s :     0.016589
      pz      :     0.004325  p :     0.006652
      px      :     0.002687
      py      :    -0.000360
      dz2     :     0.000169  d :     0.000017
      dxz     :    -0.000043
      dyz     :     0.000162
      dx2y2   :     0.000046
      dxy     :    -0.000317

 13 H s       :     0.007658  s :     0.007658
      pz      :    -0.000368  p :    -0.001249
      px      :     0.000826
      py      :    -0.001708
      dz2     :    -0.000088  d :    -0.000019
      dxz     :    -0.000013
      dyz     :    -0.000049
      dx2y2   :     0.000012
      dxy     :     0.000120

 14 H s       :     0.001024  s :     0.001024
      pz      :    -0.002451  p :    -0.001031
      px      :     0.000704
      py      :     0.000715
      dz2     :    -0.000045  d :    -0.000214
      dxz     :    -0.000071
      dyz     :    -0.000215
      dx2y2   :     0.000111
      dxy     :     0.000006

 15 H s       :     0.003379  s :     0.003379
      pz      :     0.001955  p :     0.002024
      px      :     0.000432
      py      :    -0.000364
      dz2     :     0.000045  d :     0.000310
      dxz     :     0.000238
      dyz     :     0.000082
      dx2y2   :     0.000002
      dxy     :    -0.000057

 16 H s       :     0.001483  s :     0.001483
      pz      :     0.000838  p :     0.001100
      px      :     0.000122
      py      :     0.000140
      dz2     :     0.000084  d :     0.000248
      dxz     :     0.000033
      dyz     :     0.000148
      dx2y2   :     0.000008
      dxy     :    -0.000025

 17 H s       :    -0.006185  s :    -0.006185
      pz      :    -0.002295  p :     0.000106
      px      :     0.001849
      py      :     0.000552
      dz2     :     0.000023  d :     0.000028
      dxz     :    -0.000043
      dyz     :    -0.000224
      dx2y2   :     0.000192
      dxy     :     0.000079

 18 C s       :    -0.018508  s :    -0.018508
      pz      :    -0.016640  p :    -0.006269
      px      :    -0.004037
      py      :     0.014409
      dz2     :     0.001262  d :     0.002068
      dxz     :     0.000799
      dyz     :     0.002029
      dx2y2   :    -0.002546
      dxy     :     0.000524
      f0      :     0.000066  f :    -0.001458
      f+1     :     0.000260
      f-1     :    -0.000130
      f+2     :    -0.000158
      f-2     :    -0.000366
      f+3     :    -0.000924
      f-3     :    -0.000205

 19 C s       :    -0.025869  s :    -0.025869
      pz      :     0.222482  p :     0.338592
      px      :     0.041941
      py      :     0.074169
      dz2     :    -0.000161  d :     0.001857
      dxz     :    -0.000101
      dyz     :    -0.000031
      dx2y2   :    -0.000172
      dxy     :     0.002322
      f0      :    -0.000450  f :    -0.002876
      f+1     :    -0.000055
      f-1     :    -0.000558
      f+2     :    -0.000203
      f-2     :    -0.000766
      f+3     :    -0.000404
      f-3     :    -0.000439

 20 C s       :    -0.039931  s :    -0.039931
      pz      :    -0.002384  p :    -0.015244
      px      :    -0.011807
      py      :    -0.001053
      dz2     :    -0.000512  d :     0.005740
      dxz     :     0.003190
      dyz     :     0.002413
      dx2y2   :     0.000596
      dxy     :     0.000053
      f0      :    -0.000126  f :     0.000496
      f+1     :     0.000592
      f-1     :     0.000017
      f+2     :     0.000226
      f-2     :    -0.000230
      f+3     :    -0.000008
      f-3     :     0.000025

 21 H s       :    -0.007131  s :    -0.007131
      pz      :    -0.000862  p :    -0.000531
      px      :     0.000392
      py      :    -0.000061
      dz2     :     0.000008  d :     0.000234
      dxz     :     0.000125
      dyz     :     0.000029
      dx2y2   :     0.000127
      dxy     :    -0.000055

 22 H s       :     0.030612  s :     0.030612
      pz      :     0.000742  p :     0.003206
      px      :     0.001874
      py      :     0.000590
      dz2     :     0.000037  d :     0.000461
      dxz     :     0.000036
      dyz     :     0.000062
      dx2y2   :     0.000079
      dxy     :     0.000248

 23 H s       :     0.028513  s :     0.028513
      pz      :     0.000647  p :     0.003685
      px      :     0.002291
      py      :     0.000748
      dz2     :     0.000140  d :     0.000548
      dxz     :     0.000158
      dyz     :     0.000137
      dx2y2   :    -0.000011
      dxy     :     0.000124

 24 H s       :     0.027010  s :     0.027010
      pz      :     0.007792  p :     0.010345
      px      :     0.001176
      py      :     0.001377
      dz2     :     0.000804  d :     0.000635
      dxz     :     0.000060
      dyz     :    -0.000026
      dx2y2   :    -0.000282
      dxy     :     0.000079

 25 H s       :     0.001596  s :     0.001596
      pz      :    -0.001068  p :    -0.006505
      px      :    -0.004923
      py      :    -0.000514
      dz2     :    -0.000129  d :     0.000306
      dxz     :     0.000048
      dyz     :     0.000146
      dx2y2   :     0.000339
      dxy     :    -0.000098



                     *******************************
                     * LOEWDIN POPULATION ANALYSIS *
                     *******************************

-------------------------------------------
LOEWDIN ATOMIC CHARGES AND SPIN POPULATIONS
-------------------------------------------
   0 C :   -0.064480    0.099383
   1 C :    0.250884    0.015211
   2 C :    0.251816    0.047525
   3 C :    0.250574    0.055426
   4 C :    0.247945    0.010834
   5 C :   -0.074302    0.093102
   6 C :    0.260556    0.062263
   7 C :    0.260003    0.131031
   8 C :    0.604290    0.042274
   9 H :   -0.145485    0.009635
  10 H :   -0.144329    0.009884
  11 H :   -0.157956    0.000926
  12 H :   -0.155293    0.020988
  13 H :   -0.151299    0.004991
  14 H :   -0.150308   -0.004848
  15 H :   -0.148904    0.011473
  16 H :   -0.149578    0.008631
  17 H :   -0.167329   -0.003844
  18 C :    0.252093    0.076295
  19 C :    0.287450    0.183768
  20 C :    0.608167    0.059467
  21 H :   -0.156312    0.001149
  22 H :   -0.142388    0.014620
  23 H :   -0.142977    0.012513
  24 H :   -0.150396    0.032649
  25 H :   -0.172440    0.004652

----------------------------------------------------
LOEWDIN REDUCED ORBITAL CHARGES AND SPIN POPULATIONS
----------------------------------------------------
CHARGE
  0 C s       :     2.461438  s :     2.461438
      pz      :     0.583984  p :     2.221299
      px      :     0.822623
      py      :     0.814692
      dz2     :     0.090884  d :     0.895779
      dxz     :     0.142109
      dyz     :     0.124093
      dx2y2   :     0.272723
      dxy     :     0.265970
      f0      :     0.033332  f :     0.485964
      f+1     :     0.035252
      f-1     :     0.032690
      f+2     :     0.063494
      f-2     :     0.062103
      f+3     :     0.157323
      f-3     :     0.101769

  1 C s       :     2.477743  s :     2.477743
      pz      :     0.600629  p :     2.256016
      px      :     0.844386
      py      :     0.811001
      dz2     :     0.070065  d :     0.684285
      dxz     :     0.122586
      dyz     :     0.045324
      dx2y2   :     0.253020
      dxy     :     0.193290
      f0      :     0.023107  f :     0.331072
      f+1     :     0.033645
      f-1     :     0.018774
      f+2     :     0.027529
      f-2     :     0.042203
      f+3     :     0.110266
      f-3     :     0.075547

  2 C s       :     2.493573  s :     2.493573
      pz      :     0.586103  p :     2.253514
      px      :     0.848444
      py      :     0.818967
      dz2     :     0.068425  d :     0.671629
      dxz     :     0.077818
      dyz     :     0.085563
      dx2y2   :     0.170981
      dxy     :     0.268842
[...]
      px      :    -0.000162
      py      :    -0.000088
      dz2     :     0.000523  d :     0.001222
      dxz     :     0.000431
      dyz     :     0.000059
      dx2y2   :    -0.000085
      dxy     :     0.000296

 12 H s       :    -0.003205  s :    -0.003205
      pz      :     0.007472  p :     0.010368
      px      :     0.001883
      py      :     0.001013
      dz2     :     0.008085  d :     0.013825
      dxz     :    -0.000043
      dyz     :     0.001486
      dx2y2   :     0.001474
      dxy     :     0.002823

 13 H s       :     0.002234  s :     0.002234
      pz      :     0.000700  p :     0.000395
      px      :     0.000356
      py      :    -0.000662
      dz2     :     0.001228  d :     0.002362
      dxz     :     0.000946
      dyz     :    -0.000335
      dx2y2   :    -0.000274
      dxy     :     0.000798

 14 H s       :     0.000479  s :     0.000479
      pz      :    -0.002741  p :    -0.003339
      px      :    -0.000187
      py      :    -0.000412
      dz2     :    -0.000305  d :    -0.001988
      dxz     :     0.000543
      dyz     :    -0.001768
      dx2y2   :    -0.000187
      dxy     :    -0.000271

 15 H s       :    -0.001204  s :    -0.001204
      pz      :     0.005939  p :     0.007170
      px      :     0.000630
      py      :     0.000602
      dz2     :     0.000002  d :     0.005506
      dxz     :     0.003459
      dyz     :     0.001268
      dx2y2   :     0.000442
      dxy     :     0.000336

 16 H s       :    -0.000918  s :    -0.000918
      pz      :     0.004653  p :     0.005350
      px      :     0.000133
      py      :     0.000563
      dz2     :     0.000615  d :     0.004199
      dxz     :     0.000690
      dyz     :     0.002394
      dx2y2   :     0.000245
      dxy     :     0.000257

 17 H s       :     0.000451  s :     0.000451
      pz      :    -0.002391  p :    -0.002903
      px      :    -0.000168
      py      :    -0.000344
      dz2     :     0.000217  d :    -0.001392
      dxz     :    -0.000327
      dyz     :    -0.000899
      dx2y2   :    -0.000192
      dxy     :    -0.000190

 18 C s       :    -0.000592  s :    -0.000592
      pz      :    -0.001964  p :     0.003487
      px      :     0.005765
      py      :    -0.000314
      dz2     :     0.002773  d :     0.052093
      dxz     :     0.018490
      dyz     :     0.015950
      dx2y2   :     0.012899
      dxy     :     0.001981
      f0      :     0.001176  f :     0.021306
      f+1     :     0.004059
      f-1     :     0.006134
      f+2     :     0.003853
      f-2     :     0.001895
      f+3     :     0.000826
      f-3     :     0.003363

 19 C s       :     0.007037  s :     0.007037
      pz      :     0.118615  p :     0.177216
      px      :     0.022759
      py      :     0.035842
      dz2     :    -0.001284  d :     0.001111
      dxz     :     0.001269
      dyz     :    -0.000794
      dx2y2   :     0.002686
      dxy     :    -0.000766
      f0      :    -0.000535  f :    -0.001596
      f+1     :     0.000304
      f-1     :    -0.000741
      f+2     :     0.000082
      f-2     :    -0.001639
      f+3     :     0.001026
      f-3     :    -0.000092

 20 C s       :    -0.000768  s :    -0.000768
      pz      :     0.003087  p :    -0.001451
      px      :    -0.004039
      py      :    -0.000498
      dz2     :     0.000800  d :     0.043635
      dxz     :     0.017299
      dyz     :     0.011122
      dx2y2   :     0.013015
      dxy     :     0.001399
      f0      :     0.002130  f :     0.018051
      f+1     :     0.004654
      f-1     :     0.000183
      f+2     :     0.001972
      f-2     :     0.003641
      f+3     :     0.004741
      f-3     :     0.000731

 21 H s       :     0.000143  s :     0.000143
      pz      :    -0.000097  p :    -0.000632
      px      :    -0.000429
      py      :    -0.000106
      dz2     :     0.000234  d :     0.001637
      dxz     :     0.000193
      dyz     :     0.000799
      dx2y2   :     0.000522
      dxy     :    -0.000111

 22 H s       :     0.013029  s :     0.013029
      pz      :     0.000392  p :     0.001129
      px      :     0.000180
      py      :     0.000557
      dz2     :    -0.000041  d :     0.000462
      dxz     :     0.000128
      dyz     :     0.000045
      dx2y2   :     0.000031
      dxy     :     0.000301

 23 H s       :     0.011470  s :     0.011470
      pz      :    -0.000022  p :     0.000678
      px      :     0.000992
      py      :    -0.000291
      dz2     :    -0.000166  d :     0.000365
      dxz     :    -0.000176
      dyz     :     0.000513
      dx2y2   :    -0.000072
      dxy     :     0.000266

 24 H s       :    -0.004704  s :    -0.004704
      pz      :     0.012815  p :     0.019681
      px      :     0.003022
      py      :     0.003844
      dz2     :     0.010588  d :     0.017672
      dxz     :     0.000803
      dyz     :     0.001627
      dx2y2   :     0.000253
      dxy     :     0.004402

 25 H s       :     0.000383  s :     0.000383
      pz      :    -0.000262  p :    -0.002160
      px      :    -0.001103
      py      :    -0.000795
      dz2     :     0.001626  d :     0.006430
      dxz     :    -0.000488
      dyz     :     0.002596
      dx2y2   :     0.002342
      dxy     :     0.000353



                      *****************************
                      * MAYER POPULATION ANALYSIS *
                      *****************************

  NA   - Mulliken gross atomic population
  ZA   - Total nuclear charge
  QA   - Mulliken gross atomic charge
  VA   - Mayer's total valence
  BVA  - Mayer's bonded valence
  FA   - Mayer's free valence

  ATOM       NA         ZA         QA         VA         BVA        FA
  0 C      4.4395     6.0000     1.5605     0.5767     0.5475     0.0291
  1 C      6.8513     6.0000    -0.8513     2.5087     2.5055     0.0032
  2 C      6.6554     6.0000    -0.6554     2.6306     2.6252     0.0054
  3 C      6.3451     6.0000    -0.3451     2.5651     2.5563     0.0089
  4 C      6.9376     6.0000    -0.9376     2.1866     2.1831     0.0034
  5 C      4.5836     6.0000     1.4164     0.8823     0.8604     0.0219
  6 C      6.3052     6.0000    -0.3052     2.5154     2.5119     0.0036
  7 C      5.8750     6.0000     0.1250     2.6731     2.6174     0.0556
  8 C      6.7627     6.0000    -0.7627     3.7263     3.7246     0.0017
  9 H      0.8107     1.0000     0.1893     1.0335     1.0332     0.0003
 10 H      0.8117     1.0000     0.1883     1.0321     1.0317     0.0004
 11 H      0.7709     1.0000     0.2291     1.0026     1.0026     0.0000
 12 H      0.7500     1.0000     0.2500     0.8690     0.8688     0.0003
 13 H      0.9948     1.0000     0.0052     1.0353     1.0352     0.0001
 14 H      0.9523     1.0000     0.0477     1.1468     1.1468    -0.0000
 15 H      0.5182     1.0000     0.4818     0.6138     0.6138     0.0000
 16 H      0.5720     1.0000     0.4280     0.7037     0.7037     0.0000
 17 H      0.9744     1.0000     0.0256     1.0657     1.0656     0.0000
 18 C      5.8725     6.0000     0.1275     2.3710     2.3674     0.0036
 19 C      6.4313     6.0000    -0.4313     2.6759     2.5703     0.1056
 20 C      6.7130     6.0000    -0.7130     3.6408     3.6373     0.0035
 21 H      0.7640     1.0000     0.2360     0.9909     0.9908     0.0000
 22 H      0.7964     1.0000     0.2036     1.0050     1.0041     0.0009
 23 H      0.8297     1.0000     0.1703     1.0688     1.0681     0.0007
 24 H      0.8381     1.0000     0.1619     0.8916     0.8907     0.0009
 25 H      0.8445     1.0000     0.1555     0.8528     0.8528    -0.0000

  Mayer bond orders larger than 0.100000
B(  0-C ,  1-C ) :   0.2956 B(  0-C ,  3-C ) :  -0.2854 B(  0-C ,  4-C ) :  -0.1878 
B(  0-C ,  5-C ) :   0.8777 B(  0-C ,  6-C ) :  -0.1454 B(  0-C ,  7-C ) :  -0.1211 
B(  0-C , 17-H ) :  -0.1346 B(  0-C , 18-C ) :   0.3154 B(  0-C , 19-C ) :  -0.1271 
B(  0-C , 24-H ) :  -0.1322 B(  1-C ,  2-C ) :   1.0825 B(  1-C ,  5-C ) :  -0.3448 
B(  1-C , 17-H ) :   1.3068 B(  1-C , 18-C ) :   0.1182 B(  2-C ,  3-C ) :   1.0623 
B(  2-C ,  5-C ) :  -0.1968 B(  2-C , 16-H ) :   0.6448 B(  2-C , 17-H ) :  -0.1310 
B(  3-C ,  4-C ) :   0.9724 B(  3-C , 15-H ) :   0.5970 B(  4-C ,  5-C ) :   0.1936 
B(  4-C ,  6-C ) :  -0.1684 B(  4-C ,  7-C ) :   0.1310 B(  4-C , 14-H ) :   1.2283 
B(  4-C , 18-C ) :   0.1587 B(  5-C ,  6-C ) :   0.4581 B(  5-C , 12-H ) :  -0.1256 
B(  5-C , 18-C ) :  -0.2575 B(  5-C , 19-C ) :   0.1461 B(  6-C ,  7-C ) :   0.8948 
B(  6-C , 13-H ) :   1.1977 B(  7-C ,  8-C ) :   0.6970 B(  7-C , 12-H ) :   1.0690 
B(  7-C , 13-H ) :  -0.1459 B(  8-C ,  9-H ) :   1.0035 B(  8-C , 10-H ) :   1.0201 
B(  8-C , 11-H ) :   0.9495 B( 18-C , 19-C ) :   0.8015 B( 18-C , 25-H ) :   1.0873 
B( 19-C , 20-C ) :   0.7277 B( 19-C , 24-H ) :   1.1543 B( 19-C , 25-H ) :  -0.1500 
B( 20-C , 21-H ) :   0.9503 B( 20-C , 22-H ) :   0.9846 B( 20-C , 23-H ) :   1.0466 
B( 20-C , 24-H ) :  -0.1088 

-------
TIMINGS
-------

Total SCF time: 0 days 0 hours 8 min 38 sec 

Total time                  ....     518.732 sec
Sum of individual times     ....     518.603 sec  (100.0%)

SCF preparation             ....       1.256 sec  (  0.2%)
Fock matrix formation       ....     488.424 sec  ( 94.2%)
  Startup                   ....       1.852 sec  (  0.4% of F)
  Split-RI-J                ....      36.977 sec  (  7.6% of F)
  XC integration            ....     418.934 sec  ( 85.8% of F)
    XC Preparation          ....       0.000 sec  (  0.0% of XC)
    Basis function eval.    ....      19.299 sec  (  4.6% of XC)
    Density eval.           ....     128.864 sec  ( 30.8% of XC)
    XC-Functional eval.     ....       2.414 sec  (  0.6% of XC)
    XC-Potential eval.      ....     247.250 sec  ( 59.0% of XC)
  CPCM terms                ....      24.643 sec  (  5.0% of F)
Diagonalization             ....       0.000 sec  (  0.0%)
Density matrix formation    ....       4.057 sec  (  0.8%)
Total Energy calculation    ....       1.961 sec  (  0.4%)
Population analysis         ....       0.734 sec  (  0.1%)
Orbital Transformation      ....       2.523 sec  (  0.5%)
Orbital Orthonormalization  ....       0.000 sec  (  0.0%)
DIIS solution               ....      13.205 sec  (  2.5%)
SOSCF solution              ....       6.444 sec  (  1.2%)
Finished LeanSCF after 519.1 sec

Maximum memory used throughout the entire LEANSCF-calculation: 127.9 MB


-------------------------------------------------------------------------------
                          DFT DISPERSION CORRECTION                            
                                                                               
                              DFTD3 V3.1  Rev 1                                
                          USING Becke-Johnson damping                          
-------------------------------------------------------------------------------
The R2SCAN functional is recognized
Active option DFTDOPT                   ...         4   

molecular C6(AA) [au] = 6958.085260 


            DFT-D V3
 parameters
 s6 scaling factor         :     1.0000 
 a1 scaling factor         :     0.4948 
 s8 scaling factor         :     0.7898 
 a2 scaling factor         :     5.7308 
 ad hoc parameters k1-k3   :    16.0000     1.3333    -4.0000 

 Edisp/kcal,au: -5.575644179246  -0.008885353632 
 E6   /kcal   :  -4.385272718 
 E8   /kcal   :  -1.190371461 
 % E8         :  21.349487575 

-------------------------   ----------------
Dispersion correction           -0.008885354
-------------------------   ----------------


-------------------------   --------------------
FINAL SINGLE POINT ENERGY      -465.380277191097
-------------------------   --------------------



           ************************************************************
           *        Program running with 4 parallel MPI-processes     *
           *              working on a common directory               *
           ************************************************************

------------------------------------------------------------------------------
                              ORCA PROPERTY CALCULATIONS
------------------------------------------------------------------------------

GBWName                                 ... cs_rporg_020_ox_solv_03.gbw
Number of atoms                         ...     26
Number of basis functions               ...    946
Max core memory                         ...   3000 MB

Electric properties:
Dipole moment                           ... YES
Quadrupole moment                       ...  NO
Static polarizability (Dipole/Dipole)   ...  NO
Static polarizability (Dipole/Quad.)    ...  NO
Static polarizability (Quad./Quad.)     ...  NO
Static polarizability (Velocity)        ...  NO

Atomic electric properties:
Dipole moment                           ...  NO
Quadrupole moment                       ...  NO
Static polarizability                   ...  NO

Choice of electric origin               ... Center of mass
Position of electric origin             ...    -0.013097     0.006139     0.007746

General magnetic properties:
Magnetizability                         ...  NO

EPR properties:
g-Tensor (aka g-matrix)                 ...  NO
Zero-Field splitting spin-orbit         ...  NO
Zero-field splitting spin-spin          ...  NO
Hyperfine couplings                     ...  NO (   0 nuclei)
Quadrupole couplings                    ...  NO (   0 nuclei)
Contact density                         ...  NO (   0 nuclei)

NMR properties:
Chemical shifts                         ...  NO (   0 nuclei)
Spin-rotation constants                 ...  NO (   0 nuclei)
Spin-spin couplings                     ...  NO (   0 nuclei,    0 pairs)

Choice of magnetic origin               ... GIAO
Position of magnetic origin             ...     0.000000     0.000000     0.000000

Properties with geometric perturbations:
SCF Hessian                             ...  NO
IR spectrum                             ...  NO
VCD spectrum                            ...  NO
X-ray spectroscopy properties:
SCF XES/XAS/RIXS spectra                ...  NO


-------------
DIPOLE MOMENT
-------------

Method             : SCF
Type of density    : Electron Density
Multiplicity       :   2
Irrep              :   0
Energy             :  -465.3713918374648983 Eh
Relativity type    : 
Basis              : AO
                                X                 Y                 Z
Electronic contribution:      9.356141132      -0.247618607      -0.223054863
Nuclear contribution   :    -10.132740029      -0.046037469       0.378723665
                        -----------------------------------------
Total Dipole Moment    :     -0.776598897      -0.293656076       0.155668803
                        -----------------------------------------
Magnitude (a.u.)       :      0.844732214
Magnitude (Debye)      :      2.147138653



--------------------
Rotational spectrum 
--------------------
 
Rotational constants in cm-1:             0.031811             0.026577             0.014887 
Rotational constants in MHz :           953.672417           796.765756           446.304428 

Dipole components along the rotational axes: 
x,y,z [a.u.] :    -0.789800    -0.255308     0.156864 
x,y,z [Debye]:    -2.007512    -0.648941     0.398716 

 

Dipole moment calculation done in   0.1 sec 

Maximum memory used throughout the entire PROP-calculation: 102.5 MB

--------------------------------
SUGGESTED CITATIONS FOR THIS RUN
--------------------------------

Below you find a list of papers that are relevant to this ORCA run
We neither can nor want to force you to cite these papers, but we appreciate if you do
You receive ORCA, which is the product of decades of hard work by many enthusiastic individuals, for free
The only thing we kindly ask in return is that you cite our papers,
We deeply appreciate it, if you show your appreciation for ORCA by not just citing the generic ORCA reference.

Please note that relegating all ORCA citations to the supporting information does *not* help us.
SI sections are not indexed - citations you put there will not count into any citation statistics
But we need these citations in order to attract the funding resources that allow us to do what we are doing

Therefore, if you are a happy ORCA user, please consider citing a few of the papers listed below in the main body of your paper

In addition to the list printed below, the program has created the file cs_rporg_020_ox_solv_03.bibtex that contains the list in bibtex format
You can import this file easily into all common literature databanks and citation aid programs


List of essential papers. We consider these as the minimum necessary citations

  1. Neese,F.
     Software update: the ORCA program system, version 5.0
     WIRES Comput. Molec. Sci., 2022 12(1)e1606
     doi.org/10.1002/wcms.1606

List of papers to cite with high priority. The work reported in these papers was absolutely
necessary for this run to complete.
Our perspective: the developers of density functionals and basis sets usually get cited in chemistry papers
Good! But without the algorithms to do something with them, the functionals or basis sets would not do anything.
Hence, in our opinion, the algorithm design and method developments papers are equally worthy of getting cited

  1. Neese,F.
     An improvement of the resolution of the identity approximation for the formation of the Coulomb matrix
     J. Comp. Chem., 2003 24(14)1740-1747
     doi.org/10.1002/jcc.10318
  2. Garcia-Rates,M.; Neese,F.
     Effect of the Solute Cavity on the Solvation Energy and its Derivatives within the Framework of the Gaussian Charge Scheme
     J. Comput. Chem., 2020 41 922-939
     doi.org/10.1002/jcc.26139
  3. Neese,F.
     The SHARK Integral Generation and Digestion System
     J. Comp. Chem., 2022  1-16
     doi.org/10.1002/jcc.26942
  4. Lehtola,S.; Steigemann,C.; Oliveira,M.; Marques,M.
     Recent developments in Libxc - A comprehensive library of functionals for density functional theory
     Software X, 2018 7 
     doi.org/10.1016/j.softx.2017.11.002
  5. Grimme,S.; Antony,J.; Ehrlich,S.; Krieg,H.
     A consistent and accurate ab initio parametrization of density functional dispersion correction (DFT-D) for the 94 elements H-Pu
     J. Chem. Phys., 2010 132 154104-XXXX
     doi.org/10.1063/1.3382344
  6. Grimme,S.; Ehrlich,S.; Goerigk,L.
     Effect of the damping function in dispersion corrected density functional theory
     J. Comput. Chem., 2011 32(7)1456-1465
     doi.org/10.1002/jcc.21759

List of suggested additional citations. These are papers that are important in the 'surrounding' of 
of this run, or papers that preceded the highly important papers. If you like your results we are grateful for a citation.

  1. Neese,F.
     The ORCA program system
     WIRES Comput. Molec. Sci., 2012 2(1)73-78
     doi.org/10.1002/wcms.81
  2. Neese,F.
     Software update: the ORCA program system, version 4.0
     WIRES Comput. Molec. Sci., 2018 8(1)1-6
     doi.org/10.1002/wcms.1327
  3. Neese,F.; Wennmohs,F.; Becker,U.; Riplinger,C.
     The ORCA quantum chemistry program package
     J. Chem. Phys., 2020 152 Art. No. L224108
     doi.org/10.1063/5.0004608

List of optional additional citations

  1. Neese,F.
     Approximate second-order SCF convergence for spin unrestricted wavefunctions
     Chem. Phys. Lett., 2000 325(1-3)93-98
     doi.org/10.1016/s0009-2614(00)00662-x

Timings for individual modules:

Sum of individual times          ...      549.475 sec (=   9.158 min)
Startup calculation              ...       19.536 sec (=   0.326 min)   3.6 %
SCF iterations                   ...      527.834 sec (=   8.797 min)  96.1 %
Property calculations            ...        2.105 sec (=   0.035 min)   0.4 %
                             ****ORCA TERMINATED NORMALLY****
TOTAL RUN TIME: 0 days 0 hours 9 minutes 12 seconds 915 msec
