 vasp.6.3.2 27Jun22 (build Oct 25 2024 11:36:28) complex                        
  
 executed on             LinuxIFC date 2025.09.10  07:52:53
 running on   90 total cores
 distrk:  each k-point on   90 cores,    1 groups
 distr:  one band on NCORE=  15 cores,    6 groups


--------------------------------------------------------------------------------------------------------


 INCAR:
   SYSTEM = 103_red
   ISTART = 1
   ICHARG = 2
   INIWAV = 1
   LHFCALC = .TRUE.
   HFSCREEN = 0.2
   NELM = 500
   ALGO = Damped
   ISPIN = 2
   EDIFF = 1E-05
   ISMEAR = 0
   SIGMA = 0.05
   PREC = accurate
   ENCUT = 500
   LREAL = auto  	
   LDIAG = .FALSE.
   LWAVE = .TRUE.
   LCHARG = .FALSE.
   LAECHG = .FALSE.
   LVHAR = .FALSE.
   LVTOT = .FALSE.
   EDIFFG = -0.02
   IBRION = 2
   NSW = 0
   ISIF = 2
   POTIM = 0.5
   IVDW = 12
   VDW_A1 = 0.383
   VDW_S8 = 2.310
   VDW_A2 = 5.685
   LPLANE = .TRUE.
   NCORE = 15
   LSCALU = .FALSE.
   NSIM = 4
   LSOL = .TRUE.
   ISOL = 2
   R_SOLV = 2.1900
   EPSILON_INF = 1.8069
   N_MOL = 0.0115
   P_MOL = 0.82
   EB_K = 35.6880
   NELECT = 53

 POTCAR:    PAW_PBE C 08Apr2002                   
 POTCAR:    PAW_PBE O 08Apr2002                   
 POTCAR:    PAW_PBE H 15Jun2001                   
 -----------------------------------------------------------------------------
|                                                                             |
|           W    W    AA    RRRRR   N    N  II  N    N   GGGG   !!!           |
|           W    W   A  A   R    R  NN   N  II  NN   N  G    G  !!!           |
|           W    W  A    A  R    R  N N  N  II  N N  N  G       !!!           |
|           W WW W  AAAAAA  RRRRR   N  N N  II  N  N N  G  GGG   !            |
|           WW  WW  A    A  R   R   N   NN  II  N   NN  G    G                |
|           W    W  A    A  R    R  N    N  II  N    N   GGGG   !!!           |
|                                                                             |
|     You use a magnetic or noncollinear calculation, but did not specify     |
|     the initial magnetic moment with the MAGMOM tag. Note that a            |
|     default of 1 will be used for all atoms. This ferromagnetic setup       |
|     may break the symmetry of the crystal, in particular it may rule        |
|     out finding an antiferromagnetic solution. Thence, we recommend         |
|     setting the initial magnetic moment manually or verifying carefully     |
|     that this magnetic setup is desired.                                    |
|                                                                             |
 -----------------------------------------------------------------------------

 POTCAR:    PAW_PBE C 08Apr2002                   
   SHA256 =  253f7b50bb8d59471dbedb8285d89021f4a42ed1a2c5d38a03a736e69125dd95 C/POTCAR              
   COPYR  = (c) Copyright 08Apr2002 Georg Kresse                                                    
   COPYR  = This file is part of the software VASP. Any use, copying, and all other rights are regul
   COPYR  = If you do not have a valid VASP license, you may not use, copy or distribute this file. 
   VRHFIN =C: s2p2                                                                                  
   LEXCH  = PE                                                                                      
   EATOM  =   147.1560 eV,   10.8157 Ry                                                             
                                                                                                    
   TITEL  = PAW_PBE C 08Apr2002                                                                     
   LULTRA =        F    use ultrasoft PP ?                                                          
   IUNSCR =        1    unscreen: 0-lin 1-nonlin 2-no                                               
   RPACOR =    1.200    partial core radius                                                         
   POMASS =   12.011; ZVAL   =    4.000    mass and valenz                                          
   RCORE  =    1.500    outmost cutoff radius                                                       
   RWIGS  =    1.630; RWIGS  =    0.863    wigner-seitz radius (au A)                               
   ENMAX  =  400.000; ENMIN  =  300.000 eV                                                          
   ICORE  =        2    local potential                                                             
   LCOR   =        T    correct aug charges                                                         
   LPAW   =        T    paw PP                                                                      
   EAUG   =  644.873                                                                                
   DEXC   =    0.000                                                                                
   RMAX   =    1.529    core radius for proj-oper                                                   
   RAUG   =    1.300    factor for augmentation sphere                                              
   RDEP   =    1.501    radius for radial grids                                                     
   RDEPT  =    1.300    core radius for aug-charge                                                  
                                                                                                    
   Atomic configuration                                                                             
    4 entries                                                                                       
     n  l   j            E        occ.                                                              
     1  0  0.50      -273.3789   2.0000                                                             
     2  0  0.50       -13.7508   2.0000                                                             
     2  1  0.50        -5.2854   2.0000                                                             
     3  2  1.50        -5.4423   0.0000                                                             
   Description                                                                                      
     l       E           TYP  RCUT    TYP  RCUT                                                     
     0    -13.7508458     23  1.200                                                                 
     0     -8.2022199     23  1.200                                                                 
     1     -5.2854383     23  1.500                                                                 
     1     34.0145650     23  1.500                                                                 
     2     -5.4423304      7  1.500                                                                 
  local pseudopotential read in
  partial core-charges read in
  partial kinetic energy density read in
  atomic valenz-charges read in
  non local Contribution for L=           0  read in
    real space projection operators read in
  non local Contribution for L=           0  read in
    real space projection operators read in
  non local Contribution for L=           1  read in
    real space projection operators read in
  non local Contribution for L=           1  read in
    real space projection operators read in
    PAW grid and wavefunctions read in
 
   number of l-projection  operators is LMAX  =           4
   number of lm-projection operators is LMMAX =           8
 
 POTCAR:    PAW_PBE O 08Apr2002                   
   SHA256 =  818f92134a0a090dccd8ba1447fa70422a3b330e708bb4f08108d8ae51209ddf O/POTCAR              
   COPYR  = (c) Copyright 08Apr2002 Georg Kresse                                                    
   COPYR  = This file is part of the software VASP. Any use, copying, and all other rights are regul
   COPYR  = If you do not have a valid VASP license, you may not use, copy or distribute this file. 
   VRHFIN =O: s2p4                                                                                  
   LEXCH  = PE                                                                                      
   EATOM  =   432.3788 eV,   31.7789 Ry                                                             
                                                                                                    
   TITEL  = PAW_PBE O 08Apr2002                                                                     
   LULTRA =        F    use ultrasoft PP ?                                                          
   IUNSCR =        1    unscreen: 0-lin 1-nonlin 2-no                                               
   RPACOR =    1.200    partial core radius                                                         
   POMASS =   16.000; ZVAL   =    6.000    mass and valenz                                          
   RCORE  =    1.520    outmost cutoff radius                                                       
   RWIGS  =    1.550; RWIGS  =    0.820    wigner-seitz radius (au A)                               
   ENMAX  =  400.000; ENMIN  =  300.000 eV                                                          
   ICORE  =        2    local potential                                                             
   LCOR   =        T    correct aug charges                                                         
   LPAW   =        T    paw PP                                                                      
   EAUG   =  605.392                                                                                
   DEXC   =    0.000                                                                                
   RMAX   =    1.553    core radius for proj-oper                                                   
   RAUG   =    1.300    factor for augmentation sphere                                              
   RDEP   =    1.550    radius for radial grids                                                     
   RDEPT  =    1.329    core radius for aug-charge                                                  
                                                                                                    
   Atomic configuration                                                                             
    4 entries                                                                                       
     n  l   j            E        occ.                                                              
     1  0  0.50      -514.6923   2.0000                                                             
     2  0  0.50       -23.9615   2.0000                                                             
     2  1  0.50        -9.0305   4.0000                                                             
     3  2  1.50        -9.5241   0.0000                                                             
   Description                                                                                      
     l       E           TYP  RCUT    TYP  RCUT                                                     
     0    -23.9615318     23  1.200                                                                 
     0     -9.5240782     23  1.200                                                                 
     1     -9.0304911     23  1.520                                                                 
     1      8.1634956     23  1.520                                                                 
     2     -9.5240782      7  1.500                                                                 
  local pseudopotential read in
  partial core-charges read in
  partial kinetic energy density read in
  kinetic energy density of atom read in
  atomic valenz-charges read in
  non local Contribution for L=           0  read in
    real space projection operators read in
  non local Contribution for L=           0  read in
    real space projection operators read in
  non local Contribution for L=           1  read in
    real space projection operators read in
  non local Contribution for L=           1  read in
    real space projection operators read in
    PAW grid and wavefunctions read in
 
   number of l-projection  operators is LMAX  =           4
   number of lm-projection operators is LMMAX =           8
 
 POTCAR:    PAW_PBE H 15Jun2001                   
   SHA256 =  030f79b5d3ab3cf0e668861823c8fb652ff669f3e15e46930bd03bfd63a607b6 H/POTCAR              
   COPYR  = (c) Copyright 15Jun2001 Georg Kresse                                                    
   COPYR  = This file is part of the software VASP. Any use, copying, and all other rights are regul
   COPYR  = If you do not have a valid VASP license, you may not use, copy or distribute this file. 
   VRHFIN =H: ultrasoft test                                                                        
   LEXCH  = PE                                                                                      
   EATOM  =    12.4884 eV,    0.9179 Ry                                                             
                                                                                                    
   TITEL  = PAW_PBE H 15Jun2001                                                                     
   LULTRA =        F    use ultrasoft PP ?                                                          
   IUNSCR =        0    unscreen: 0-lin 1-nonlin 2-no                                               
   RPACOR =    0.000    partial core radius                                                         
   POMASS =    1.000; ZVAL   =    1.000    mass and valenz                                          
   RCORE  =    1.100    outmost cutoff radius                                                       
   RWIGS  =    0.700; RWIGS  =    0.370    wigner-seitz radius (au A)                               
   ENMAX  =  250.000; ENMIN  =  200.000 eV                                                          
   RCLOC  =    0.701    cutoff for local pot                                                        
   LCOR   =        T    correct aug charges                                                         
   LPAW   =        T    paw PP                                                                      
   EAUG   =  400.000                                                                                
   RMAX   =    1.123    core radius for proj-oper                                                   
   RAUG   =    1.200    factor for augmentation sphere                                              
   RDEP   =    1.112    radius for radial grids                                                     
   RDEPT  =    0.926    core radius for aug-charge                                                  
                                                                                                    
   Atomic configuration                                                                             
    2 entries                                                                                       
     n  l   j            E        occ.                                                              
     1  0  0.50        -6.4927   1.0000                                                             
     2  1  0.50        -3.4015   0.0000                                                             
   Description                                                                                      
     l       E           TYP  RCUT    TYP  RCUT                                                     
     0     -6.4927494     23  1.100                                                                 
     0      6.8029130     23  1.100                                                                 
     1     -4.0817478     23  1.100                                                                 
  local pseudopotential read in
  atomic valenz-charges read in
  non local Contribution for L=           0  read in
    real space projection operators read in
  non local Contribution for L=           0  read in
    real space projection operators read in
  non local Contribution for L=           1  read in
    real space projection operators read in
    PAW grid and wavefunctions read in
 
   number of l-projection  operators is LMAX  =           3
   number of lm-projection operators is LMMAX =           5
 
 Optimization of the real space projectors (new method)

 maximal supplied QI-value         = 25.13
 optimisation between [QCUT,QGAM] = [ 11.31, 22.87] = [ 35.82,146.48] Ry 
 Optimized for a Real-space Cutoff    1.03 Angstroem

   l    n(q)    QCUT    max X(q) W(low)/X(q) W(high)/X(q)  e(spline) 
   0      7    11.310   115.676    0.20E-03    0.90E-03    0.20E-06
   0      7    11.310    87.132    0.20E-03    0.89E-03    0.19E-06
   1      6    11.310     4.429    0.16E-03    0.28E-03    0.12E-06
   1      6    11.310     2.733    0.12E-03    0.21E-03    0.99E-07
 Optimization of the real space projectors (new method)

 maximal supplied QI-value         = 24.76
 optimisation between [QCUT,QGAM] = [ 11.39, 22.77] = [ 36.31,145.25] Ry 
 Optimized for a Real-space Cutoff    1.10 Angstroem

   l    n(q)    QCUT    max X(q) W(low)/X(q) W(high)/X(q)  e(spline) 
   0      7    11.387    20.381    0.22E-03    0.48E-03    0.18E-06
   0      7    11.387    15.268    0.22E-03    0.52E-03    0.19E-06
   1      7    11.387     5.964    0.22E-03    0.73E-03    0.24E-06
   1      7    11.387     5.382    0.19E-03    0.60E-03    0.21E-06
 Optimization of the real space projectors (new method)

 maximal supplied QI-value         = 34.20
 optimisation between [QCUT,QGAM] = [ 11.29, 22.57] = [ 35.68,142.71] Ry 
 Optimized for a Real-space Cutoff    1.20 Angstroem

   l    n(q)    QCUT    max X(q) W(low)/X(q) W(high)/X(q)  e(spline) 
   0      8    11.287    19.460    0.22E-03    0.50E-03    0.19E-06
   0      8    11.287    12.209    0.21E-03    0.48E-03    0.18E-06
   1      8    11.287     4.655    0.21E-03    0.11E-04    0.26E-06
  PAW_PBE C 08Apr2002                   :
 energy of atom  1       EATOM= -147.1560
 kinetic energy error for atom=    0.0076 (will be added to EATOM!!)
  PAW_PBE O 08Apr2002                   :
 energy of atom  2       EATOM= -432.3788
 kinetic energy error for atom=    0.0224 (will be added to EATOM!!)
  PAW_PBE H 15Jun2001                   :
 energy of atom  3       EATOM=  -12.4884
 kinetic energy error for atom=    0.0020 (will be added to EATOM!!)
 
 
 POSCAR: C O H
  positions in direct lattice
  velocities in cartesian coordinates
 exchange correlation table for  LEXCH =        8
   RHO(1)=    0.500       N(1)  =     2000
   RHO(2)=  100.500       N(2)  =     4000
 
 POSCAR: C O H
  positions in direct lattice
  velocities in cartesian coordinates
 
 POSCAR: C O H
  positions in direct lattice
  velocities in cartesian coordinates
 


--------------------------------------------------------------------------------------------------------


 ion  position               nearest neighbor table
   1  0.507  0.524  0.500-  20 1.09   2 1.39   6 1.44
   2  0.472  0.524  0.500-  19 1.10   1 1.39   3 1.41
   3  0.453  0.495  0.499-   2 1.41   4 1.42   9 1.50
   4  0.471  0.464  0.500-  15 1.10   5 1.38   3 1.42
   5  0.506  0.463  0.500-  14 1.09   4 1.38   6 1.44
   6  0.525  0.493  0.500-   1 1.44   5 1.44   7 1.44
   7  0.561  0.492  0.500-  10 1.29   6 1.44   8 1.53
   8  0.581  0.524  0.500-  11 1.10  12 1.11  13 1.11   7 1.53
   9  0.415  0.495  0.500-  17 1.10  18 1.10  16 1.11   3 1.50
  10  0.578  0.464  0.500-   7 1.29
  11  0.608  0.518  0.500-   8 1.10
  12  0.576  0.540  0.522-   8 1.11
  13  0.576  0.540  0.478-   8 1.11
  14  0.519  0.440  0.500-   5 1.09
  15  0.457  0.441  0.500-   4 1.10
  16  0.405  0.492  0.526-   9 1.11
  17  0.405  0.519  0.491-   9 1.10
  18  0.405  0.475  0.485-   9 1.10
  19  0.459  0.548  0.499-   2 1.10
  20  0.520  0.548  0.500-   1 1.09
 
  LATTYP: Found a simple cubic cell.
 ALAT       =    40.0000000000
  
  Lattice vectors:
  
 A1 = (  40.0000000000,   0.0000000000,   0.0000000000)
 A2 = (   0.0000000000,  40.0000000000,   0.0000000000)
 A3 = (   0.0000000000,   0.0000000000,  40.0000000000)


Analysis of symmetry for initial positions (statically):
=====================================================================
 Subroutine PRICEL returns:
 Original cell was already a primitive cell.
 

 Routine SETGRP: Setting up the symmetry group for a 
 simple cubic supercell.


 Subroutine GETGRP returns: Found  1 space group operations
 (whereof  1 operations were pure point group operations)
 out of a pool of 48 trial point group operations.


The static configuration has the point symmetry C_1 .


Analysis of symmetry for dynamics (positions and initial velocities):
=====================================================================
 Subroutine PRICEL returns:
 Original cell was already a primitive cell.
 

 Routine SETGRP: Setting up the symmetry group for a 
 simple cubic supercell.


 Subroutine GETGRP returns: Found  1 space group operations
 (whereof  1 operations were pure point group operations)
 out of a pool of 48 trial point group operations.


The dynamic configuration has the point symmetry C_1 .


Analysis of constrained symmetry for selective dynamics:
=====================================================================
 Subroutine PRICEL returns:
 Original cell was already a primitive cell.
 

 Routine SETGRP: Setting up the symmetry group for a 
 simple cubic supercell.


 Subroutine GETGRP returns: Found  1 space group operations
 (whereof  1 operations were pure point group operations)
 out of a pool of 48 trial point group operations.


The constrained configuration has the point symmetry C_1 .


Analysis of structural, dynamic, and magnetic symmetry:
=====================================================================
 Subroutine PRICEL returns:
 Original cell was already a primitive cell.
 

 Routine SETGRP: Setting up the symmetry group for a 
 simple cubic supercell.


 Subroutine GETGRP returns: Found  1 space group operations
 (whereof  1 operations were pure point group operations)
 out of a pool of 48 trial point group operations.


The overall configuration has the point symmetry C_1 .


 Subroutine INISYM returns: Found  1 space group operations
 (whereof  1 operations are pure point group operations),
 and found     1 'primitive' translations


----------------------------------------------------------------------------------------

                                     Primitive cell                                     

  volume of cell :   64000.0000

  direct lattice vectors                    reciprocal lattice vectors
    40.000000000  0.000000000  0.000000000     0.025000000  0.000000000  0.000000000
     0.000000000 40.000000000  0.000000000     0.000000000  0.025000000  0.000000000
     0.000000000  0.000000000 40.000000000     0.000000000  0.000000000  0.025000000

  length of vectors
    40.000000000 40.000000000 40.000000000     0.025000000  0.025000000  0.025000000

  position of ions in fractional coordinates (direct lattice)
     0.506827131  0.524119152  0.499751231
     0.472081670  0.524390022  0.499536467
     0.453021178  0.494620232  0.499471031
     0.471197081  0.464210311  0.499682902
     0.505805029  0.463387156  0.499879032
     0.525464871  0.493435235  0.499944009
     0.561371556  0.491784702  0.500057906
     0.581066864  0.524445875  0.500081422
     0.415451375  0.494988626  0.500485548
     0.577683266  0.464102071  0.500141956
     0.607828719  0.518430874  0.500208251
     0.575535100  0.540161117  0.522124346
     0.575729219  0.540088500  0.477938535
     0.519238797  0.439635233  0.499825786
     0.457273027  0.440606778  0.499568460
     0.405378015  0.491975941  0.526099621
     0.405279471  0.518636779  0.490758303
     0.404658449  0.474552008  0.485490850
     0.459002662  0.548453332  0.499354650
     0.520106520  0.547977057  0.499601695

  ion indices of the primitive-cell ions
   primitive index   ion index
                 1           1
                 2           2
                 3           3
                 4           4
                 5           5
                 6           6
                 7           7
                 8           8
                 9           9
                10          10
                11          11
                12          12
                13          13
                14          14
                15          15
                16          16
                17          17
                18          18
                19          19
                20          20

----------------------------------------------------------------------------------------

 
 
 KPOINTS: K-Point Grid                            

Automatic generation of k-mesh.
 Grid dimensions read from file:
 generate k-points for:    1    1    1

 Generating k-lattice:

  Cartesian coordinates                     Fractional coordinates (reciprocal lattice)
     0.025000000  0.000000000  0.000000000     1.000000000  0.000000000  0.000000000
     0.000000000  0.025000000  0.000000000     0.000000000  1.000000000  0.000000000
     0.000000000  0.000000000  0.025000000     0.000000000  0.000000000  1.000000000

  Length of vectors
     0.025000000  0.025000000  0.025000000

  Shift w.r.t. Gamma in fractional coordinates (k-lattice)
     0.000000000  0.000000000  0.000000000

 
 Subroutine IBZKPT returns following result:
 ===========================================
 
 Found      1 irreducible k-points:
 
 Following reciprocal coordinates:
            Coordinates               Weight
  0.000000  0.000000  0.000000      1.000000
 
 Following cartesian coordinates:
            Coordinates               Weight
  0.000000  0.000000  0.000000      1.000000
 
 
 Subroutine IBZKPT_HF returns following result:
 ==============================================
 
 Found      1 k-points in 1st BZ
 the following      1 k-points will be used (e.g. in the exchange kernel)
 Following reciprocal coordinates:   # in IRBZ
  0.000000  0.000000  0.000000    1.00000000   1 t-inv F


--------------------------------------------------------------------------------------------------------




 Dimension of arrays:
   k-points           NKPTS =      1   k-points in BZ     NKDIM =      1   number of bands    NBANDS=     48
   number of dos      NEDOS =    301   number of ions     NIONS =     20
   non local maximal  LDIM  =      4   non local SUM 2l+1 LMDIM =      8
   total plane-waves  NPLWV = ******
   max r-space proj   IRMAX =   2915   max aug-charges    IRDMAX=   5350
   dimension x,y,z NGX =   294 NGY =  294 NGZ =  294
   dimension x,y,z NGXF=   588 NGYF=  588 NGZF=  588
   support grid    NGXF=   588 NGYF=  588 NGZF=  588
   ions per type =               9   1  10
   NGX,Y,Z   is equivalent  to a cutoff of  12.22, 12.22, 12.22 a.u.
   NGXF,Y,Z  is equivalent  to a cutoff of  24.44, 24.44, 24.44 a.u.

 SYSTEM =  103_red                                 
 POSCAR =  C O H                                   

 Startparameter for this run:
   NWRITE =      2    write-flag & timer
   PREC   = accura    normal or accurate (medium, high low for compatibility)
   ISTART =      1    job   : 0-new  1-cont  2-samecut
   ICHARG =      2    charge: 1-file 2-atom 10-const
   ISPIN  =      2    spin polarized calculation?
   LNONCOLLINEAR =      F non collinear calculations
   LSORBIT =      F    spin-orbit coupling
   INIWAV =      1    electr: 0-lowe 1-rand  2-diag
   LASPH  =      F    aspherical Exc in radial PAW
 Electronic Relaxation 1
   ENCUT  =  500.0 eV  36.75 Ry    6.06 a.u.  72.93 72.93 72.93*2*pi/ulx,y,z
   ENINI  =  500.0     initial cutoff
   ENAUG  =  644.9 eV  augmentation charge cutoff
   NELM   =    500;   NELMIN=  2; NELMDL=  0     # of ELM steps 
   EDIFF  = 0.1E-04   stopping-criterion for ELM
   LREAL  =      T    real-space projection
   NLSPLINE    = F    spline interpolate recip. space projectors
   LCOMPAT=      F    compatible to vasp.4.4
   GGA_COMPAT  = T    GGA compatible to vasp.4.4-vasp.4.6
   LMAXPAW     = -100 max onsite density
   LMAXMIX     =    2 max onsite mixed and CHGCAR
   VOSKOWN=      0    Vosko Wilk Nusair interpolation
   ROPT   =   -0.00025  -0.00025  -0.00025
 Ionic relaxation
   EDIFFG = -.2E-01   stopping-criterion for IOM
   NSW    =      0    number of steps for IOM
   NBLOCK =      1;   KBLOCK =      1    inner block; outer block 
   IBRION =     -1    ionic relax: 0-MD 1-quasi-New 2-CG
   NFREE  =      1    steps in history (QN), initial steepest desc. (CG)
   ISIF   =      2    stress and relaxation
   IWAVPR =     10    prediction:  0-non 1-charg 2-wave 3-comb
   ISYM   =      3    0-nonsym 1-usesym 2-fastsym
   LCORR  =      T    Harris-Foulkes like correction to forces

   POTIM  = 0.5000    time-step for ionic-motion
   TEIN   =    0.0    initial temperature
   TEBEG  =    0.0;   TEEND  =   0.0 temperature during run
   SMASS  =  -3.00    Nose mass-parameter (am)
   estimated Nose-frequenzy (Omega)   =  0.10E-29 period in steps = 0.13E+47 mass=  -0.366E-25a.u.
   SCALEE = 1.0000    scale energy and forces
   NPACO  =    256;   APACO  = 10.0  distance and # of slots for P.C.
   PSTRESS=    0.0 pullay stress

  Mass of Ions in am
   POMASS =  12.01 16.00  1.00
  Ionic Valenz
   ZVAL   =   4.00  6.00  1.00
  Atomic Wigner-Seitz radii
   RWIGS  =  -1.00 -1.00 -1.00
  virtual crystal weights 
   VCA    =   1.00  1.00  1.00
   NELECT =      53.0000    total number of electrons
   NUPDOWN=      -1.0000    fix difference up-down

 DOS related values:
   EMIN   =  10.00;   EMAX   =-10.00  energy-range for DOS
   EFERMI =   0.00
   ISMEAR =     0;   SIGMA  =   0.05  broadening in eV -4-tet -1-fermi 0-gaus

 Electronic relaxation 2 (details)
   IALGO  =     53    algorithm
   LDIAG  =      F    sub-space diagonalisation (order eigenvalues)
   LSUBROT=      F    optimize rotation matrix (better conditioning)
   TURBO    =      0    0=normal 1=particle mesh
   IRESTART =      0    0=no restart 2=restart with 2 vectors
   NREBOOT  =      0    no. of reboots
   NMIN     =      0    reboot dimension
   EREF     =   0.00    reference energy to select bands
   IMIX   =      4    mixing-type and parameters
     AMIX     =   0.40;   BMIX     =  1.00
     AMIX_MAG =   1.60;   BMIX_MAG =  1.00
     AMIN     =   0.10
     WC   =   100.;   INIMIX=   1;  MIXPRE=   1;  MAXMIX= -45

 Intra band minimization:
   WEIMIN = 0.0000     energy-eigenvalue tresh-hold
   EBREAK =  0.52E-07  absolut break condition
   DEPER  =   0.30     relativ break condition  

   TIME   =   0.40     timestep for ELM

  volume/ion in A,a.u.               =    3200.00     21594.67
  Fermi-wavevector in a.u.,A,eV,Ry     =   0.153735  0.290518  0.321567  0.023635
  Thomas-Fermi vector in A             =   0.836066
 
 Write flags
   LWAVE        =      T    write WAVECAR
   LDOWNSAMPLE  =      F    k-point downsampling of WAVECAR
   LCHARG       =      F    write CHGCAR
   LVTOT        =      F    write LOCPOT, total local potential
   LVHAR        =      F    write LOCPOT, Hartree potential only
   LELF         =      F    write electronic localiz. function (ELF)
   LORBIT       =      0    0 simple, 1 ext, 2 COOP (PROOUT), +10 PAW based schemes


 Dipole corrections
   LMONO  =      F    monopole corrections only (constant potential shift)
   LDIPOL =      F    correct potential (dipole corrections)
   IDIPOL =      0    1-x, 2-y, 3-z, 4-all directions 
   EPSILON=  1.0000000 bulk dielectric constant

 Exchange correlation treatment:
   GGA     =    --    GGA type
   LEXCH   =     8    internal setting for exchange type
   LIBXC   =     F    Libxc                    
   VOSKOWN =     0    Vosko Wilk Nusair interpolation
   EXXOEP  =     0    0=HF, 1=EXX-LHF (local Hartree Fock) 2=EXX OEP
   LHFCALC =     T    Hartree Fock is set to
   LSYMGRAD=     F    symmetrize gradient (conserves proper symmetry)
   PRECFOCK=normal    Normal, Fast or Accurate (Low or Medium for compatibility)
   LRHFCALC=     F    long range Hartree Fock
   LRSCOR  =     F    long range correlation only (use DFT for short range part)
   LTHOMAS =     F    Thomas Fermi screening in HF
   LMODELHF=     F    short range full HF, long range fraction AEXX
   FOCKCORR=     1    mode to apply convergence corrections
   LFOCKACE=     T    use Adeptively-Compressed-Exchange operator
   ENCUT4O =  -1.0   cutoff for four orbital integrals eV
   LMAXFOCK=     4    L truncation for augmentation on plane wave grid
   LMAXFOCKAE=  -1    L truncation for all-electron charge restoration on plane wave grid
   NMAXFOCKAE=   1    number of basis functions for all-electron charge restoration
   LFOCKAEDFT=     F  apply the AE augmentation even for DFT
   NKREDX  =     1    reduce k-point grid by
   NKREDY  =     1    reduce k-point grid by
   NKREDZ  =     1    reduce k-point grid by
   SHIFTRED=     F    shift reduced grid of Gamma
   HFKIDENT=     F    idential grid for each k-point
   ODDONLY =     F    use only odd q-grid points
   EVENONLY=     F    use only even q-grid points
   HFALPHA =   -1.0000 decay constant for conv. correction
   MCALPHA =    0.0000 extent of test-charge in conv. correction in multipole expansion
   AEXX    =    0.2500 exact exchange contribution
   HFSCREEN=    0.2000 screening length (either q_TF or 0.3 A-1)
   HFSCREENC=   0.2000 screening length for correlation (either q_TF or 0.3 A-1)
   HFRCUT  =    0.0000 spherical cutoff for potential kernel
   ALDAX   =    0.7500 LDA exchange part
   AGGAX   =    0.7500 GGA exchange part
   ALDAC   =    1.0000 LDA correlation
   AGGAC   =    1.0000 GGA correlation
   ENCUTFOCK=  -1.0 apply spherical cutoff to Coloumb kernel
   NBANDSGWLOW=     1    first orbital included in HF term
   NBLOCK_FOCK=    64    blocking factor in FOCK_ACC

 Linear response parameters
   LEPSILON=     F    determine dielectric tensor
   LRPA    =     F    only Hartree local field effects (RPA)
   LNABLA  =     F    use nabla operator in PAW spheres
   LVEL    =     F    velocity operator in full k-point grid
   CSHIFT  =0.1000    complex shift for real part using Kramers Kronig
   OMEGAMAX=  -1.0    maximum frequency
   DEG_THRESHOLD= 0.2000000E-02 threshold for treating states as degnerate
   RTIME   =   -0.100 relaxation time in fs
  (WPLASMAI=    0.000 imaginary part of plasma frequency in eV, 0.658/RTIME)
   DFIELD  = 0.0000000 0.0000000 0.0000000 field for delta impulse in time
 
  Optional k-point grid parameters
   LKPOINTS_OPT  =     F    use optional k-point grid
   KPOINTS_OPT_MODE=     1    mode for optional k-point grid
 
 Orbital magnetization related:
   ORBITALMAG=     F  switch on orbital magnetization
   LCHIMAG   =     F  perturbation theory with respect to B field
   DQ        =  0.001000  dq finite difference perturbation B field
   LLRAUG    =     F  two centre corrections for induced B field

 Solvation model:
   LSOL             =     T         switch on solvation model
   LSOL_SCF         =     T         include solvation in SCF
   ISOL             =     2         solvation model type
   EFERMI_ref       =  0.000000         reference Fermi level
   capacitance_init =  1.000000         initial capacitance
 Nonlinear solvation model:
   LNLDIEL     =     T         switch on non-linear dielectric mode
   LNLION      =     T         switch on non-linear ionic mode
   LNLTEST     =     F         test non-linear model in linear regime
   I_NLOC_SOL  =     1         type of nonlocal dielectric response
   NC_K        =  0.015000     cutoff charge density for cavities (1/Angstrom**3)
   TAU         =  0.000879     cavity formation energy (eV/Angstrom**2)
   SIGMA_K     =  0.600000     cavity width
   A_K         =  0.125000     smoothing length (Angstrom)
   R_SOLV      =  2.190000     solvent radius (Angstrom)
   R_CAV       =  0.000000     cavity radius (Angstrom)
   R_DIEL      =  1.000000     dielectric radius (Angstrom)
   R_ION       =  0.000000     ionic radius (Angstrom)
   R_B         =  0.000000     bound charge radius (Angstrom)
   SOLTEMP     =298.000000     solvent temperature (K)
   EB_K        = 35.688000     relative permittivity of the bulk solvent
   EPSILON_INF =  1.806900     optical relative permittivity of bulk solvent
   N_MOL       =  0.011500     molar density of solvent (1/Angstrom**3)
   P_MOL       =  0.820000     solvent dipole moment (e*Angstrom)
   C_MOLAR     =  0.000000     electrolyte concentration (mol/L)
   LAMBDA_D_K  =  0.000000     Debye length (Angstrom)
   ZION        =  1.000000     charge of ions in electrolyte (e)
   D_ION       = -1.000000     minimum ion packing diameter (Angstrom)



--------------------------------------------------------------------------------------------------------


 Static calculation
 charge density and potential will be updated during run
 spin polarized calculation
 Conjugate gradient for all bands (Kresse, et al. variant)
 perform Loewdin sub-space diagonalisation
    ordering is kept fixed
    before iterative eigenvector-optimisation
 modified Broyden-mixing scheme, WC =      100.0
 initial mixing is a Kerker type mixing with AMIX =  0.4000 and BMIX =      1.0000
 Hartree-type preconditioning will be used
 using additional bands           21
 real space projection scheme for non local part
 use partial core corrections
 no Harris-corrections to forces 
 use gradient corrections 
 use of overlap-Matrix (Vanderbilt PP)
 Gauss-broadening in eV      SIGMA  =   0.05


--------------------------------------------------------------------------------------------------------


  energy-cutoff  :      500.00
  volume of cell :    64000.00
      direct lattice vectors                 reciprocal lattice vectors
    40.000000000  0.000000000  0.000000000     0.025000000  0.000000000  0.000000000
     0.000000000 40.000000000  0.000000000     0.000000000  0.025000000  0.000000000
     0.000000000  0.000000000 40.000000000     0.000000000  0.000000000  0.025000000

  length of vectors
    40.000000000 40.000000000 40.000000000     0.025000000  0.025000000  0.025000000


 
 old parameters found on file WAVECAR:
  energy-cutoff  :      500.00
  volume of cell :    64000.00
      direct lattice vectors                 reciprocal lattice vectors
    40.000000000  0.000000000  0.000000000     0.025000000  0.000000000  0.000000000
     0.000000000 40.000000000  0.000000000     0.000000000  0.025000000  0.000000000
     0.000000000  0.000000000 40.000000000     0.000000000  0.000000000  0.025000000

  length of vectors

 
 k-points in units of 2pi/SCALE and weight: K-Point Grid                            
   0.00000000  0.00000000  0.00000000       1.000
 
 k-points in reciprocal lattice and weights: K-Point Grid                            
   0.00000000  0.00000000  0.00000000       1.000
 
 position of ions in fractional coordinates (direct lattice) 
   0.50682713  0.52411915  0.49975123
   0.47208167  0.52439002  0.49953647
   0.45302118  0.49462023  0.49947103
   0.47119708  0.46421031  0.49968290
   0.50580503  0.46338716  0.49987903
   0.52546487  0.49343523  0.49994401
   0.56137156  0.49178470  0.50005791
   0.58106686  0.52444588  0.50008142
   0.41545138  0.49498863  0.50048555
   0.57768327  0.46410207  0.50014196
   0.60782872  0.51843087  0.50020825
   0.57553510  0.54016112  0.52212435
   0.57572922  0.54008850  0.47793853
   0.51923880  0.43963523  0.49982579
   0.45727303  0.44060678  0.49956846
   0.40537802  0.49197594  0.52609962
   0.40527947  0.51863678  0.49075830
   0.40465845  0.47455201  0.48549085
   0.45900266  0.54845333  0.49935465
   0.52010652  0.54797706  0.49960169
 
 position of ions in cartesian coordinates  (Angst):
  20.27308523 20.96476606 19.99004924
  18.88326680 20.97560090 19.98145867
  18.12084713 19.78480928 19.97884125
  18.84788322 18.56841243 19.98731608
  20.23220116 18.53548623 19.99516127
  21.01859483 19.73740939 19.99776036
  22.45486224 19.67138808 20.00231623
  23.24267457 20.97783501 20.00325689
  16.61805502 19.79954503 20.01942191
  23.10733063 18.56408282 20.00567825
  24.31314875 20.73723498 20.00833006
  23.02140399 21.60644469 20.88497383
  23.02916875 21.60354000 19.11754139
  20.76955190 17.58540932 19.99303145
  18.29092110 17.62427111 19.98273840
  16.21512061 19.67903764 21.04398482
  16.21117883 20.74547117 19.63033211
  16.18633796 18.98208031 19.41963399
  18.36010646 21.93813327 19.97418600
  20.80426080 21.91908228 19.98406779
 


--------------------------------------------------------------------------------------------------------


 k-point   1 :   0.0000 0.0000 0.0000  plane waves: 1624525

 maximum and minimum number of plane-waves per node :    108307   108296

 maximum number of plane-waves:   1624525
 maximum index in each direction: 
   IXMAX=   72   IYMAX=   72   IZMAX=   72
   IXMIN=  -72   IYMIN=  -72   IZMIN=  -72


 real space projection operators:
  total allocation   :       2224.45 KBytes
  max/ min on nodes  :        183.81        120.41


 parallel 3D FFT for wavefunctions:
    minimum data exchange during FFTs selected (reduces bandwidth)
 parallel 3D FFT for charge:
    minimum data exchange during FFTs selected (reduces bandwidth)


 FFT grid for exact exchange (Hartree Fock) 
  NGX =224; NGY =224; NGZ =224

 
 Radii for the augmentation spheres in the non-local exchange
 for species   1 augmentation radius   0.874 (default was   0.699)
       energy cutoff for augmentation   2000.0
 for species   2 augmentation radius   0.902 (default was   0.722)
       energy cutoff for augmentation   2000.0
 for species   3 augmentation radius   0.650 (default was   0.520)
       energy cutoff for augmentation   2000.0

 real space projection operators:
  total allocation   :        488.25 KBytes
  max/ min on nodes  :         43.24         18.42

 Maximum index for augmentation-charges in exchange           74
  SETUP_FOCK is finished

 total amount of memory used by VASP MPI-rank0   642243. kBytes
=======================================================================

   base      :      30000. kBytes
   nonlr-proj:       1430. kBytes
   fftplans  :     175546. kBytes
   grid      :     352056. kBytes
   one-center:         12. kBytes
   HF        :          9. kBytes
   wavefun   :      83190. kBytes
 
     INWAV:  cpu time     13.1120: real time     13.1222
 Broyden mixing: mesh for mixing (old mesh)
   NGX =145   NGY =145   NGZ =145
  (NGX  =588   NGY  =588   NGZ  =588)
  gives a total of ****** points

 initial charge density was supplied:
 charge density of overlapping atoms calculated
 number of electron      52.0000000 magnetization      20.0000000
 charge density for first step will be calculated from the start-wavefunctions


--------------------------------------------------------------------------------------------------------


 Maximum index for non-local projection operator          240
 Maximum index for augmentation-charges          291 (set IRDMAX)


--------------------------------------------------------------------------------------------------------


 initial charge from wavefunction
 First call to EWALD:  gamma=   0.044
 Maximum number of real-space cells 3x 3x 3
 Maximum number of reciprocal cells 3x 3x 3

    FEWALD:  cpu time      0.0038: real time      0.0038


--------------------------------------- Iteration      1(   1)  ---------------------------------------


    POTLOK:  cpu time     17.3909: real time     17.3908
    SETDIJ:  cpu time      0.0648: real time      0.0648
    TRIAL :  cpu time    134.5410: real time    134.5402
    CORREC:  cpu time      0.0781: real time      0.0781
    CHARGE:  cpu time      2.9753: real time      2.9752
    --------------------------------------------
      LOOP:  cpu time    155.0983: real time    155.0976

 eigenvalue-minimisations  :     0
 total energy-change (2. order) :-0.1451743E+03  (-0.2842922E+00)
 number of electron      53.0000002 magnetization       1.0000000
 augmentation part        1.6814304 magnetization       0.0882464

 Free energy of the ion-electron system (eV)
  ---------------------------------------------------
  alpha Z        PSCENC =         0.18878508
  Ewald energy   TEWEN  =      5299.08028806
  -Hartree energ DENC   =     -7040.42354515
  -exchange      EXHF   =       119.94953314
  -V(xc)+E(xc)   XCENC  =       139.33604314
  PAW double counting   =      4628.05633086    -4633.42551415
  entropy T*S    EENTRO =        -0.00000000
  eigenvalues    EBANDS =      -515.81631153
  atomic energy  EATOM  =      1857.88007551
  ---------------------------------------------------
  free energy    TOTEN  =      -145.17431505 eV

  energy without entropy =     -145.17431505  energy(sigma->0) =     -145.17431505
  exchange ACFDT corr.  =        -0.00000000  see jH, gK, PRB 81, 115126


--------------------------------------------------------------------------------------------------------




--------------------------------------- Iteration      1(   2)  ---------------------------------------


    --------------------------------------------
      INIT:  cpu time      0.3931: real time      0.3931
  FINALIZE:  cpu time    218.4165: real time    218.4237
    --------------------------------------------
    POTLOK:  cpu time    242.4849: real time    242.4920
    SETDIJ:  cpu time      0.0717: real time      0.0717
    TRIAL :  cpu time    134.1207: real time    134.1204
    CORREC:  cpu time      0.3163: real time      0.3163
    CHARGE:  cpu time      3.7024: real time      3.7024
    --------------------------------------------
      LOOP:  cpu time    380.7064: real time    380.7215

 eigenvalue-minimisations  :     0
 total energy-change (2. order) :-0.1151523E+01  (-0.5093974E-01)
 number of electron      53.0000002 magnetization       1.0000000
 augmentation part        1.6837319 magnetization       0.0890186

 Free energy of the ion-electron system (eV)
  ---------------------------------------------------
  alpha Z        PSCENC =         0.18878508
  Ewald energy   TEWEN  =      5299.08028806
  -Hartree energ DENC   =     -7027.20934362
  -exchange      EXHF   =       119.65508186
  -V(xc)+E(xc)   XCENC  =       139.07435941
  PAW double counting   =      4607.08506703    -4612.43234526
  entropy T*S    EENTRO =        -0.00000000
  eigenvalues    EBANDS =      -643.41856502
  atomic energy  EATOM  =      1857.88007551
  ---------------------------------------------------
  free energy    TOTEN  =      -146.32583774 eV

  energy without entropy =     -146.32583774  energy(sigma->0) =     -146.32583774
  exchange ACFDT corr.  =        -0.00281684  see jH, gK, PRB 81, 115126


--------------------------------------------------------------------------------------------------------




--------------------------------------- Iteration      1(   3)  ---------------------------------------


    --------------------------------------------
      INIT:  cpu time      0.5767: real time      0.5768
  FINALIZE:  cpu time     67.0245: real time     67.0247
    --------------------------------------------
    POTLOK:  cpu time     91.5643: real time     91.5645
    SETDIJ:  cpu time      0.0724: real time      0.0724
    TRIAL :  cpu time    134.8297: real time    134.8312
    CORREC:  cpu time      0.1164: real time      0.1164
    CHARGE:  cpu time      3.3520: real time      3.3521
    --------------------------------------------
      LOOP:  cpu time    229.9429: real time    229.9524

 eigenvalue-minimisations  :     0
 total energy-change (2. order) :-0.2771613E-01  (-0.2429393E-01)
 number of electron      53.0000002 magnetization       1.0000000
 augmentation part        1.6850150 magnetization       0.0893197

 Free energy of the ion-electron system (eV)
  ---------------------------------------------------
  alpha Z        PSCENC =         0.18878508
  Ewald energy   TEWEN  =      5299.08028806
  -Hartree energ DENC   =     -7031.28922632
  -exchange      EXHF   =       119.77972640
  -V(xc)+E(xc)   XCENC  =       139.19317264
  PAW double counting   =      4609.03306671    -4614.38212602
  entropy T*S    EENTRO =        -0.00000000
  eigenvalues    EBANDS =      -639.78864509
  atomic energy  EATOM  =      1857.88007551
  ---------------------------------------------------
  free energy    TOTEN  =      -146.35355387 eV

  energy without entropy =     -146.35355387  energy(sigma->0) =     -146.35355387
  exchange ACFDT corr.  =        -0.00000000  see jH, gK, PRB 81, 115126


--------------------------------------------------------------------------------------------------------




--------------------------------------- Iteration      1(   4)  ---------------------------------------


    --------------------------------------------
      INIT:  cpu time      1.1763: real time      1.1764
  FINALIZE:  cpu time     77.0541: real time     77.0544
    --------------------------------------------
    POTLOK:  cpu time    102.7087: real time    102.7091
    SETDIJ:  cpu time      0.0717: real time      0.0717
    TRIAL :  cpu time    135.8465: real time    135.8462
    CORREC:  cpu time      0.1075: real time      0.1075
    CHARGE:  cpu time      2.7803: real time      2.7803
    --------------------------------------------
      LOOP:  cpu time    241.5240: real time    241.5313

 eigenvalue-minimisations  :     0
 total energy-change (2. order) :-0.1292961E-01  (-0.9479620E-02)
 number of electron      53.0000002 magnetization       1.0000000
 augmentation part        1.6834388 magnetization       0.0892237

 Free energy of the ion-electron system (eV)
  ---------------------------------------------------
  alpha Z        PSCENC =         0.18878508
  Ewald energy   TEWEN  =      5299.08028806
  -Hartree energ DENC   =     -7035.29651366
  -exchange      EXHF   =       119.85831751
  -V(xc)+E(xc)   XCENC  =       139.26615065
  PAW double counting   =      4614.18258632    -4619.53312106
  entropy T*S    EENTRO =        -0.00000000
  eigenvalues    EBANDS =      -636.22843034
  atomic energy  EATOM  =      1857.88007551
  ---------------------------------------------------
  free energy    TOTEN  =      -146.36648348 eV

  energy without entropy =     -146.36648348  energy(sigma->0) =     -146.36648348
  exchange ACFDT corr.  =        -0.00000000  see jH, gK, PRB 81, 115126


--------------------------------------------------------------------------------------------------------




--------------------------------------- Iteration      1(   5)  ---------------------------------------


    --------------------------------------------
      INIT:  cpu time      0.7774: real time      0.7774
  FINALIZE:  cpu time     75.0053: real time     75.0047
    --------------------------------------------
    POTLOK:  cpu time     97.1171: real time     97.1164
    SETDIJ:  cpu time      0.0686: real time      0.0686
    TRIAL :  cpu time    135.0782: real time    135.0785
    CORREC:  cpu time      0.2133: real time      0.2133
    CHARGE:  cpu time      2.9837: real time      2.9837
    --------------------------------------------
      LOOP:  cpu time    235.4658: real time    235.4714

 eigenvalue-minimisations  :     0
 total energy-change (2. order) :-0.4443273E-02  (-0.3364661E-02)
 number of electron      53.0000002 magnetization       1.0000000
 augmentation part        1.6827131 magnetization       0.0890258

 Free energy of the ion-electron system (eV)
  ---------------------------------------------------
  alpha Z        PSCENC =         0.18878508
  Ewald energy   TEWEN  =      5299.08028806
  -Hartree energ DENC   =     -7034.65167895
  -exchange      EXHF   =       119.81579358
  -V(xc)+E(xc)   XCENC  =       139.22517917
  PAW double counting   =      4615.28407438    -4620.62900697
  entropy T*S    EENTRO =        -0.00000000
  eigenvalues    EBANDS =      -636.80286493
  atomic energy  EATOM  =      1857.88007551
  ---------------------------------------------------
  free energy    TOTEN  =      -146.37092676 eV

  energy without entropy =     -146.37092676  energy(sigma->0) =     -146.37092676
  exchange ACFDT corr.  =        -0.00000000  see jH, gK, PRB 81, 115126


--------------------------------------------------------------------------------------------------------




--------------------------------------- Iteration      1(   6)  ---------------------------------------


    --------------------------------------------
      INIT:  cpu time      0.5816: real time      0.5816
  FINALIZE:  cpu time     75.1628: real time     75.1631
    --------------------------------------------
    POTLOK:  cpu time     96.0211: real time     96.0214
    SETDIJ:  cpu time      0.0695: real time      0.0695
    TRIAL :  cpu time    135.8622: real time    135.8617
    CORREC:  cpu time      0.1127: real time      0.1127
    CHARGE:  cpu time      3.3711: real time      3.3712
    --------------------------------------------
      LOOP:  cpu time    235.4467: real time    235.4533

 eigenvalue-minimisations  :     0
 total energy-change (2. order) :-0.1782616E-02  (-0.1494336E-02)
 number of electron      53.0000002 magnetization       1.0000000
 augmentation part        1.6829785 magnetization       0.0888965

 Free energy of the ion-electron system (eV)
  ---------------------------------------------------
  alpha Z        PSCENC =         0.18878508
  Ewald energy   TEWEN  =      5299.08028806
  -Hartree energ DENC   =     -7033.76482992
  -exchange      EXHF   =       119.79784304
  -V(xc)+E(xc)   XCENC  =       139.20561804
  PAW double counting   =      4615.45799630    -4620.79783991
  entropy T*S    EENTRO =        -0.00000000
  eigenvalues    EBANDS =      -637.63809951
  atomic energy  EATOM  =      1857.88007551
  ---------------------------------------------------
  free energy    TOTEN  =      -146.37270937 eV

  energy without entropy =     -146.37270937  energy(sigma->0) =     -146.37270937
  exchange ACFDT corr.  =        -0.00000000  see jH, gK, PRB 81, 115126


--------------------------------------------------------------------------------------------------------




--------------------------------------- Iteration      1(   7)  ---------------------------------------


    --------------------------------------------
      INIT:  cpu time      0.5796: real time      0.5796
  FINALIZE:  cpu time     66.6721: real time     66.6715
    --------------------------------------------
    POTLOK:  cpu time     90.3960: real time     90.3953
    SETDIJ:  cpu time      0.0694: real time      0.0694
    TRIAL :  cpu time    135.4613: real time    135.4603
    CORREC:  cpu time      0.2523: real time      0.2523
    CHARGE:  cpu time      4.5325: real time      4.5325
    --------------------------------------------
      LOOP:  cpu time    230.7193: real time    230.7273

 eigenvalue-minimisations  :     0
 total energy-change (2. order) :-0.9041607E-03  (-0.8196012E-03)
 number of electron      53.0000002 magnetization       1.0000000
 augmentation part        1.6831028 magnetization       0.0887930

 Free energy of the ion-electron system (eV)
  ---------------------------------------------------
  alpha Z        PSCENC =         0.18878508
  Ewald energy   TEWEN  =      5299.08028806
  -Hartree energ DENC   =     -7033.98277928
  -exchange      EXHF   =       119.81098413
  -V(xc)+E(xc)   XCENC  =       139.21672959
  PAW double counting   =      4615.96083177    -4621.30074575
  entropy T*S    EENTRO =        -0.00000000
  eigenvalues    EBANDS =      -637.46484156
  atomic energy  EATOM  =      1857.88007551
  ---------------------------------------------------
  free energy    TOTEN  =      -146.37361353 eV

  energy without entropy =     -146.37361353  energy(sigma->0) =     -146.37361353
  exchange ACFDT corr.  =         0.00000000  see jH, gK, PRB 81, 115126


--------------------------------------------------------------------------------------------------------




--------------------------------------- Iteration      1(   8)  ---------------------------------------


    --------------------------------------------
      INIT:  cpu time      0.3880: real time      0.3880
  FINALIZE:  cpu time     60.9306: real time     60.9310
    --------------------------------------------
    POTLOK:  cpu time     78.8889: real time     78.8893
    SETDIJ:  cpu time      0.0715: real time      0.0715
    TRIAL :  cpu time    137.4798: real time    137.4795
    CORREC:  cpu time      0.2739: real time      0.2739
    CHARGE:  cpu time      3.5414: real time      3.5414
    --------------------------------------------
      LOOP:  cpu time    220.2604: real time    220.2654

 eigenvalue-minimisations  :     0
 total energy-change (2. order) :-0.5435557E-03  (-0.4212605E-03)
 number of electron      53.0000002 magnetization       1.0000000
 augmentation part        1.6830492 magnetization       0.0886951

 Free energy of the ion-electron system (eV)
  ---------------------------------------------------
  alpha Z        PSCENC =         0.18878508
  Ewald energy   TEWEN  =      5299.08028806
  -Hartree energ DENC   =     -7034.20321586
  -exchange      EXHF   =       119.81568101
  -V(xc)+E(xc)   XCENC  =       139.22178192
  PAW double counting   =      4615.97322654    -4621.31448651
  entropy T*S    EENTRO =        -0.00000000
  eigenvalues    EBANDS =      -637.27385319
  atomic energy  EATOM  =      1857.88007551
  ---------------------------------------------------
  free energy    TOTEN  =      -146.37415709 eV

  energy without entropy =     -146.37415709  energy(sigma->0) =     -146.37415709
  exchange ACFDT corr.  =        -0.00000000  see jH, gK, PRB 81, 115126


--------------------------------------------------------------------------------------------------------




--------------------------------------- Iteration      1(   9)  ---------------------------------------


    --------------------------------------------
      INIT:  cpu time      1.3606: real time      1.3606
  FINALIZE:  cpu time     74.3237: real time     74.3232
    --------------------------------------------
    POTLOK:  cpu time     98.2463: real time     98.2456
    SETDIJ:  cpu time      0.0692: real time      0.0692
    TRIAL :  cpu time    135.4138: real time    135.4129
    CORREC:  cpu time      0.0111: real time      0.0111
    CHARGE:  cpu time      2.5813: real time      2.5813
    --------------------------------------------
      LOOP:  cpu time    236.3255: real time    236.3302

 eigenvalue-minimisations  :     0
 total energy-change (2. order) :-0.3104959E-03  (-0.2626278E-03)
 number of electron      53.0000002 magnetization       1.0000000
 augmentation part        1.6830430 magnetization       0.0886200

 Free energy of the ion-electron system (eV)
  ---------------------------------------------------
  alpha Z        PSCENC =         0.18878508
  Ewald energy   TEWEN  =      5299.08028806
  -Hartree energ DENC   =     -7034.19076355
  -exchange      EXHF   =       119.81327700
  -V(xc)+E(xc)   XCENC  =       139.22037020
  PAW double counting   =      4615.72247340    -4621.06384798
  entropy T*S    EENTRO =        -0.00000000
  eigenvalues    EBANDS =      -637.28962922
  atomic energy  EATOM  =      1857.88007551
  ---------------------------------------------------
  free energy    TOTEN  =      -146.37446758 eV

  energy without entropy =     -146.37446758  energy(sigma->0) =     -146.37446758
  exchange ACFDT corr.  =        -0.00000000  see jH, gK, PRB 81, 115126


--------------------------------------------------------------------------------------------------------




--------------------------------------- Iteration      1(  10)  ---------------------------------------


    --------------------------------------------
      INIT:  cpu time      0.3930: real time      0.3930
  FINALIZE:  cpu time     60.9283: real time     60.9286
    --------------------------------------------
    POTLOK:  cpu time     83.9691: real time     83.9695
    SETDIJ:  cpu time      0.0694: real time      0.0694
    TRIAL :  cpu time    134.9125: real time    134.9121
    CORREC:  cpu time      0.0598: real time      0.0598
    CHARGE:  cpu time      3.3929: real time      3.3929
    --------------------------------------------
      LOOP:  cpu time    222.4097: real time    222.4156

 eigenvalue-minimisations  :     0
 total energy-change (2. order) :-0.2060897E-03  (-0.1699976E-03)
 number of electron      53.0000002 magnetization       1.0000000
 augmentation part        1.6830125 magnetization       0.0885685

 Free energy of the ion-electron system (eV)
  ---------------------------------------------------
  alpha Z        PSCENC =         0.18878508
  Ewald energy   TEWEN  =      5299.08028806
  -Hartree energ DENC   =     -7034.13693040
  -exchange      EXHF   =       119.81147103
  -V(xc)+E(xc)   XCENC  =       139.21916782
  PAW double counting   =      4615.56318530    -4620.90429975
  entropy T*S    EENTRO =        -0.00000000
  eigenvalues    EBANDS =      -637.34367476
  atomic energy  EATOM  =      1857.88007551
  ---------------------------------------------------
  free energy    TOTEN  =      -146.37467367 eV

  energy without entropy =     -146.37467367  energy(sigma->0) =     -146.37467367
  exchange ACFDT corr.  =        -0.00000000  see jH, gK, PRB 81, 115126


--------------------------------------------------------------------------------------------------------




--------------------------------------- Iteration      1(  11)  ---------------------------------------


    --------------------------------------------
      INIT:  cpu time      0.7744: real time      0.7744
  FINALIZE:  cpu time     72.7074: real time     72.7068
    --------------------------------------------
    POTLOK:  cpu time     95.5874: real time     95.5867
    SETDIJ:  cpu time      0.0681: real time      0.0681
    TRIAL :  cpu time    135.8064: real time    135.8054
    CORREC:  cpu time      0.1704: real time      0.1704
    CHARGE:  cpu time      2.9631: real time      2.9631
    --------------------------------------------
      LOOP:  cpu time    234.6060: real time    234.6092

 eigenvalue-minimisations  :     0
 total energy-change (2. order) :-0.1468236E-03  (-0.1268203E-03)
 number of electron      53.0000002 magnetization       1.0000000
 augmentation part        1.6829781 magnetization       0.0885288

 Free energy of the ion-electron system (eV)
  ---------------------------------------------------
  alpha Z        PSCENC =         0.18878508
  Ewald energy   TEWEN  =      5299.08028806
  -Hartree energ DENC   =     -7034.13249350
  -exchange      EXHF   =       119.81076460
  -V(xc)+E(xc)   XCENC  =       139.21881161
  PAW double counting   =      4615.49901396    -4620.84004430
  entropy T*S    EENTRO =        -0.00000000
  eigenvalues    EBANDS =      -637.35191101
  atomic energy  EATOM  =      1857.88007551
  ---------------------------------------------------
  free energy    TOTEN  =      -146.37482050 eV

  energy without entropy =     -146.37482050  energy(sigma->0) =     -146.37482050
  exchange ACFDT corr.  =        -0.00000000  see jH, gK, PRB 81, 115126


--------------------------------------------------------------------------------------------------------




--------------------------------------- Iteration      1(  12)  ---------------------------------------


    --------------------------------------------
      INIT:  cpu time      1.1725: real time      1.1725
  FINALIZE:  cpu time     74.8960: real time     74.8963
    --------------------------------------------
    POTLOK:  cpu time     95.6385: real time     95.6389
    SETDIJ:  cpu time      0.0709: real time      0.0709
    TRIAL :  cpu time    134.5817: real time    134.5813
    CORREC:  cpu time      0.1919: real time      0.1919
    CHARGE:  cpu time      2.5799: real time      2.5799
    --------------------------------------------
      LOOP:  cpu time    233.0685: real time    233.0741

 eigenvalue-minimisations  :     0
 total energy-change (2. order) :-0.1120440E-03  (-0.9497787E-04)
 number of electron      53.0000002 magnetization       1.0000000
 augmentation part        1.6829652 magnetization       0.0884917

 Free energy of the ion-electron system (eV)
  ---------------------------------------------------
  alpha Z        PSCENC =         0.18878508
  Ewald energy   TEWEN  =      5299.08028806
  -Hartree energ DENC   =     -7034.14812705
  -exchange      EXHF   =       119.81044962
  -V(xc)+E(xc)   XCENC  =       139.21874079
  PAW double counting   =      4615.47719995    -4620.81821619
  entropy T*S    EENTRO =        -0.00000000
  eigenvalues    EBANDS =      -637.34180811
  atomic energy  EATOM  =      1857.88007551
  ---------------------------------------------------
  free energy    TOTEN  =      -146.37493254 eV

  energy without entropy =     -146.37493254  energy(sigma->0) =     -146.37493254
  exchange ACFDT corr.  =        -0.00000000  see jH, gK, PRB 81, 115126


--------------------------------------------------------------------------------------------------------




--------------------------------------- Iteration      1(  13)  ---------------------------------------


    --------------------------------------------
      INIT:  cpu time      0.7893: real time      0.7892
  FINALIZE:  cpu time     71.1497: real time     71.1491
    --------------------------------------------
    POTLOK:  cpu time     98.9864: real time     98.9857
    SETDIJ:  cpu time      0.0733: real time      0.0733
    TRIAL :  cpu time    135.8884: real time    135.8875
    CORREC:  cpu time      0.1090: real time      0.1090
    CHARGE:  cpu time      2.5936: real time      2.5936
    --------------------------------------------
      LOOP:  cpu time    237.6599: real time    237.6657

 eigenvalue-minimisations  :     0
 total energy-change (2. order) :-0.8528308E-04  (-0.7066967E-04)
 number of electron      53.0000002 magnetization       1.0000000
 augmentation part        1.6829460 magnetization       0.0884578

 Free energy of the ion-electron system (eV)
  ---------------------------------------------------
  alpha Z        PSCENC =         0.18878508
  Ewald energy   TEWEN  =      5299.08028806
  -Hartree energ DENC   =     -7034.15587858
  -exchange      EXHF   =       119.81036755
  -V(xc)+E(xc)   XCENC  =       139.21881655
  PAW double counting   =      4615.47276318    -4620.81369630
  entropy T*S    EENTRO =        -0.00000000
  eigenvalues    EBANDS =      -637.33911752
  atomic energy  EATOM  =      1857.88007551
  ---------------------------------------------------
  free energy    TOTEN  =      -146.37501782 eV

  energy without entropy =     -146.37501782  energy(sigma->0) =     -146.37501782
  exchange ACFDT corr.  =        -0.00000000  see jH, gK, PRB 81, 115126


--------------------------------------------------------------------------------------------------------




--------------------------------------- Iteration      1(  14)  ---------------------------------------


    --------------------------------------------
      INIT:  cpu time      0.9843: real time      0.9843
  FINALIZE:  cpu time     73.3547: real time     73.3550
    --------------------------------------------
    POTLOK:  cpu time     95.6382: real time     95.6385
    SETDIJ:  cpu time      0.0708: real time      0.0708
    TRIAL :  cpu time    135.2055: real time    135.2052
    CORREC:  cpu time      0.0904: real time      0.0904
    CHARGE:  cpu time      3.3688: real time      3.3688
    --------------------------------------------
      LOOP:  cpu time    234.3812: real time    234.3865

 eigenvalue-minimisations  :     0
 total energy-change (2. order) :-0.6344126E-04  (-0.5125055E-04)
 number of electron      53.0000002 magnetization       1.0000000
 augmentation part        1.6829216 magnetization       0.0884276

 Free energy of the ion-electron system (eV)
  ---------------------------------------------------
  alpha Z        PSCENC =         0.18878508
  Ewald energy   TEWEN  =      5299.08028806
  -Hartree energ DENC   =     -7034.14845653
  -exchange      EXHF   =       119.80993492
  -V(xc)+E(xc)   XCENC  =       139.21854455
  PAW double counting   =      4615.46641101    -4620.80721710
  entropy T*S    EENTRO =        -0.00000000
  eigenvalues    EBANDS =      -637.34932434
  atomic energy  EATOM  =      1857.88007551
  ---------------------------------------------------
  free energy    TOTEN  =      -146.37508127 eV

  energy without entropy =     -146.37508127  energy(sigma->0) =     -146.37508127
  exchange ACFDT corr.  =        -0.00000000  see jH, gK, PRB 81, 115126


--------------------------------------------------------------------------------------------------------




--------------------------------------- Iteration      1(  15)  ---------------------------------------


    --------------------------------------------
      INIT:  cpu time      0.5969: real time      0.5969
  FINALIZE:  cpu time     77.9459: real time     77.9453
    --------------------------------------------
    POTLOK:  cpu time     98.1670: real time     98.1663
    SETDIJ:  cpu time      0.0712: real time      0.0712
    TRIAL :  cpu time    136.4216: real time    136.4206
    CORREC:  cpu time      0.1319: real time      0.1319
    CHARGE:  cpu time      3.5388: real time      3.5388
    --------------------------------------------
      LOOP:  cpu time    238.3354: real time    238.3395

 eigenvalue-minimisations  :     0
 total energy-change (2. order) :-0.4585522E-04  (-0.3591214E-04)
 number of electron      53.0000002 magnetization       1.0000000
 augmentation part        1.6829093 magnetization       0.0883979

 Free energy of the ion-electron system (eV)
  ---------------------------------------------------
  alpha Z        PSCENC =         0.18878508
  Ewald energy   TEWEN  =      5299.08028806
  -Hartree energ DENC   =     -7034.14824516
  -exchange      EXHF   =       119.80957595
  -V(xc)+E(xc)   XCENC  =       139.21833695
  PAW double counting   =      4615.46955974    -4620.81026675
  entropy T*S    EENTRO =        -0.00000000
  eigenvalues    EBANDS =      -637.35266919
  atomic energy  EATOM  =      1857.88007551
  ---------------------------------------------------
  free energy    TOTEN  =      -146.37512712 eV

  energy without entropy =     -146.37512712  energy(sigma->0) =     -146.37512712
  exchange ACFDT corr.  =        -0.00000000  see jH, gK, PRB 81, 115126


--------------------------------------------------------------------------------------------------------




--------------------------------------- Iteration      1(  16)  ---------------------------------------


    --------------------------------------------
      INIT:  cpu time      0.3878: real time      0.3878
  FINALIZE:  cpu time     71.1935: real time     71.1938
    --------------------------------------------
    POTLOK:  cpu time     94.1753: real time     94.1756
    SETDIJ:  cpu time      0.0708: real time      0.0708
    TRIAL :  cpu time    136.0555: real time    136.0551
    CORREC:  cpu time      0.1384: real time      0.1384
    CHARGE:  cpu time      2.5833: real time      2.5833
    --------------------------------------------
      LOOP:  cpu time    233.0318: real time    233.0369

 eigenvalue-minimisations  :     0
 total energy-change (2. order) :-0.3195273E-04  (-0.2431672E-04)
 number of electron      53.0000002 magnetization       1.0000000
 augmentation part        1.6828989 magnetization       0.0883705

 Free energy of the ion-electron system (eV)
  ---------------------------------------------------
  alpha Z        PSCENC =         0.18878508
  Ewald energy   TEWEN  =      5299.08028806
  -Hartree energ DENC   =     -7034.15363048
  -exchange      EXHF   =       119.80946252
  -V(xc)+E(xc)   XCENC  =       139.21834058
  PAW double counting   =      4615.47899184    -4620.81963635
  entropy T*S    EENTRO =        -0.00000000
  eigenvalues    EBANDS =      -637.35055359
  atomic energy  EATOM  =      1857.88007551
  ---------------------------------------------------
  free energy    TOTEN  =      -146.37515907 eV

  energy without entropy =     -146.37515907  energy(sigma->0) =     -146.37515907
  exchange ACFDT corr.  =        -0.00000000  see jH, gK, PRB 81, 115126


--------------------------------------------------------------------------------------------------------




--------------------------------------- Iteration      1(  17)  ---------------------------------------


    --------------------------------------------
      INIT:  cpu time      0.5748: real time      0.5747
  FINALIZE:  cpu time     59.9365: real time     59.9368
    --------------------------------------------
    POTLOK:  cpu time     79.4167: real time     79.4171
    SETDIJ:  cpu time      0.0681: real time      0.0681
    TRIAL :  cpu time    134.7828: real time    134.7825
    CORREC:  cpu time      0.1905: real time      0.1905
    CHARGE:  cpu time      2.9628: real time      2.9628
    --------------------------------------------
      LOOP:  cpu time    217.4257: real time    217.4397

 eigenvalue-minimisations  :     0
 total energy-change (2. order) :-0.2146118E-04  (-0.1596126E-04)
 number of electron      53.0000002 magnetization       1.0000000
 augmentation part        1.6828923 magnetization       0.0883478

 Free energy of the ion-electron system (eV)
  ---------------------------------------------------
  alpha Z        PSCENC =         0.18878508
  Ewald energy   TEWEN  =      5299.08028806
  -Hartree energ DENC   =     -7034.15276212
  -exchange      EXHF   =       119.80926802
  -V(xc)+E(xc)   XCENC  =       139.21824500
  PAW double counting   =      4615.48120352    -4620.82178870
  entropy T*S    EENTRO =        -0.00000000
  eigenvalues    EBANDS =      -637.35354223
  atomic energy  EATOM  =      1857.88007551
  ---------------------------------------------------
  free energy    TOTEN  =      -146.37518053 eV

  energy without entropy =     -146.37518053  energy(sigma->0) =     -146.37518053
  exchange ACFDT corr.  =        -0.00000000  see jH, gK, PRB 81, 115126


--------------------------------------------------------------------------------------------------------




--------------------------------------- Iteration      1(  18)  ---------------------------------------


    --------------------------------------------
      INIT:  cpu time      0.3879: real time      0.3879
  FINALIZE:  cpu time     74.8476: real time     74.8470
    --------------------------------------------
    POTLOK:  cpu time     97.6167: real time     97.6159
    SETDIJ:  cpu time      0.0688: real time      0.0688
    TRIAL :  cpu time    135.8860: real time    135.8851
    CORREC:  cpu time      0.1197: real time      0.1197
    CHARGE:  cpu time      3.1806: real time      3.1806
    --------------------------------------------
      LOOP:  cpu time    236.8803: real time    236.8838

 eigenvalue-minimisations  :     0
 total energy-change (2. order) :-0.1398411E-04  (-0.1020545E-04)
 number of electron      53.0000002 magnetization       1.0000000
 augmentation part        1.6828922 magnetization       0.0883290

 Free energy of the ion-electron system (eV)
  ---------------------------------------------------
  alpha Z        PSCENC =         0.18878508
  Ewald energy   TEWEN  =      5299.08028806
  -Hartree energ DENC   =     -7034.15391011
  -exchange      EXHF   =       119.80915555
  -V(xc)+E(xc)   XCENC  =       139.21820380
  PAW double counting   =      4615.48415087    -4620.82470574
  entropy T*S    EENTRO =        -0.00000000
  eigenvalues    EBANDS =      -637.35423136
  atomic energy  EATOM  =      1857.88007551
  ---------------------------------------------------
  free energy    TOTEN  =      -146.37519452 eV

  energy without entropy =     -146.37519452  energy(sigma->0) =     -146.37519452
  exchange ACFDT corr.  =        -0.00000000  see jH, gK, PRB 81, 115126


--------------------------------------------------------------------------------------------------------




--------------------------------------- Iteration      1(  19)  ---------------------------------------


    --------------------------------------------
      INIT:  cpu time      0.7675: real time      0.7675
  FINALIZE:  cpu time     63.5104: real time     63.5108
    --------------------------------------------
    POTLOK:  cpu time     82.8890: real time     82.8894
    SETDIJ:  cpu time      0.0684: real time      0.0684
    TRIAL :  cpu time    134.6826: real time    134.6823
    CORREC:  cpu time      0.1613: real time      0.1613
    CHARGE:  cpu time      2.5917: real time      2.5917
    --------------------------------------------
      LOOP:  cpu time    220.4035: real time    220.4087

 eigenvalue-minimisations  :     0
 total energy-change (2. order) :-0.8894192E-05  (-0.6432600E-05)
 number of electron      53.0000002 magnetization       1.0000000
 augmentation part        1.6828920 magnetization       0.0883147

 Free energy of the ion-electron system (eV)
  ---------------------------------------------------
  alpha Z        PSCENC =         0.18878508
  Ewald energy   TEWEN  =      5299.08028806
  -Hartree energ DENC   =     -7034.15604304
  -exchange      EXHF   =       119.80912864
  -V(xc)+E(xc)   XCENC  =       139.21821955
  PAW double counting   =      4615.48715720    -4620.82770425
  entropy T*S    EENTRO =        -0.00000000
  eigenvalues    EBANDS =      -637.35365425
  atomic energy  EATOM  =      1857.88007551
  ---------------------------------------------------
  free energy    TOTEN  =      -146.37520341 eV

  energy without entropy =     -146.37520341  energy(sigma->0) =     -146.37520341
  exchange ACFDT corr.  =        -0.00000000  see jH, gK, PRB 81, 115126


--------------------------------------------------------------------------------------------------------


  average scaling for gradient   2.8247


 average (electrostatic) potential at core
  the test charge radii are     0.6991  0.7215  0.5201
  (the norm of the test charge is              1.0000)
       1 -53.5470       2 -53.6987       3 -53.6151       4 -53.6689       5 -53.4086
       6 -53.2958       7 -54.2640       8 -53.4997       9 -53.9571      10 -70.9237
      11 -36.5519      12 -36.6533      13 -36.6541      14 -36.3741      15 -36.8130
      16 -36.8433      17 -36.9521      18 -36.9280      19 -36.8490      20 -36.7021
 
 
 
 E-fermi :  -1.4991     XC(G=0):  -0.0343     alpha+bet : -0.0196

 Fermi energy:        -1.4990844588

 spin component 1

 k-point     1 :       0.0000    0.0000    0.0000
  band No.  band energies     occupation 
      1     -25.5533      1.00000
      2     -22.2053      1.00000
      3     -20.2216      1.00000
      4     -19.2404      1.00000
      5     -18.8495      1.00000
      6     -17.7380      1.00000
      7     -15.4136      1.00000
      8     -15.1466      1.00000
      9     -13.5900      1.00000
     10     -12.0049      1.00000
     11     -11.4193      1.00000
     12     -10.9234      1.00000
     13     -10.6300      1.00000
     14     -10.4749      1.00000
     15     -10.4213      1.00000
     16     -10.0135      1.00000
     17      -9.7748      1.00000
     18      -9.0483      1.00000
     19      -8.9449      1.00000
     20      -8.6819      1.00000
     21      -8.2659      1.00000
     22      -7.6973      1.00000
     23      -7.5449      1.00000
     24      -5.8553      1.00000
     25      -5.4610      1.00000
     26      -4.8401      1.00000
     27      -1.7664      1.00000
     28       0.1059      0.00000
     29      -0.3187      0.00000
     30      -0.0980      0.00000
     31       0.0245      0.00000
     32       0.0458      0.00000
     33       0.0030      0.00000
     34       0.1026      0.00000
     35       0.1218      0.00000
     36       0.4081      0.00000
     37       0.1275      0.00000
     38       0.1367      0.00000
     39       0.1402      0.00000
     40       0.1857      0.00000
     41       0.2003      0.00000
     42       0.1872      0.00000
     43       0.1921      0.00000
     44       0.2010      0.00000
     45       0.1925      0.00000
     46       0.2013      0.00000
     47       0.1993      0.00000
     48       0.2613      0.00000
 Fermi energy:        -1.4990844588

 spin component 2

 k-point     1 :       0.0000    0.0000    0.0000
  band No.  band energies     occupation 
      1     -25.2166      1.00000
      2     -22.0902      1.00000
      3     -20.0492      1.00000
      4     -19.1588      1.00000
      5     -18.7471      1.00000
      6     -17.7063      1.00000
      7     -15.1740      1.00000
      8     -15.0885      1.00000
      9     -13.4779      1.00000
     10     -11.8874      1.00000
     11     -11.3752      1.00000
     12     -10.8317      1.00000
     13     -10.4856      1.00000
     14     -10.4202      1.00000
     15     -10.1897      1.00000
     16      -9.9959      1.00000
     17      -9.7284      1.00000
     18      -9.0168      1.00000
     19      -8.8392      1.00000
     20      -8.3846      1.00000
     21      -8.1945      1.00000
     22      -7.5122      1.00000
     23      -6.9403      1.00000
     24      -5.6055      1.00000
     25      -4.8222      1.00000
     26      -4.6890      1.00000
     27      -0.1949      0.00000
     28       0.1076      0.00000
     29      -0.2144      0.00000
     30      -0.0107      0.00000
     31       0.0793      0.00000
     32       0.0251      0.00000
     33       0.1056      0.00000
     34       0.1062      0.00000
     35       0.1259      0.00000
     36       0.5319      0.00000
     37       0.1401      0.00000
     38       0.1498      0.00000
     39       0.2022      0.00000
     40       0.1926      0.00000
     41       0.1993      0.00000
     42       0.1983      0.00000
     43       0.2014      0.00000
     44       0.1977      0.00000
     45       0.2011      0.00000
     46       0.2022      0.00000
     47       0.2019      0.00000
     48       0.2727      0.00000


--------------------------------------------------------------------------------------------------------


 soft charge-density along one line, spin component           1
         0         1         2         3         4         5         6         7         8         9
 total charge-density along one line
 
 soft charge-density along one line, spin component           2
         0         1         2         3         4         5         6         7         8         9
 total charge-density along one line
 
 pseudopotential strength for first ion, spin component:           1
  9.904  13.167   0.001  -0.000  -0.000  -0.001   0.000   0.001
 13.167  17.504   0.001  -0.000  -0.000  -0.002   0.000   0.001
  0.001   0.001  -4.128  -0.000  -0.001   8.047   0.000   0.001
 -0.000  -0.000  -0.000  -4.134   0.000   0.000   8.062  -0.000
 -0.000  -0.000  -0.001   0.000  -4.128   0.001  -0.000   8.047
 -0.001  -0.002   8.047   0.000   0.001 -17.797  -0.000  -0.003
  0.000   0.000   0.000   8.062  -0.000  -0.000 -17.830   0.000
  0.001   0.001   0.001  -0.000   8.047  -0.003   0.000 -17.796
 pseudopotential strength for first ion, spin component:           2
  9.885  13.141   0.000  -0.000  -0.000  -0.001   0.000   0.001
 13.141  17.469   0.001  -0.000  -0.000  -0.001   0.000   0.001
  0.000   0.001  -4.127   0.000  -0.001   8.050  -0.000   0.001
 -0.000  -0.000   0.000  -4.114  -0.000  -0.000   8.029   0.000
 -0.000  -0.000  -0.001  -0.000  -4.127   0.001   0.000   8.049
 -0.001  -0.001   8.050  -0.000   0.001 -17.811   0.000  -0.003
  0.000   0.000  -0.000   8.029   0.000   0.000 -17.780  -0.000
  0.001   0.001   0.001   0.000   8.049  -0.003  -0.000 -17.810
 total augmentation occupancy for first ion, spin component:           1
  8.644  -3.889  -0.116  -0.005  -0.183  -0.025  -0.001  -0.034
 -3.889   1.785   0.068   0.003   0.112   0.015   0.000   0.020
 -0.116   0.068   1.730  -0.003  -0.038   0.160  -0.001  -0.007
 -0.005   0.003  -0.003   1.190   0.003  -0.001   0.073   0.000
 -0.183   0.112  -0.038   0.003   1.839  -0.007   0.000   0.177
 -0.025   0.015   0.160  -0.001  -0.007   0.016  -0.000  -0.001
 -0.001   0.000  -0.001   0.073   0.000  -0.000   0.005   0.000
 -0.034   0.020  -0.007   0.000   0.177  -0.001   0.000   0.018
 total augmentation occupancy for first ion, spin component:           2
 -0.017   0.018   0.006  -0.000  -0.004   0.001  -0.000  -0.001
  0.018  -0.012  -0.003   0.000   0.002  -0.001   0.000   0.000
  0.006  -0.003   0.003   0.001   0.001   0.000   0.000   0.000
 -0.000   0.000   0.001   0.152  -0.001   0.000   0.001  -0.000
 -0.004   0.002   0.001  -0.001   0.004   0.000  -0.000   0.000
  0.001  -0.001   0.000   0.000   0.000  -0.000  -0.000   0.000
 -0.000   0.000   0.000   0.001  -0.000  -0.000  -0.000   0.000
 -0.001   0.000   0.000  -0.000   0.000   0.000   0.000  -0.000


------------------------ aborting loop because EDIFF is reached ----------------------------------------


    FORLOC:  cpu time      0.3261: real time      0.3261
    FORHF :  cpu time     73.2181: real time     73.2218
    FORNL :  cpu time      3.9072: real time      3.9071
    STRESS:  cpu time     11.9285: real time     11.9288
    FORCOR:  cpu time     19.7167: real time     19.7167
    OFIELD:  cpu time      0.0205: real time      0.0205
 WARNING: Using user supplied parameters
     VDW_A1 = 0.383
     VDW_A2 = 5.685
     VDW_S8 = 2.31
     because the xc functional is not supported. Required parameters not
     defined in the INCAR file will be replaced with PBE defaults ones.


 ---------------------------------------------------------------------------------------------

         DFTD3 V3.0 Rev 1        
 IVDW         = 12
 DF unknown   
 parameters
 VDW_S6       =    1.0000
 VDW_S8       =    2.3100
 VDW_A1       =    0.3830
 VDW_A2       =    5.6850
 k1-k3        =   16.0000    1.3333   -4.0000
 VDW_RADIUS   =   50.2022 A
 VDW_CNRADIUS =   21.1671 A
 Edisp (eV)   -0.37189

 E6    (eV) :    -0.1918
 E8    (eV) :    -0.1801
 % E8        : 48.43
    FORVDW:  cpu time      0.0082: real time      0.0082

  FORCE on cell =-STRESS in cart. coord.  units (eV):
  Direction    XX          YY          ZZ          XY          YZ          ZX
  --------------------------------------------------------------------------------------
  Alpha Z     0.18879     0.18879     0.18879
  Ewald    3537.59338  2021.18290  -259.69750   -31.42141    -4.32168     3.67518
  Hartree  3731.23090  2341.42505   847.20092     7.86748    -2.70818     2.28423
  E(xc)    -148.70097  -148.76781  -150.62569    -0.11479    -0.00392     0.00129
  Local   -7775.04880 -4852.08707 -1150.80344     9.90866     6.84211    -5.71435
  n-local   -73.86136   -75.47021   -72.77342     0.26680     0.00068    -0.03733
  augment     4.57888     3.65688     4.00361     0.84085     0.00313    -0.00017
  Kinetic   775.96459   761.90419   833.74309    12.84306     0.19033    -0.18289
  Fock      -56.70014   -56.66957   -52.48791     0.20730     0.00860    -0.01422
  vdW        -0.22387    -0.07235    -0.00379    -0.01400     0.00007     0.00035
  -------------------------------------------------------------------------------------
  Total      -4.97862    -4.70923    -1.25535     0.38395     0.01113     0.01209
  in kB      -0.12463    -0.11789    -0.03143     0.00961     0.00028     0.00030
  external pressure =       -0.09 kB  Pullay stress =        0.00 kB


 VOLUME and BASIS-vectors are now :
 -----------------------------------------------------------------------------
  energy-cutoff  :      500.00
  volume of cell :    64000.00
      direct lattice vectors                 reciprocal lattice vectors
    40.000000000  0.000000000  0.000000000     0.025000000  0.000000000  0.000000000
     0.000000000 40.000000000  0.000000000     0.000000000  0.025000000  0.000000000
     0.000000000  0.000000000 40.000000000     0.000000000  0.000000000  0.025000000

  length of vectors
    40.000000000 40.000000000 40.000000000     0.025000000  0.025000000  0.025000000


 FORCES acting on ions:
    Electron-Ion                     Ewald-Force                    Non-Local-Force
 -----------------------------------------------------------------------------------------------
   -.308E+02 -.177E+03 0.742E-01   0.313E+02 0.176E+03 -.332E-01   -.525E+00 0.214E+00 -.477E-01
   0.925E+02 -.178E+03 0.162E+01   -.925E+02 0.177E+03 -.162E+01   -.101E-01 0.277E+00 -.829E-03
   0.129E+03 -.166E+01 0.493E+01   -.129E+03 0.166E+01 -.521E+01   -.239E+00 0.107E-01 0.296E+00
   0.982E+02 0.176E+03 0.607E+00   -.979E+02 -.176E+03 -.615E+00   -.179E+00 -.266E+00 0.735E-02
   -.236E+02 0.181E+03 -.663E+00   0.244E+02 -.182E+03 0.694E+00   -.865E+00 0.489E+00 -.365E-01
   -.307E+02 -.361E+01 -.743E+00   0.323E+02 0.330E+01 0.774E+00   -.141E+01 0.267E+00 -.291E-01
   -.703E+02 -.585E+02 -.277E+00   0.681E+02 0.607E+02 0.278E+00   0.203E+01 -.232E+01 0.177E-02
   -.145E+03 -.138E+03 -.362E+00   0.145E+03 0.135E+03 0.365E+00   0.436E+00 0.207E+01 -.413E-03
   0.190E+03 -.206E+01 -.355E+01   -.189E+03 0.209E+01 0.349E+01   -.876E+00 -.306E-01 0.739E-01
   -.264E+03 0.286E+03 -.126E+01   0.287E+03 -.326E+03 0.138E+01   -.209E+02 0.350E+02 -.111E+00
   -.846E+02 -.842E+01 -.352E+00   0.898E+02 0.714E+01 0.377E+00   -.521E+01 0.128E+01 -.248E-01
   -.161E+02 -.564E+02 -.551E+02   0.151E+02 0.593E+02 0.592E+02   0.104E+01 -.291E+01 -.412E+01
   -.166E+02 -.562E+02 0.552E+02   0.156E+02 0.591E+02 -.593E+02   0.100E+01 -.290E+01 0.414E+01
   -.227E+02 0.852E+02 0.162E+00   0.256E+02 -.899E+02 -.169E+00   -.288E+01 0.476E+01 0.989E-02
   0.413E+02 0.789E+02 0.336E+00   -.440E+02 -.835E+02 -.359E+00   0.272E+01 0.466E+01 0.228E-01
   0.515E+02 0.632E+01 -.604E+02   -.533E+02 -.687E+01 0.652E+02   0.186E+01 0.559E+00 -.476E+01
   0.544E+02 -.535E+02 0.230E+02   -.563E+02 0.580E+02 -.249E+02   0.196E+01 -.453E+01 0.187E+01
   0.551E+02 0.454E+02 0.355E+02   -.572E+02 -.493E+02 -.384E+02   0.206E+01 0.389E+01 0.287E+01
   0.390E+02 -.799E+02 0.611E+00   -.416E+02 0.847E+02 -.650E+00   0.257E+01 -.475E+01 0.352E-01
   -.233E+02 -.833E+02 0.503E+00   0.259E+02 0.881E+02 -.532E+00   -.266E+01 -.477E+01 0.293E-01
 -----------------------------------------------------------------------------------------------
   0.231E+02 -.358E+02 -.234E+00   0.107E-13 0.284E-13 -.115E-13   -.201E+02 0.310E+02 0.227E+00
 
 
 POSITION                                       TOTAL-FORCE (eV/Angst)
 -----------------------------------------------------------------------------------
     20.27309     20.96477     19.99005        -0.135418     -0.081481     -0.008923
     18.88327     20.97560     19.98146         0.105981     -0.176133     -0.003219
     18.12085     19.78481     19.97884         0.265830      0.018315      0.028121
     18.84788     18.56841     19.98732         0.131967      0.132185      0.000049
     20.23220     18.53549     19.99516        -0.128036      0.080857     -0.007665
     21.01859     19.73741     19.99776         0.099107     -0.021331      0.000127
     22.45486     19.67139     20.00232        -0.023284     -0.347889      0.002812
     23.24267     20.97784     20.00326        -0.026062     -0.018473      0.002146
     16.61806     19.79955     20.01942        -0.079105     -0.006714      0.020628
     23.10733     18.56408     20.00568        -0.404551      0.675279     -0.002023
     24.31315     20.73723     20.00833        -0.242560      0.048945     -0.001152
     23.02140     21.60644     20.88497         0.039534     -0.159392     -0.191984
     23.02917     21.60354     19.11754         0.037374     -0.159163      0.192941
     20.76955     17.58541     19.99303        -0.138642      0.243119      0.003064
     18.29092     17.62427     19.98274         0.149241      0.227810      0.000956
     16.21512     19.67904     21.04398         0.122256      0.033381     -0.241314
     16.21118     20.74547     19.63033         0.113173     -0.205491      0.080800
     16.18634     18.98208     19.41963         0.108111      0.181524      0.123978
     18.36011     21.93813     19.97419         0.132142     -0.234031     -0.001497
     20.80426     21.91908     19.98407        -0.127058     -0.231317      0.002156
 -----------------------------------------------------------------------------------
    total drift:                               -0.012081      0.018651     -0.005691


--------------------------------------------------------------------------------------------------------



  FREE ENERGIE OF THE ION-ELECTRON SYSTEM (eV)
  ---------------------------------------------------
  free  energy   TOTEN  =      -146.74709083 eV

  energy  without entropy=     -146.74709083  energy(sigma->0) =     -146.74709083
 


--------------------------------------------------------------------------------------------------------


    --------------------------------------------
      INIT:  cpu time      0.3886: real time      0.3887
  FINALIZE:  cpu time     70.0060: real time     70.0063
    --------------------------------------------
    POTLOK:  cpu time     92.9235: real time     92.9239


--------------------------------------------------------------------------------------------------------


 writing wavefunctions
     LOOP+:  cpu time   4738.5756: real time   4739.0818
    4ORBIT:  cpu time      0.0000: real time      0.0000

 total amount of memory used by VASP MPI-rank0  1966367. kBytes
=======================================================================

   base      :      30000. kBytes
   nonlr-proj:       3113. kBytes
   fftplans  :     175546. kBytes
   grid      :     352056. kBytes
   one-center:         12. kBytes
   HF        :          9. kBytes
   wavefun   :      83190. kBytes
   fock_wrk  :    1322441. kBytes
 
  
  
 General timing and accounting informations for this job:
 ========================================================
  
                  Total CPU time used (sec):     4791.706
                            User time (sec):     2957.308
                          System time (sec):     1834.398
                         Elapsed time (sec):     4793.453
  
                   Maximum memory used (kb):     3339724.
                   Average memory used (kb):          N/A
  
                          Minor page faults:     36447409
                          Major page faults:            0
                 Voluntary context switches:         9137
