
                                 *****************
                                 * O   R   C   A *
                                 *****************

                                            #,                                       
                                            ###                                      
                                            ####                                     
                                            #####                                    
                                            ######                                   
                                           ########,                                 
                                     ,,################,,,,,                         
                               ,,#################################,,                 
                          ,,##########################################,,             
                       ,#########################################, ''#####,          
                    ,#############################################,,   '####,        
                  ,##################################################,,,,####,       
                ,###########''''           ''''###############################       
              ,#####''   ,,,,##########,,,,          '''####'''          '####       
            ,##' ,,,,###########################,,,                        '##       
           ' ,,###''''                  '''############,,,                           
         ,,##''                                '''############,,,,        ,,,,,,###''
      ,#''                                            '''#######################'''  
     '                                                          ''''####''''         
             ,#######,   #######,   ,#######,      ##                                
            ,#'     '#,  ##    ##  ,#'     '#,    #''#        ,####,   ,####,        
            ##       ##  ##   ,#'  ##            #'  '#       #'       #'  '#        
            ##       ##  #######   ##           ,######,      #####,   #    #        
            '#,     ,#'  ##    ##  '#,     ,#' ,#      #,     #,   #   #,  ,#        
             '#######'   ##     ##  '#######'  #'      '#     '####' # '####'        



                #########################################################
                #                        -***-                          #
                #          Department of theory and spectroscopy        #
                #                                                       #
                #                      Frank Neese                      #
                #                                                       #
                #     Directorship, Architecture, Infrastructure        #
                #                    SHARK, DRIVERS                     #
                #        Core code/Algorithms in most modules           #
                #                                                       #
                #        Max Planck Institute fuer Kohlenforschung      #
                #                Kaiser Wilhelm Platz 1                 #
                #                 D-45470 Muelheim/Ruhr                 #
                #                      Germany                          #
                #                                                       #
                #                  All rights reserved                  #
                #                        -***-                          #
                #########################################################


                         Program Version 6.0.0  -   RELEASE  -


 With contributions from (in alphabetic order):
   Daniel Aravena         : Magnetic Suceptibility
   Michael Atanasov       : Ab Initio Ligand Field Theory (pilot matlab implementation)
   Alexander A. Auer      : GIAO ZORA, VPT2 properties, NMR spectrum
   Ute Becker             : All parallelization in ORCA, NUMFREQ, NUMCALC
   Giovanni Bistoni       : ED, misc. LED, open-shell LED, HFLD
   Martin Brehm           : Molecular dynamics
   Dmytro Bykov           : pre 5.0 version of the SCF Hessian
   Marcos Casanova-Páez   : Triplet and SCS-CIS(D). UHF-(DLPNO)-IP/EA/STEOM-CCSD. UHF-CVS-IP/STEOM-CCSD
   Vijay G. Chilkuri      : MRCI spin determinant printing, contributions to CSF-ICE
   Pauline Colinet        : FMM embedding
   Dipayan Datta          : RHF DLPNO-CCSD density
   Achintya Kumar Dutta   : EOM-CC, STEOM-CC
   Nicolas Foglia         : Exact transition moments, OPA infrastructure, MCD improvements
   Dmitry Ganyushin       : Spin-Orbit,Spin-Spin,Magnetic field MRCI
   Miquel Garcia          : C-PCM and meta-GGA Hessian, CCSD/C-PCM, Gaussian charge scheme
   Tiago L. C. Gouveia    : GS-ROHF, GS-ROCIS
   Yang Guo               : DLPNO-NEVPT2, F12-NEVPT2, CIM, IAO-localization
   Andreas Hansen         : Spin unrestricted coupled pair/coupled cluster methods
   Ingolf Harden          : AUTO-CI MPn and infrastructure 
   Benjamin Helmich-Paris : MC-RPA, TRAH-(SCF,CASSCF), AVAS, COSX integrals, SCF dyn. polar.
   Lee Huntington         : MR-EOM, pCC
   Robert Izsak           : Overlap fitted RIJCOSX, COSX-SCS-MP3, EOM
   Riya Kayal             : Wick's Theorem for AUTO-CI, AUTO-CI UHF-CCSDT
   Emily Kempfer          : AUTO-CI, RHF CISDT and CCSDT
   Christian Kollmar      : KDIIS, OOCD, Brueckner-CCSD(T), CCSD density, CASPT2, CASPT2-K, improved NEVPT2
   Axel Koslowski         : Symmetry handling
   Simone Kossmann        : Meta GGA functionals, TD-DFT gradient, OOMP2, (MP2 Hessian; deprecated post 5.0)
   Lucas Lang             : DCDCAS
   Marvin Lechner         : AUTO-CI (C++ implementation), FIC-MRCC
   Spencer Leger          : CASSCF response
   Dagmar Lenk            : GEPOL surface, SMD, ORCA-2-JSON
   Dimitrios Liakos       : Extrapolation schemes; Compound Job, initial MDCI parallelization
   Dimitrios Manganas     : Further ROCIS development; embedding schemes. LFT, Crystal Embedding
   Dimitrios Pantazis     : SARC Basis sets
   Anastasios Papadopoulos: AUTO-CI, single reference methods and gradients
   Taras Petrenko         : pre 6.0 DFT Hessian and TD-DFT gradient, (ASA, deprecated), ECA, 1-Electron XAS/XES, NRVS
   Peter Pinski           : DLPNO-MP2, DLPNO-MP2 Gradient
   Christoph Reimann      : Effective Core Potentials
   Marius Retegan         : Local ZFS, SOC
   Christoph Riplinger    : Optimizer, TS searches, QM/MM, DLPNO-CCSD(T), (RO)-DLPNO pert. Triples
   Michael Roemelt        : Original ROCIS implementation
   Masaaki Saitow         : Open-shell DLPNO-CCSD energy and density
   Barbara Sandhoefer     : DKH picture change effects
   Kantharuban Sivalingam : CASSCF convergence/infrastructure, NEVPT2 and variants, FIC-MRCI
   Bernardo de Souza      : ESD, SOC TD-DFT
   Georgi Stoychev        : AutoAux, RI-MP2 NMR, DLPNO-MP2 response, X2C
   Van Anh Tran           : RI-MP2 g-tensors
   Willem Van den Heuvel  : Paramagnetic NMR
   Zikuan Wang            : NOTCH, Electric field optimization 
   Frank Wennmohs         : Technical directorship and infrastructure
   Hang Xu                : AUTO-CI-Response properties 


 We gratefully acknowledge several colleagues who have allowed us to
 interface, adapt or use parts of their codes:
   Stefan Grimme, W. Hujo, H. Kruse, P. Pracht,  : VdW corrections, initial TS optimization,
                  C. Bannwarth, S. Ehlert,         DFT functionals, gCP, sTDA/sTD-DF
                  L. Wittmann, M. Mueller
   Ed Valeev, F. Pavosevic, A. Kumar             : LibInt (2-el integral package), F12 methods
   Garnet Chan, S. Sharma, J. Yang, R. Olivares  : DMRG
   Ulf Ekstrom                                   : XCFun DFT Library
   Mihaly Kallay                                 : mrcc  (arbitrary order and MRCC methods)
   Frank Weinhold                                : gennbo (NPA and NBO analysis)
   Simon Mueller                                 : openCOSMO-RS
   Christopher J. Cramer and Donald G. Truhlar   : smd solvation model
   Lars Goerigk                                  : TD-DFT with DH, B97 family of functionals
   V. Asgeirsson, H. Jonsson                     : NEB implementation
   FAccTs GmbH                                   : IRC, NEB, NEB-TS, DLPNO-Multilevel, CI-OPT
                                                   MM, QMMM, 2- and 3-layer-ONIOM, Crystal-QMMM,
                                                   LR-CPCM, SF, NACMEs, symmetry and pop. for TD-DFT,
                                                   nearIR, NL-DFT gradient (VV10), updates on ESD,
                                                   ML-optimized integration grids, MBIS, APM,
                                                   GOAT, DOCKER, SOLVATOR, interface openCOSMO-RS
   S Lehtola, MJT Oliveira, MAL Marques          : LibXC Library
   Liviu Ungur et al                             : ANISO software


 Your calculation uses the libint2 library for the computation of 2-el integrals
 For citations please refer to: http://libint.valeyev.net

 Your ORCA version has been built with support for libXC version: 6.2.2
 For citations please refer to: https://libxc.gitlab.io

 This ORCA versions uses:
   CBLAS   interface :  Fast vector & matrix operations
   LAPACKE interface :  Fast linear algebra routines
   SCALAPACK package :  Parallel linear algebra routines
   Shared memory     :  Shared parallel matrices
   BLAS/LAPACK       :  OpenBLAS 0.3.27  USE64BITINT DYNAMIC_ARCH NO_AFFINITY Sandybridge SINGLE_THREADED
        Core in use  :  Sandybridge
   Copyright (c) 2011-2014, The OpenBLAS Project


NOTE: MaxCore=3500 MB was set to SCF,MP2,MDCI,CIPSI,MRCI and CIS
      => If you want to overwrite this, your respective input block should be placed after the MaxCore statement
Your calculation utilizes the atom-pairwise dispersion correction
with the Becke-Johnson damping scheme (D3BJ)


Your calculation utilizes the SMD solvation module
Please cite in your paper:
A.V. Marenich, C.J. Cramer, D.G. Truhlar J. Phys. Chem. B, 113, (2009), 6378 

Warning: RI is on but no J-basis has been assigned. Assigning Def2/J (nothing to worry about!)
================================================================================

----- Orbital basis set information -----
Your calculation utilizes the basis: aug-cc-pVTZ 
    H, B-Ne : Obtained from the ccRepo (grant-hill.group.shef.ac.uk/ccrepo) Feb. 2017
              R. A. Kendall, T. H. Dunning, Jr., R. J. Harrison, J. Chem. Phys. 96, 6796 (1992)
         He : Obtained from the ccRepo (grant-hill.group.shef.ac.uk/ccrepo) Feb. 2017
              D. E. Woon, T. H. Dunning, Jr., J. Chem. Phys. 100, 2975 (1994)
  Li-Be, Na : Obtained from the ccRepo (grant-hill.group.shef.ac.uk/ccrepo) Feb. 2017
              B. P. Prascher, D. E. Woon, K. A. Peterson, T. H. Dunning, Jr., A. K. Wilson, Theor. Chem. Acc. 128, 69 (2011)
         Mg : Obtained from the Peterson Research Group Website (tyr0.chem.wsu.edu/~kipeters) Feb. 2017
              B. P. Prascher, D. E. Woon, K. A. Peterson, T. H. Dunning, Jr., A. K. Wilson, Theor. Chem. Acc. 128, 69 (2011)
      Al-Ar : Obtained from the ccRepo (grant-hill.group.shef.ac.uk/ccrepo) Feb. 2017
              D. E. Woon, T. H. Dunning, Jr., J. Chem. Phys. 98, 1358 (1993)
      Sc-Zn : Obtained from the ccRepo (grant-hill.group.shef.ac.uk/ccrepo) Feb. 2017
              N. B. Balabanov, K. A. Peterson, J. Chem. Phys. 123, 064107 (2005)
              N. B. Balabanov, K. A. Peterson, J. Chem. Phys. 125, 074110 (2006)
      Ga-Kr : Obtained from the ccRepo (grant-hill.group.shef.ac.uk/ccrepo) Feb. 2017
              A. K. Wilson, D. E. Woon, K. A. Peterson, T. H. Dunning, Jr., J. Chem. Phys. 110, 7667 (1999)
     Ag, Au : Obtained from the Peterson Research Group Website (tyr0.chem.wsu.edu/~kipeters) Feb. 2017
              K. A. Peterson, C. Puzzarini, Theor. Chem. Acc. 114, 283 (2005)

----- AuxJ basis set information -----
Your calculation utilizes the auxiliary basis: def2/J
   F. Weigend, Phys. Chem. Chem. Phys. 8, 1057 (2006).

================================================================================
                                        WARNINGS
                       Please study these warnings very carefully!
================================================================================


================================================================================
                                       INPUT FILE
================================================================================
NAME = cs_rporg_w08_ox_solv_02.inp
|  1> !B3LYP aug-cc-pVTZ d3 TightSCF SlowConv RIJCOSX defgrid2
|  2> 
|  3> %pal
|  4> nprocs 15
|  5> end
|  6> 
|  7> %scf
|  8> MaxIter 1500
|  9> end
| 10> 
| 11> %maxcore 3500
| 12> 
| 13> !CPCM
| 14> %cpcm smd true
| 15> SMDsolvent "WATER"
| 16> surfacetype gepol_ses
| 17> rsolv 1.40
| 18> end
| 19> 
| 20> * xyz 0 1
| 21> C          -0.04022979995253      0.10934243063256     -0.04781414840262
| 22> C          -1.20598933737927     -0.38579508968121      0.72535064655671
| 23> C           1.16762735129884      0.48320931067021      0.71660533841080
| 24> H          -2.08977721092752     -0.65804131143695      0.14047110955844
| 25> H           2.00933821779047      0.84338404791193      0.11644510533465
| 26> C          -1.15729609336593     -0.48547962221092      2.06219653568719
| 27> C           1.23994061348118      0.39162604465106      2.05974182181754
| 28> H          -1.99856910405152     -0.84630774685815      2.66159543961282
| 29> C           0.05550809013202     -0.10787998980524      2.82546584658989
| 30> O           0.08824138271929     -0.20066312730217      4.03611457894647
| 31> O          -0.08237810438593      0.20201294968745     -1.25889477385297
| 32> C           2.43938990003151      0.75910371183851      2.86443148480113
| 33> H           2.18564348705276      1.54409943819251      3.59804132816950
| 34> H           2.78911766568061     -0.10695868663051      3.45298570242047
| 35> H           3.25938092587604      1.11528426934092      2.22204567334997
| 36> *
| 37> 
| 38>                          ****END OF INPUT****
================================================================================

                       ****************************
                       * Single Point Calculation *
                       ****************************

---------------------------------
CARTESIAN COORDINATES (ANGSTROEM)
---------------------------------
  C     -0.040230    0.109342   -0.047814
  C     -1.205989   -0.385795    0.725351
  C      1.167627    0.483209    0.716605
  H     -2.089777   -0.658041    0.140471
  H      2.009338    0.843384    0.116445
  C     -1.157296   -0.485480    2.062197
  C      1.239941    0.391626    2.059742
  H     -1.998569   -0.846308    2.661595
  C      0.055508   -0.107880    2.825466
  O      0.088241   -0.200663    4.036115
  O     -0.082378    0.202013   -1.258895
  C      2.439390    0.759104    2.864431
  H      2.185643    1.544099    3.598041
  H      2.789118   -0.106959    3.452986
  H      3.259381    1.115284    2.222046

----------------------------
CARTESIAN COORDINATES (A.U.)
----------------------------
  NO LB      ZA    FRAG     MASS         X           Y           Z
   0 C     6.0000    0    12.011   -0.076023    0.206627   -0.090356
   1 C     6.0000    0    12.011   -2.278990   -0.729047    1.370714
   2 C     6.0000    0    12.011    2.206496    0.913133    1.354188
   3 H     1.0000    0     1.008   -3.949107   -1.243518    0.265452
   4 H     1.0000    0     1.008    3.797099    1.593765    0.220049
   5 C     6.0000    0    12.011   -2.186973   -0.917424    3.896987
   6 C     6.0000    0    12.011    2.343148    0.740066    3.892348
   7 H     1.0000    0     1.008   -3.776748   -1.599290    5.029686
   8 C     6.0000    0    12.011    0.104895   -0.203864    5.339357
   9 O     8.0000    0    15.999    0.166752   -0.379198    7.627151
  10 O     8.0000    0    15.999   -0.155672    0.381749   -2.378966
  11 C     6.0000    0    12.011    4.609779    1.434498    5.412991
  12 H     1.0000    0     1.008    4.130268    2.917925    6.799313
  13 H     1.0000    0     1.008    5.270669   -0.202123    6.525197
  14 H     1.0000    0     1.008    6.159337    2.107582    4.199058

--------------------------------
INTERNAL COORDINATES (ANGSTROEM)
--------------------------------
 C      0   0   0     0.000000000000     0.00000000     0.00000000
 C      1   0   0     1.483893615893     0.00000000     0.00000000
 C      1   2   0     1.477508881069   117.19978305     0.00000000
 H      2   1   3     1.094204315240   116.04317557   180.05234236
 H      3   1   2     1.094712441458   115.35176519   179.94287657
 C      2   1   3     1.341441377520   121.03300941     0.06208198
 C      3   1   2     1.348195948503   122.82589158   359.93603638
 H      6   2   1     1.094173779649   122.85600489   179.99227828
 C      6   2   1     1.481909413854   121.60538787     0.00000000
 O      9   6   2     1.214640083401   121.06142682   179.91457362
 O      1   2   3     1.215352042007   121.15831091   180.02268152
 C      7   3   1     1.490383803119   124.35455092   180.00951164
 H     12   7   3     1.103987742133   110.43389805   121.51360875
 H     12   7   3     1.103979010301   110.44837173   238.49316774
 H     12   7   3     1.100867568222   111.35672114     0.00000000

---------------------------
INTERNAL COORDINATES (A.U.)
---------------------------
 C      0   0   0     0.000000000000     0.00000000     0.00000000
 C      1   0   0     2.804152545912     0.00000000     0.00000000
 C      1   2   0     2.792087145657   117.19978305     0.00000000
 H      2   1   3     2.067746490359   116.04317557   180.05234236
 H      3   1   2     2.068706709752   115.35176519   179.94287657
 C      2   1   3     2.534956828223   121.03300941     0.06208198
 C      3   1   2     2.547721117533   122.82589158   359.93603638
 H      6   2   1     2.067688786454   122.85600489   179.99227828
 C      6   2   1     2.800402947464   121.60538787     0.00000000
 O      9   6   2     2.295337108911   121.06142682   179.91457362
 O      1   2   3     2.296682515695   121.15831091   180.02268152
 C      7   3   1     2.816417222327   124.35455092   180.00951164
 H     12   7   3     2.086234487838   110.43389805   121.51360875
 H     12   7   3     2.086217987066   110.44837173   238.49316774
 H     12   7   3     2.080338213655   111.35672114     0.00000000

---------------------
BASIS SET INFORMATION
---------------------
There are 3 groups of distinct atoms

 Group   1 Type C   : 19s6p3d2f contracted to 5s4p3d2f pattern {88111/3111/111/11}
 Group   2 Type H   : 6s3p2d contracted to 4s3p2d pattern {3111/111/11}
 Group   3 Type O   : 19s6p3d2f contracted to 5s4p3d2f pattern {88111/3111/111/11}

Atom   0C    basis set group =>   1
Atom   1C    basis set group =>   1
Atom   2C    basis set group =>   1
Atom   3H    basis set group =>   2
Atom   4H    basis set group =>   2
Atom   5C    basis set group =>   1
Atom   6C    basis set group =>   1
Atom   7H    basis set group =>   2
Atom   8C    basis set group =>   1
Atom   9O    basis set group =>   3
Atom  10O    basis set group =>   3
Atom  11C    basis set group =>   1
Atom  12H    basis set group =>   2
Atom  13H    basis set group =>   2
Atom  14H    basis set group =>   2
---------------------------------
AUXILIARY/J BASIS SET INFORMATION
---------------------------------
There are 3 groups of distinct atoms

 Group   1 Type C   : 12s5p4d2f1g contracted to 6s4p3d1f1g pattern {711111/2111/211/2/1}
 Group   2 Type H   : 5s2p1d contracted to 3s1p1d pattern {311/2/1}
 Group   3 Type O   : 12s5p4d2f1g contracted to 6s4p3d1f1g pattern {711111/2111/211/2/1}

Atom   0C    basis set group =>   1
Atom   1C    basis set group =>   1
Atom   2C    basis set group =>   1
Atom   3H    basis set group =>   2
Atom   4H    basis set group =>   2
Atom   5C    basis set group =>   1
Atom   6C    basis set group =>   1
Atom   7H    basis set group =>   2
Atom   8C    basis set group =>   1
Atom   9O    basis set group =>   3
Atom  10O    basis set group =>   3
Atom  11C    basis set group =>   1
Atom  12H    basis set group =>   2
Atom  13H    basis set group =>   2
Atom  14H    basis set group =>   2


           ************************************************************
           *        Program running with 15 parallel MPI-processes    *
           *              working on a common directory               *
           ************************************************************
------------------------------------------------------------------------------
                             ORCA STARTUP CALCULATIONS
                           -- RI-GTO INTEGRALS CHOSEN --
------------------------------------------------------------------------------
------------------------------------------------------------------------------
                   ___                                                        
                  /   \      - P O W E R E D   B Y -                         
                 /     \                                                     
                 |  |  |   _    _      __       _____    __    __             
                 |  |  |  | |  | |    /  \     |  _  \  |  |  /  |          
                  \  \/   | |  | |   /    \    | | | |  |  | /  /          
                 / \  \   | |__| |  /  /\  \   | |_| |  |  |/  /          
                |  |  |   |  __  | /  /__\  \  |    /   |      \           
                |  |  |   | |  | | |   __   |  |    \   |  |\   \          
                \     /   | |  | | |  |  |  |  | |\  \  |  | \   \       
                 \___/    |_|  |_| |__|  |__|  |_| \__\ |__|  \__/        
                                                                              
                      - O R C A' S   B I G   F R I E N D -                    
                                      &                                       
                       - I N T E G R A L  F E E D E R -                       
                                                                              
 v1 FN, 2020, v2 2021, v3 2022-2024                                           
------------------------------------------------------------------------------


----------------------
SHARK INTEGRAL PACKAGE
----------------------

Number of atoms                             ...     15
Number of basis functions                   ...    606
Number of shells                            ...    234
Maximum angular momentum                    ...      3
Integral batch strategy                     ... SHARK/LIBINT Hybrid
RI-J (if used) integral strategy            ... SPLIT-RIJ (Revised 2003 algorithm where possible)
Printlevel                                  ...      1
Contraction scheme used                     ... PARTIAL GENERAL contraction
Prescreening option                         ... SCHWARTZ
   Thresh                                   ... 2.500e-11
   Tcut                                     ... 2.500e-12
   Tpresel                                  ... 2.500e-12 
Coulomb Range Separation                    ... NOT USED
Exchange Range Separation                   ... NOT USED
Multipole approximations                    ... NOT USED
Finite Nucleus Model                        ... NOT USED
CABS basis                                  ... NOT available
Auxiliary Coulomb fitting basis             ... AVAILABLE
   # of basis functions in Aux-J            ...    507
   # of shells in Aux-J                     ...    165
   Maximum angular momentum in Aux-J        ...      4
Auxiliary J/K fitting basis                 ... NOT available
Auxiliary Correlation fitting basis         ... NOT available
Auxiliary 'external' fitting basis          ... NOT available

Checking pre-screening integrals            ... done (  0.1 sec) Dimension = 234
Save PGC pre-screening integrals            ... done (  0.1 sec) Dimension = 234
Calculate PGC overlap integrals             ... done (  0.2 sec) Dimension = 180
Calculating pre-screening integrals (ORCA)  ... done (  0.2 sec) Dimension = 180
Check shell pair data                       ... done (  0.1 sec)
Shell pair information
Shell pair cut-off parameter TPreSel        ...   2.5e-12
Total number of shell pairs                 ...     27495
Shell pairs after pre-screening             ...     23263
Total number of primitive shell pairs       ...     35025
Primitive shell pairs kept                  ...     27793
          la=0 lb=0:   5259 shell pairs
          la=1 lb=0:   5838 shell pairs
          la=1 lb=1:   1421 shell pairs
          la=2 lb=0:   4205 shell pairs
          la=2 lb=1:   2008 shell pairs
          la=2 lb=2:    740 shell pairs
          la=3 lb=0:   2006 shell pairs
          la=3 lb=1:    941 shell pairs
          la=3 lb=2:    678 shell pairs
          la=3 lb=3:    167 shell pairs

Calculating one electron integrals          ... done (  0.1 sec)
Calculating RI/J V-Matrix + Cholesky decomp.... done (  0.0 sec)
Calculating Nuclear repulsion               ... done (  0.0 sec) ENN=    404.170194957223 Eh

Diagonalization of the overlap matrix:
Smallest eigenvalue                        ... 1.091e-06
Time for diagonalization                   ...    0.095 sec
Threshold for overlap eigenvalues          ... 1.000e-07
Number of eigenvalues below threshold      ... 0
Time for construction of square roots      ...    0.062 sec
Total time needed                          ...    0.225 sec

-------------------
DFT GRID GENERATION
-------------------

General Integration Accuracy     IntAcc      ... 4.388
Radial Grid Type                 RadialGrid  ... OptM3 with GC (2021)
Angular Grid (max. ang.)         AngularGrid ... 4 (Lebedev-302)
Angular grid pruning method      GridPruning ... 4 (adaptive)
Weight generation scheme         WeightScheme... mBecke (2022)
Basis function cutoff            BFCut       ... 1.0000e-11
Integration weight cutoff        WCut        ... 1.0000e-14
Partially contracted basis set               ... off
Rotationally invariant grid construction     ... off
Angular grids for H and He will be reduced by one unit
Diffuse basis detected: some atoms will have their outermost
                        angular grid increased by 1.

Total number of grid points                  ...    77249
Total number of batches                      ...     1216
Average number of points per batch           ...       63
Average number of grid points per atom       ...     5150

---------------------
SHARK GRID GENERATION
---------------------

General Integration Accuracy     IntAcc      ... 4.388
Radial Grid Type                 RadialGrid  ... OptM3 with GC (2021)
Angular Grid (max. ang.)         AngularGrid ... 4 (Lebedev-302)
Angular grid pruning method      GridPruning ... 4 (adaptive)
Weight generation scheme         WeightScheme... mBecke (2022)
Basis function cutoff            BFCut       ... 1.0000e-11
Integration weight cutoff        WCut        ... 1.0000e-14
Partially contracted basis set               ... off
Rotationally invariant grid construction     ... off
Angular grids for H and He will be reduced by one unit
Diffuse basis detected: some atoms will have their outermost
                        angular grid increased by 1.
Steep s-basis detected: some atoms will have their radial
                        grid points doubled.

Total number of grid points                  ...   134432
Total number of batches                      ...     2109
Average number of points per batch           ...       63
Average number of grid points per atom       ...     8962

--------------------
COSX GRID GENERATION
--------------------

GRIDX 1
-------
General Integration Accuracy     IntAcc      ... 3.816
Radial Grid Type                 RadialGrid  ... OptM3 with GC (2021)
Angular Grid (max. ang.)         AngularGrid ... 1 (Lebedev-50)
Angular grid pruning method      GridPruning ... 4 (adaptive)
Weight generation scheme         WeightScheme... mBecke (2022)
Basis function cutoff            BFCut       ... 1.0000e-11
Integration weight cutoff        WCut        ... 1.0000e-14
Partially contracted basis set               ... on
Rotationally invariant grid construction     ... off
Angular grids for H and He will be reduced by one unit
Diffuse basis detected: some atoms will have their outermost
                        angular grid increased by 1.

Total number of grid points                  ...     9724
Total number of batches                      ...       84
Average number of points per batch           ...      115
Average number of grid points per atom       ...      648
UseSFitting                                  ... on

GRIDX 2
-------
General Integration Accuracy     IntAcc      ... 4.020
Radial Grid Type                 RadialGrid  ... OptM3 with GC (2021)
Angular Grid (max. ang.)         AngularGrid ... 2 (Lebedev-110)
Angular grid pruning method      GridPruning ... 4 (adaptive)
Weight generation scheme         WeightScheme... mBecke (2022)
Basis function cutoff            BFCut       ... 1.0000e-11
Integration weight cutoff        WCut        ... 1.0000e-14
Partially contracted basis set               ... on
Rotationally invariant grid construction     ... off
Angular grids for H and He will be reduced by one unit
Diffuse basis detected: some atoms will have their outermost
                        angular grid increased by 1.

Total number of grid points                  ...    24245
Total number of batches                      ...      198
Average number of points per batch           ...      122
Average number of grid points per atom       ...     1616
UseSFitting                                  ... on

GRIDX 3
-------
General Integration Accuracy     IntAcc      ... 4.338
Radial Grid Type                 RadialGrid  ... OptM3 with GC (2021)
Angular Grid (max. ang.)         AngularGrid ... 3 (Lebedev-194)
Angular grid pruning method      GridPruning ... 4 (adaptive)
Weight generation scheme         WeightScheme... mBecke (2022)
Basis function cutoff            BFCut       ... 1.0000e-11
Integration weight cutoff        WCut        ... 1.0000e-14
Partially contracted basis set               ... on
Rotationally invariant grid construction     ... off
Angular grids for H and He will be reduced by one unit
Diffuse basis detected: some atoms will have their outermost
                        angular grid increased by 1.

Total number of grid points                  ...    53539
Total number of batches                      ...      424
Average number of points per batch           ...      126
Average number of grid points per atom       ...     3569
UseSFitting                                  ... on
Initializing property integral containers    ... done (  0.1 sec)

SHARK setup successfully completed in   6.1 seconds

Maximum memory used throughout the entire STARTUP-calculation: 54.1 MB


           ************************************************************
           *        Program running with 15 parallel MPI-processes    *
           *              working on a common directory               *
           ************************************************************
-------------------------------------------------------------------------------
                                 ORCA GUESS
                   Start orbitals & Density for SCF / CASSCF
-------------------------------------------------------------------------------

------------
SCF SETTINGS
------------
Hamiltonian:
 Density Functional     Method          .... DFT(GTOs)
 Exchange Functional    Exchange        .... B88
   X-Alpha parameter    XAlpha          ....  0.666667
   Becke's b parameter  XBeta           ....  0.004200
 Correlation Functional Correlation     .... LYP
 LDA part of GGA corr.  LDAOpt          .... VWN-5
 Gradients option       PostSCFGGA      .... off
 Hybrid DFT is turned on
   Fraction HF Exchange ScalHFX         ....  0.200000
   Scaling of DF-GGA-X  ScalDFX         ....  0.720000
   Scaling of DF-GGA-C  ScalDFC         ....  0.810000
   Scaling of DF-LDA-C  ScalLDAC        ....  1.000000
   Perturbative correction              ....  0.000000
   NL short-range parameter             ....  4.800000
 RI-approximation to the Coulomb term is turned on
   Number of AuxJ basis functions       .... 507
   RIJ-COSX (HFX calculated with COS-X)).... on


General Settings:
 Integral files         IntName         .... cs_rporg_w08_ox_solv_02
 Hartree-Fock type      HFTyp           .... RHF
 Total Charge           Charge          ....    0
 Multiplicity           Mult            ....    1
 Number of Electrons    NEL             ....   64
 Basis Dimension        Dim             ....  552
 Nuclear Repulsion      ENuc            ....    404.1701949572 Eh

Convergence Acceleration:
 AO-DIIS                CNVDIIS         .... on
   Start iteration      DIISMaxIt       ....     0
   Startup error        DIISStart       ....  0.200000
   # of expansion vecs  DIISMaxEq       ....     5
   Bias factor          DIISBfac        ....   1.050
   Max. coefficient     DIISMaxC        ....  10.000
 MO-DIIS                CNVKDIIS        .... off
 Trust-Rad. Augm. Hess. CNVTRAH         .... auto
   Auto Start mean grad. ratio tolernc. ....  1.125000
   Auto Start start iteration           ....    50
   Auto Start num. interpolation iter.  ....    10
   Max. Number of Micro iterations      ....    24
   Max. Number of Macro iterations      .... Maxiter - #DIIS iter
   Number of Davidson start vectors     ....     2
   Converg. threshold    (grad. norm)   ....   1.000e-05
   Grad. Scal. Fac. for Micro threshold ....   0.100
   Minimum threshold for Micro iter.    ....   1.000e-02
   NR start threshold (gradient norm)   ....   1.000e-04
   Initial trust radius                 ....   0.400
   Minimum AH scaling param. (alpha)    ....   1.000
   Maximum AH scaling param. (alpha)    .... 1000.000
   Quad. conv. algorithm                .... NR
   White noise on init. David. guess    .... on
   Maximum white noise                  ....   0.010
   Pseudo random numbers                .... off
   Inactive MOs                         .... canonical
   Orbital update algorithm             .... Taylor
   Preconditioner                       .... Diag
   Full preconditioner red. dimension   ....   250
 SOSCF                  CNVSOSCF        .... on
   Start iteration      SOSCFMaxIt      ....   150
   Startup grad/error   SOSCFStart      ....  0.001000
   Hessian update       SOSCFHessUp     .... L-BFGS
 Level Shifting         CNVShift        .... on
   Level shift para.    LevelShift      ....    0.2500
   Turn off err/grad.   ShiftErr        ....    0.0000
 Zerner damping         CNVZerner       .... off
 Static damping         CNVDamp         .... on
   Fraction old density DampFac         ....    0.8500
   Max. Damping (<1)    DampMax         ....    0.9800
   Min. Damping (>=0)   DampMin         ....    0.0000
   Turn off err/grad.   DampErr         ....    0.0300

SCF Procedure:
 Maximum # iterations   MaxIter         ....  1500
 SCF integral mode      SCFMode         .... Direct
   Integral package                     .... SHARK and LIBINT hybrid scheme
 Reset frequency        DirectResetFreq ....    20
 Integral Threshold     Thresh          ....  2.500e-11 Eh
 Primitive CutOff       TCut            ....  2.500e-12 Eh

Convergence Tolerance:
 Convergence Check Mode ConvCheckMode   .... Total+1el-Energy
 Convergence forced     ConvForced      .... 0
 Energy Change          TolE            ....  1.000e-08 Eh
 1-El. energy change                    ....  1.000e-05 Eh
 Orbital Gradient       TolG            ....  1.000e-05
 Orbital Rotation angle TolX            ....  1.000e-05
 DIIS Error             TolErr          ....  5.000e-07

------------------------------
INITIAL GUESS: MODEL POTENTIAL
------------------------------
Loading Hartree-Fock densities                     ... done
Calculating cut-offs                               ... done
Initializing the effective Hamiltonian             ... done
Setting up the integral package (SHARK)            ... done
Starting the Coulomb interaction                   ... done (   0.3 sec)
Making the grid                                    ... done (   0.3 sec)
Mapping shells                                     ... done
Starting the XC term evaluation                    ... done (   0.2 sec)
  promolecular density results
     # of electrons  =     63.993600930
     EX              =    -54.109195993
     EC              =     -2.182311414
     EX+EC           =    -56.291507407
Transforming the Hamiltonian                       ... done (   0.1 sec)
Diagonalizing the Hamiltonian                      ... done (   0.1 sec)
Back transforming the eigenvectors                 ... done (   0.1 sec)
Now organizing SCF variables                       ... done
                      ------------------
                      INITIAL GUESS DONE (   1.6 sec)
                      ------------------
             **** ENERGY FILE WAS UPDATED (cs_rporg_w08_ox_solv_02.en.tmp) ****
Finished Guess after   2.9 sec
Maximum memory used throughout the entire GUESS-calculation: 36.9 MB


           ************************************************************
           *        Program running with 15 parallel MPI-processes    *
           *              working on a common directory               *
           ************************************************************

-------------------------------------------------------------------------------------------
                                      ORCA LEAN-SCF
                              memory conserving SCF solver
-------------------------------------------------------------------------------------------

--------------------
CPCM SOLVATION MODEL
--------------------
CPCM parameters:
  Epsilon                                         ...      78.3550
  Refrac                                          ...       1.3328
  Rsolv                                           ...       1.4000
  Surface type                                    ...    GEPOL SES
  Discretization scheme                           ... Constant num. charges
  Epsilon function type                           ...         CPCM
Solvent:                                          ... WATER
SMD-CDS solvent descriptors:
  Soln                                            ...       1.3328
  Soln25                                          ...       1.3323
  Sola                                            ...       0.0000
  Solb                                            ...       0.0000
  Solg                                            ...       0.0000
  Solc                                            ...       0.0000
  Solh                                            ...       0.0000
Radii:
  Scheme                                          ... Element-dependent radii
  Radius for C  used is    3.4960 Bohr (=   1.8500 Ang.)
  Radius for H  used is    2.2677 Bohr (=   1.2000 Ang.)
  Radius for O  used is    2.8724 Bohr (=   1.5200 Ang.)
Calculating surface                               ...        done! (  0.0s)
Cavity surface points                             ...          534
Cavity Volume                                     ...     832.7280
Cavity Surface-area                               ...     511.2254
Calculating surface distance matrix               ...        done! (  0.0s)
Performing Cholesky decomposition & store         ...        done! (  0.0s)
Overall time for CPCM initialization              ...                 0.1s

----------------------------------------D-I-I-S--------------------------------------------
Iteration    Energy (Eh)           Delta-E    RMSDP     MaxDP     DIISErr   Damp  Time(sec)
-------------------------------------------------------------------------------------------
               ***  Starting incremental Fock matrix formation  ***
    1    -420.4618235438471743     0.00e+00  1.13e-03  4.86e-02  2.83e-01  0.850   7.3
    2    -420.5323454962183973    -7.05e-02  1.10e-03  5.45e-02  1.97e-01  0.850   5.9
                               ***Turning on AO-DIIS***
    3    -420.5754448056337083    -4.31e-02  7.32e-04  3.84e-02  1.24e-01  0.850   6.4
    4    -420.6021580262843713    -2.67e-02  5.43e-04  2.61e-02  1.00e-01  0.850   5.8
    5    -420.6213960861533110    -1.92e-02  4.38e-04  2.05e-02  8.65e-02  0.850   5.8
    6    -420.6367994270657960    -1.54e-02  3.68e-04  1.76e-02  7.45e-02  0.850   6.5
    7    -420.6496338684784746    -1.28e-02  3.14e-04  1.56e-02  6.23e-02  0.850   5.8
    8    -420.6602819889401985    -1.06e-02  2.64e-04  1.36e-02  5.04e-02  0.850   5.6
    9    -420.6689339404256884    -8.65e-03  2.23e-04  1.14e-02  4.19e-02  0.850   5.7
   10    -420.6760373925414456    -7.10e-03  1.89e-04  9.61e-03  3.57e-02  0.850   5.6
   11    -420.6819521959603776    -5.91e-03  1.61e-04  8.18e-03  3.04e-02  0.850   7.6
   12    -420.6869099574843744    -4.96e-03  1.37e-04  6.99e-03  2.54e-02  0.850   6.6
   13    -420.6910635206778011    -4.15e-03  7.73e-04  3.93e-02  2.11e-02  0.000   6.5
   14    -420.7134743118028268    -2.24e-02  4.13e-05  3.41e-03  2.58e-03  0.000   6.3
   15    -420.7134866094247059    -1.23e-05  1.40e-05  1.31e-03  1.03e-03  0.000   5.4
                              *** Initializing SOSCF ***
---------------------------------------S-O-S-C-F--------------------------------------
Iteration    Energy (Eh)           Delta-E    RMSDP     MaxDP     MaxGrad    Time(sec)
--------------------------------------------------------------------------------------
   16    -420.7134897211898874    -3.11e-06  1.18e-05  8.22e-04  1.11e-04     5.7
               *** Restarting incremental Fock matrix formation ***
   17    -420.7134921357397275    -2.41e-06  1.43e-04  5.72e-03  2.25e-05     7.0
   18    -420.7134921809027333    -4.52e-08  6.20e-05  2.69e-03  3.30e-05     7.0
   19    -420.7134921911504648    -1.02e-08  5.84e-05  2.85e-03  2.62e-05     6.0
   20    -420.7134921975218163    -6.37e-09  2.56e-05  1.44e-03  4.64e-06     7.2
                 **** Energy Check signals convergence ****

               *****************************************************
               *                     SUCCESS                       *
               *           SCF CONVERGED AFTER  20 CYCLES          *
               *****************************************************

Recomputing exchange energy using gridx3       ... done (    6.747 sec)
Old exchange energy                            :    -10.959454746 Eh
New exchange energy                            :    -10.959518984 Eh
Exchange energy change after final integration :     -0.000064237 Eh
Total energy after final integration           :   -420.713556435 Eh

SMD CDS free energy correction energy :                 4.91101     Kcal/mol
Total Energy after SMD CDS correction =              -420.705730239 Eh
             **** ENERGY FILE WAS UPDATED (cs_rporg_w08_ox_solv_02.en.tmp) ****

----------------
TOTAL SCF ENERGY
----------------

Total Energy       :       -420.70573023859509 Eh          -11447.98492 eV

Components:
Nuclear Repulsion  :        404.17019495722349 Eh           10998.03013 eV
Electronic Energy  :       -824.86213406005299 Eh          -22445.63978 eV
One Electron Energy:      -1371.51656593564962 Eh          -37320.86312 eV
Two Electron Energy:        546.65443187559663 Eh           14875.22333 eV
CPCM Dielectric    :         -0.02155309469228 Eh              -0.58649 eV
SMD CDS (Gcds)     :          0.00782619615921 Eh               0.21296 eV

Virial components:
Potential Energy   :       -838.97995413036119 Eh          -22829.80520 eV
Kinetic Energy     :        418.27422389176604 Eh           11381.82027 eV
Virial Ratio       :          2.00581318715795

DFT components:
N(Alpha)           :       32.000037858841 electrons
N(Beta)            :       32.000037858841 electrons
N(Total)           :       64.000075717683 electrons
E(X)               :      -43.602323081031 Eh       
E(C)               :       -2.578424490407 Eh       
E(XC)              :      -46.180747571438 Eh       

CPCM Solvation Model Properties:
Surface-charge          :         -0.05131207946317
Corrected charge        :         -0.00000000000000
Outlying charge corr.   :          0.00020904705765 Eh               0.00569 eV
Free-energy (cav+disp)  :          0.00782619615921 Eh               0.21296 eV

---------------
SCF CONVERGENCE
---------------

  Last Energy change         ...    6.3714e-09  Tolerance :   1.0000e-08
  Last MAX-Density change    ...    1.4400e-03  Tolerance :   1.0000e-07
  Last RMS-Density change    ...    2.5603e-05  Tolerance :   5.0000e-09
  Last DIIS Error            ...    1.1075e-04  Tolerance :   5.0000e-07
  Last Orbital Gradient      ...    4.6410e-06  Tolerance :   1.0000e-05
  Last Orbital Rotation      ...    7.0635e-06  Tolerance :   1.0000e-05


----------------
ORBITAL ENERGIES
----------------

  NO   OCC          E(Eh)            E(eV) 
   0   2.0000     -19.145973      -520.9884 
   1   2.0000     -19.143489      -520.9208 
   2   2.0000     -10.283418      -279.8260 
   3   2.0000     -10.281992      -279.7872 
   4   2.0000     -10.215130      -277.9678 
   5   2.0000     -10.206057      -277.7209 
   6   2.0000     -10.205158      -277.6965 
   7   2.0000     -10.197267      -277.4817 
   8   2.0000     -10.172042      -276.7953 
   9   2.0000      -1.072404       -29.1816 
  10   2.0000      -1.069148       -29.0930 
  11   2.0000      -0.856099       -23.2956 
  12   2.0000      -0.796647       -21.6779 
  13   2.0000      -0.720787       -19.6136 
  14   2.0000      -0.684746       -18.6329 
  15   2.0000      -0.619505       -16.8576 
  16   2.0000      -0.584358       -15.9012 
  17   2.0000      -0.519929       -14.1480 
  18   2.0000      -0.503472       -13.7002 
  19   2.0000      -0.480127       -13.0649 
  20   2.0000      -0.453385       -12.3372 
  21   2.0000      -0.444174       -12.0866 
  22   2.0000      -0.435118       -11.8402 
  23   2.0000      -0.423165       -11.5149 
  24   2.0000      -0.420921       -11.4538 
  25   2.0000      -0.400182       -10.8895 
  26   2.0000      -0.395939       -10.7740 
  27   2.0000      -0.380140       -10.3441 
  28   2.0000      -0.306975        -8.3532 
  29   2.0000      -0.290239        -7.8978 
  30   2.0000      -0.281813        -7.6685 
  31   2.0000      -0.276295        -7.5184 
  32   0.0000      -0.129160        -3.5146 
  33   0.0000      -0.020831        -0.5668 
  34   0.0000      -0.000371        -0.0101 
  35   0.0000       0.003332         0.0907 
  36   0.0000       0.011300         0.3075 
  37   0.0000       0.016057         0.4369 
  38   0.0000       0.030609         0.8329 
  39   0.0000       0.033557         0.9131 
  40   0.0000       0.035144         0.9563 
  41   0.0000       0.050727         1.3804 
  42   0.0000       0.059037         1.6065 
*Only the first 10 virtual orbitals were printed.

                    ********************************
                    * MULLIKEN POPULATION ANALYSIS *
                    ********************************

-----------------------
MULLIKEN ATOMIC CHARGES
-----------------------
   0 C :    1.114704
   1 C :   -0.518001
   2 C :   -0.764581
   3 H :    0.450314
   4 H :    0.272861
   5 C :   -0.551499
   6 C :    0.852134
   7 H :    0.488193
   8 C :    0.725911
   9 O :   -0.993787
  10 O :   -0.974446
  11 C :   -0.747842
  12 H :    0.224656
  13 H :    0.224465
  14 H :    0.196917
Sum of atomic charges:    0.0000000

--------------------------------
MULLIKEN REDUCED ORBITAL CHARGES
--------------------------------
  0 C s       :     3.207830  s :     3.207830
      pz      :     0.503240  p :     1.627138
      px      :     0.500341
      py      :     0.623557
      dz2     :    -0.048176  d :     0.056434
      dxz     :     0.041371
      dyz     :     0.036657
      dx2y2   :     0.011402
      dxy     :     0.015179
      f0      :     0.000709  f :    -0.006106
      f+1     :    -0.008074
      f-1     :     0.000519
      f+2     :    -0.000771
      f-2     :     0.000140
      f+3     :     0.001693
      f-3     :    -0.000322

  1 C s       :     3.548049  s :     3.548049
      pz      :     1.020353  p :     2.870449
      px      :     0.944638
      py      :     0.905459
      dz2     :     0.075118  d :     0.112114
      dxz     :    -0.010590
      dyz     :     0.024607
      dx2y2   :     0.014367
      dxy     :     0.008610
      f0      :    -0.001177  f :    -0.012611
      f+1     :    -0.012502
      f-1     :    -0.001367
      f+2     :     0.001954
      f-2     :    -0.000641
      f+3     :     0.000765
      f-3     :     0.000356

  2 C s       :     3.762251  s :     3.762251
      pz      :     1.026243  p :     2.876982
      px      :     0.881166
      py      :     0.969573
      dz2     :     0.073736  d :     0.150747
      dxz     :     0.008575
      dyz     :     0.034368
      dx2y2   :     0.015744
      dxy     :     0.018324
      f0      :    -0.001536  f :    -0.025399
      f+1     :    -0.022736
      f-1     :    -0.003925
      f+2     :     0.000326
      f-2     :     0.000775
      f+3     :     0.001017
      f-3     :     0.000681

  3 H s       :     0.564467  s :     0.564467
      pz      :    -0.016999  p :    -0.020211
      px      :    -0.013031
      py      :     0.009820
      dz2     :     0.001495  d :     0.005429
      dxz     :     0.000259
      dyz     :     0.001219
      dx2y2   :     0.000847
      dxy     :     0.001609

  4 H s       :     0.722723  s :     0.722723
      pz      :    -0.016469  p :     0.000036
      px      :    -0.003599
      py      :     0.020104
      dz2     :     0.000763  d :     0.004379
      dxz     :     0.000751
      dyz     :     0.000303
      dx2y2   :     0.001168
      dxy     :     0.001394

  5 C s       :     3.565775  s :     3.565775
      pz      :     1.030276  p :     2.906680
      px      :     0.961693
      py      :     0.914710
      dz2     :     0.058106  d :     0.090914
      dxz     :    -0.005785
      dyz     :     0.016715
      dx2y2   :     0.010543
      dxy     :     0.011335
      f0      :    -0.002325  f :    -0.011870
      f+1     :    -0.010378
      f-1     :    -0.002065
      f+2     :     0.000248
      f-2     :     0.001164
      f+3     :     0.000875
      f-3     :     0.000610

  6 C s       :     3.003034  s :     3.003034
      pz      :     0.522778  p :     2.078675
      px      :     0.712382
      py      :     0.843515
      dz2     :     0.112975  d :     0.141163
      dxz     :    -0.014811
      dyz     :     0.009697
      dx2y2   :     0.023722
      dxy     :     0.009579
      f0      :    -0.007995  f :    -0.075007
      f+1     :    -0.044116
      f-1     :    -0.005732
      f+2     :    -0.005040
      f-2     :    -0.007384
      f+3     :    -0.001348
      f-3     :    -0.003393

  7 H s       :     0.524270  s :     0.524270
      pz      :    -0.015426  p :    -0.017574
      px      :    -0.012373
      py      :     0.010225
      dz2     :     0.001685  d :     0.005111
      dxz     :    -0.000072
      dyz     :     0.000835
      dx2y2   :     0.001256
      dxy     :     0.001406

  8 C s       :     3.369307  s :     3.369307
      pz      :     0.599345  p :     1.831578
      px      :     0.576016
      py      :     0.656217
      dz2     :    -0.010946  d :     0.091780
      dxz     :     0.035625
      dyz     :     0.041870
      dx2y2   :     0.014766
      dxy     :     0.010465
      f0      :     0.000966  f :    -0.018577
      f+1     :    -0.018108
      f-1     :    -0.001133
      f+2     :    -0.000929
      f-2     :     0.000445
      f+3     :     0.000682
      f-3     :    -0.000500

  9 O s       :     4.199929  s :     4.199929
      pz      :     1.391257  p :     4.735882
      px      :     1.890904
      py      :     1.453721
      dz2     :     0.009277  d :     0.052848
      dxz     :     0.019965
      dyz     :     0.020514
      dx2y2   :     0.001580
      dxy     :     0.001511
      f0      :    -0.000076  f :     0.005128
      f+1     :     0.002551
      f-1     :     0.001979
      f+2     :     0.000271
      f-2     :     0.000249
      f+3     :     0.000063
      f-3     :     0.000091

 10 O s       :     4.177171  s :     4.177171
      pz      :     1.391112  p :     4.734650
      px      :     1.881559
      py      :     1.461979
      dz2     :     0.009541  d :     0.057666
      dxz     :     0.023551
      dyz     :     0.022135
      dx2y2   :     0.001271
      dxy     :     0.001168
      f0      :    -0.000121  f :     0.004959
      f+1     :     0.002539
      f-1     :     0.001970
      f+2     :     0.000268
      f-2     :     0.000235
      f+3     :     0.000021
      f-3     :     0.000047

 11 C s       :     3.560243  s :     3.560243
      pz      :     1.053391  p :     3.143385
      px      :     0.974074
      py      :     1.115920
      dz2     :     0.007643  d :     0.036366
      dxz     :     0.014948
      dyz     :     0.022586
      dx2y2   :    -0.001344
      dxy     :    -0.007467
      f0      :     0.000168  f :     0.007847
      f+1     :     0.000518
      f-1     :     0.000193
      f+2     :     0.002172
      f-2     :     0.003103
      f+3     :     0.002255
      f-3     :    -0.000562

 12 H s       :     0.727010  s :     0.727010
      pz      :     0.010221  p :     0.042980
      px      :     0.017201
      py      :     0.015558
      dz2     :     0.001430  d :     0.005354
      dxz     :     0.002481
      dyz     :    -0.000082
      dx2y2   :     0.000518
      dxy     :     0.001006

 13 H s       :     0.727927  s :     0.727927
      pz      :     0.010518  p :     0.042310
      px      :     0.019292
      py      :     0.012500
      dz2     :     0.001078  d :     0.005298
      dxz     :     0.002952
      dyz     :    -0.000426
      dx2y2   :     0.000816
      dxy     :     0.000877

 14 H s       :     0.751421  s :     0.751421
      pz      :     0.006127  p :     0.044933
      px      :     0.027134
      py      :     0.011672
      dz2     :     0.002006  d :     0.006729
      dxz     :    -0.000348
      dyz     :     0.001284
      dx2y2   :     0.002133
      dxy     :     0.001655



                     *******************************
                     * LOEWDIN POPULATION ANALYSIS *
                     *******************************

----------------------
LOEWDIN ATOMIC CHARGES
----------------------
   0 C :   -0.580733
   1 C :    0.224727
   2 C :    0.235773
   3 H :   -0.163123
   4 H :   -0.162111
   5 C :    0.228525
   6 C :   -0.112769
   7 H :   -0.163634
   8 C :   -0.548325
   9 O :    0.486791
  10 O :    0.453657
  11 C :    0.562198
  12 H :   -0.152374
  13 H :   -0.152323
  14 H :   -0.156279

-------------------------------
LOEWDIN REDUCED ORBITAL CHARGES
-------------------------------
  0 C s       :     2.501426  s :     2.501426
      pz      :     0.869844  p :     2.239598
      px      :     0.801846
      py      :     0.567909
      dz2     :     0.345732  d :     1.214692
      dxz     :     0.392043
      dyz     :     0.231147
      dx2y2   :     0.124778
      dxy     :     0.120991
      f0      :     0.128549  f :     0.625016
      f+1     :     0.233657
      f-1     :     0.093307
      f+2     :     0.050252
      f-2     :     0.052732
      f+3     :     0.028014
      f-3     :     0.038504

  1 C s       :     2.511597  s :     2.511597
      pz      :     0.889871  p :     2.294468
      px      :     0.791746
      py      :     0.612851
      dz2     :     0.180689  d :     0.657026
      dxz     :     0.237022
      dyz     :     0.113566
      dx2y2   :     0.067089
      dxy     :     0.058659
      f0      :     0.057680  f :     0.312183
      f+1     :     0.112313
      f-1     :     0.045910
      f+2     :     0.029683
      f-2     :     0.028740
      f+3     :     0.017280
      f-3     :     0.020577

  2 C s       :     2.499347  s :     2.499347
      pz      :     0.879985  p :     2.295399
      px      :     0.787501
      py      :     0.627913
      dz2     :     0.172132  d :     0.654462
      dxz     :     0.241281
      dyz     :     0.107301
      dx2y2   :     0.069251
      dxy     :     0.064497
      f0      :     0.059253  f :     0.315019
      f+1     :     0.112387
      f-1     :     0.041694
      f+2     :     0.032650
      f-2     :     0.030948
      f+3     :     0.016276
      f-3     :     0.021810

  3 H s       :     0.659749  s :     0.659749
      pz      :     0.095261  p :     0.291736
      px      :     0.120235
      py      :     0.076240
      dz2     :     0.050801  d :     0.211638
      dxz     :     0.053748
      dyz     :     0.026450
      dx2y2   :     0.040128
      dxy     :     0.040510

  4 H s       :     0.649030  s :     0.649030
      pz      :     0.096107  p :     0.295369
      px      :     0.118909
      py      :     0.080352
      dz2     :     0.052587  d :     0.217712
      dxz     :     0.053164
      dyz     :     0.029588
      dx2y2   :     0.043087
      dxy     :     0.039285

  5 C s       :     2.509988  s :     2.509988
      pz      :     0.890708  p :     2.294876
      px      :     0.787899
      py      :     0.616269
      dz2     :     0.179419  d :     0.654990
      dxz     :     0.243618
      dyz     :     0.108169
      dx2y2   :     0.063396
      dxy     :     0.060388
      f0      :     0.057559  f :     0.311621
      f+1     :     0.116226
      f-1     :     0.041483
      f+2     :     0.030299
      f-2     :     0.028666
      f+3     :     0.015922
      f-3     :     0.021465

  6 C s       :     2.479722  s :     2.479722
      pz      :     0.877032  p :     2.253102
      px      :     0.773517
      py      :     0.602553
      dz2     :     0.227400  d :     0.913623
      dxz     :     0.280065
      dyz     :     0.172349
      dx2y2   :     0.115173
      dxy     :     0.118636
      f0      :     0.062745  f :     0.466321
      f+1     :     0.166472
      f-1     :     0.053711
      f+2     :     0.051535
      f-2     :     0.058786
      f+3     :     0.032392
      f-3     :     0.040681

  7 H s       :     0.658418  s :     0.658418
      pz      :     0.096806  p :     0.292488
      px      :     0.115993
      py      :     0.079689
      dz2     :     0.052143  d :     0.212729
      dxz     :     0.050689
      dyz     :     0.029928
      dx2y2   :     0.041932
      dxy     :     0.038037

  8 C s       :     2.493860  s :     2.493860
      pz      :     0.868429  p :     2.227274
      px      :     0.794797
      py      :     0.564048
      dz2     :     0.342920  d :     1.199995
      dxz     :     0.390542
      dyz     :     0.226587
      dx2y2   :     0.122128
      dxy     :     0.117818
      f0      :     0.132097  f :     0.627196
      f+1     :     0.230660
      f-1     :     0.093688
      f+2     :     0.050005
      f-2     :     0.052667
      f+3     :     0.029840
      f-3     :     0.038240

  9 O s       :     3.183665  s :     3.183665
      pz      :     1.425799  p :     4.023908
      px      :     1.433000
      py      :     1.165109
      dz2     :     0.082412  d :     0.227033
      dxz     :     0.092888
      dyz     :     0.042077
      dx2y2   :     0.004905
      dxy     :     0.004750
      f0      :     0.025576  f :     0.078604
      f+1     :     0.032095
      f-1     :     0.018215
      f+2     :     0.001236
      f-2     :     0.001228
      f+3     :     0.000129
      f-3     :     0.000124

 10 O s       :     3.199661  s :     3.199661
      pz      :     1.426627  p :     4.042580
      px      :     1.440134
      py      :     1.175819
      dz2     :     0.080332  d :     0.225991
      dxz     :     0.094426
      dyz     :     0.043108
      dx2y2   :     0.004120
      dxy     :     0.004006
      f0      :     0.025425  f :     0.078111
      f+1     :     0.031839
      f-1     :     0.018056
      f+2     :     0.001297
      f-2     :     0.001316
      f+3     :     0.000096
      f-3     :     0.000084

 11 C s       :     2.450248  s :     2.450248
      pz      :     0.768916  p :     2.293940
      px      :     0.754579
      py      :     0.770445
      dz2     :     0.059877  d :     0.507468
      dxz     :     0.140667
      dyz     :     0.125019
      dx2y2   :     0.094438
      dxy     :     0.087467
      f0      :     0.022580  f :     0.186146
      f+1     :     0.048220
      f-1     :     0.011025
      f+2     :     0.029898
      f-2     :     0.029148
      f+3     :     0.021995
      f-3     :     0.023280

 12 H s       :     0.617857  s :     0.617857
      pz      :     0.107490  p :     0.311879
      px      :     0.086748
      py      :     0.117640
      dz2     :     0.049370  d :     0.222639
      dxz     :     0.050157
      dyz     :     0.043284
      dx2y2   :     0.038556
      dxy     :     0.041272

 13 H s       :     0.617915  s :     0.617915
      pz      :     0.098506  p :     0.311820
      px      :     0.087312
      py      :     0.126002
      dz2     :     0.037053  d :     0.222587
      dxz     :     0.038929
      dyz     :     0.052062
      dx2y2   :     0.051123
      dxy     :     0.043421

 14 H s       :     0.624952  s :     0.624952
      pz      :     0.109377  p :     0.308396
      px      :     0.109611
      py      :     0.089407
      dz2     :     0.043029  d :     0.222932
      dxz     :     0.051518
      dyz     :     0.044190
      dx2y2   :     0.044948
      dxy     :     0.039248



                      *****************************
                      * MAYER POPULATION ANALYSIS *
                      *****************************

  NA   - Mulliken gross atomic population
  ZA   - Total nuclear charge
  QA   - Mulliken gross atomic charge
  VA   - Mayer's total valence
  BVA  - Mayer's bonded valence
  FA   - Mayer's free valence

  ATOM       NA         ZA         QA         VA         BVA        FA
  0 C      4.8853     6.0000     1.1147     2.2098     2.2098    -0.0000
  1 C      6.5180     6.0000    -0.5180     3.4568     3.4568    -0.0000
  2 C      6.7646     6.0000    -0.7646     3.1595     3.1595     0.0000
  3 H      0.5497     1.0000     0.4503     0.7015     0.7015     0.0000
  4 H      0.7271     1.0000     0.2729     0.9347     0.9347     0.0000
  5 C      6.5515     6.0000    -0.5515     3.4068     3.4068    -0.0000
  6 C      5.1479     6.0000     0.8521     2.6928     2.6928     0.0000
  7 H      0.5118     1.0000     0.4882     0.6264     0.6264    -0.0000
  8 C      5.2741     6.0000     0.7259     2.7714     2.7714    -0.0000
  9 O      8.9938     8.0000    -0.9938     1.2612     1.2612     0.0000
 10 O      8.9744     8.0000    -0.9744     1.3615     1.3615     0.0000
 11 C      6.7478     6.0000    -0.7478     3.6452     3.6452     0.0000
 12 H      0.7753     1.0000     0.2247     0.9880     0.9880     0.0000
 13 H      0.7755     1.0000     0.2245     0.9875     0.9875     0.0000
 14 H      0.8031     1.0000     0.1969     1.0206     1.0206    -0.0000

  Mayer bond orders larger than 0.100000
B(  0-C ,  1-C ) :   0.8490 B(  0-C ,  2-C ) :   0.8179 B(  0-C ,  5-C ) :  -0.1073 
B(  0-C , 10-O ) :   0.6702 B(  1-C ,  2-C ) :   0.2589 B(  1-C ,  3-H ) :   0.5396 
B(  1-C ,  5-C ) :   1.7348 B(  1-C , 10-O ) :   0.1394 B(  2-C ,  4-H ) :   0.7709 
B(  2-C ,  5-C ) :  -0.1420 B(  2-C ,  6-C ) :   1.2146 B(  5-C ,  6-C ) :   0.2038 
B(  5-C ,  7-H ) :   0.4587 B(  5-C ,  8-C ) :   0.9412 B(  5-C ,  9-O ) :   0.1478 
B(  6-C ,  8-C ) :   0.8885 B(  6-C , 10-O ) :   0.1225 B(  6-C , 11-C ) :   0.4623 
B(  8-C ,  9-O ) :   0.7115 B(  8-C , 11-C ) :   0.1765 B( 11-C , 12-H ) :   0.9663 
B( 11-C , 13-H ) :   0.9664 B( 11-C , 14-H ) :   1.0069 

-------
TIMINGS
-------

Total SCF time: 0 days 0 hours 2 min 17 sec 

Total time                  ....     137.749 sec
Sum of individual times     ....     134.265 sec  ( 97.5%)

SCF preparation             ....       1.963 sec  (  1.4%)
Fock matrix formation       ....      99.072 sec  ( 71.9%)
  Startup                   ....       4.843 sec  (  4.9% of F)
  Split-RI-J                ....      13.835 sec  ( 14.0% of F)
  Chain of spheres X        ....      50.334 sec  ( 50.8% of F)
  XC integration            ....      18.313 sec  ( 18.5% of F)
    XC Preparation          ....       0.000 sec  (  0.0% of XC)
    Basis function eval.    ....       2.219 sec  ( 12.1% of XC)
    Density eval.           ....       3.202 sec  ( 17.5% of XC)
    XC-Functional eval.     ....       0.132 sec  (  0.7% of XC)
    XC-Potential eval.      ....       4.557 sec  ( 24.9% of XC)
  CPCM terms                ....       5.128 sec  (  5.2% of F)
Diagonalization             ....       0.000 sec  (  0.0%)
Density matrix formation    ....       7.594 sec  (  5.5%)
Total Energy calculation    ....       4.901 sec  (  3.6%)
Population analysis         ....       0.790 sec  (  0.6%)
Orbital Transformation      ....       0.932 sec  (  0.7%)
Orbital Orthonormalization  ....       0.000 sec  (  0.0%)
DIIS solution               ....      16.897 sec  ( 12.3%)
SOSCF solution              ....       2.116 sec  (  1.5%)
Finished LeanSCF after 138.2 sec

Maximum memory used throughout the entire LEANSCF-calculation: 68.0 MB


-------------------------------------------------------------------------------
                          DFT DISPERSION CORRECTION                            
                                                                               
                              DFTD3 V3.1  Rev 1                                
                          USING Becke-Johnson damping                          
-------------------------------------------------------------------------------
The B3LYP functional is recognized
Active option DFTDOPT                   ...         4   

molecular C6(AA) [au] = 2707.352389 


            DFT-D V3
 parameters
 s6 scaling factor         :     1.0000 
 a1 scaling factor         :     0.3981 
 s8 scaling factor         :     1.9889 
 a2 scaling factor         :     4.4211 
 ad hoc parameters k1-k3   :    16.0000     1.3333    -4.0000 

 Edisp/kcal,au: -16.579763047673  -0.026421531410 
 E6   /kcal   :  -7.645649193 
 E8   /kcal   :  -8.934113855 
 % E8         :  53.885654632 

-------------------------   ----------------
Dispersion correction           -0.026421531
-------------------------   ----------------


-------------------------   --------------------
FINAL SINGLE POINT ENERGY      -420.732151770005
-------------------------   --------------------



           ************************************************************
           *        Program running with 15 parallel MPI-processes    *
           *              working on a common directory               *
           ************************************************************

------------------------------------------------------------------------------
                              ORCA PROPERTY CALCULATIONS
------------------------------------------------------------------------------

GBWName                                 ... cs_rporg_w08_ox_solv_02.gbw
Number of atoms                         ...     15
Number of basis functions               ...    606
Max core memory                         ...   3500 MB

Electric properties:
Dipole moment                           ... YES
Quadrupole moment                       ...  NO
Static polarizability (Dipole/Dipole)   ...  NO
Static polarizability (Dipole/Quad.)    ...  NO
Static polarizability (Quad./Quad.)     ...  NO
Static polarizability (Velocity)        ...  NO

Atomic electric properties:
Dipole moment                           ...  NO
Quadrupole moment                       ...  NO
Static polarizability                   ...  NO

Choice of electric origin               ... Center of mass
Position of electric origin             ...     0.561907     0.171856     2.960429

General magnetic properties:
Magnetizability                         ...  NO

EPR properties:
g-Tensor (aka g-matrix)                 ...  NO
Zero-Field splitting spin-orbit         ...  NO
Zero-field splitting spin-spin          ...  NO
Hyperfine couplings                     ...  NO (   0 nuclei)
Quadrupole couplings                    ...  NO (   0 nuclei)
Contact density                         ...  NO (   0 nuclei)

NMR properties:
Chemical shifts                         ...  NO (   0 nuclei)
Spin-rotation constants                 ...  NO (   0 nuclei)
Spin-spin couplings                     ...  NO (   0 nuclei,    0 pairs)

Choice of magnetic origin               ... GIAO
Position of magnetic origin             ...     0.000000     0.000000     0.000000

Properties with geometric perturbations:
SCF Hessian                             ...  NO
IR spectrum                             ...  NO
VCD spectrum                            ...  NO
X-ray spectroscopy properties:
SCF XES/XAS/RIXS spectra                ...  NO


-------------
DIPOLE MOMENT
-------------

Method             : SCF
Type of density    : Electron Density
Multiplicity       :   1
Irrep              :   0
Energy             :  -420.7057302385950948 Eh
Relativity type    : 
Basis              : AO
                                X                 Y                 Z
Electronic contribution:     -3.861252818      -1.210533296      -2.260542540
Nuclear contribution   :      4.092101562       1.259935150       2.614157328
                        -----------------------------------------
Total Dipole Moment    :      0.230848744       0.049401854       0.353614787
                        -----------------------------------------
Magnitude (a.u.)       :      0.425176556
Magnitude (Debye)      :      1.080712920



--------------------
Rotational spectrum 
--------------------
 
Rotational constants in cm-1:             0.099449             0.047883             0.032517 
Rotational constants in MHz :          2981.414348          1435.498503           974.822832 

Dipole components along the rotational axes: 
x,y,z [a.u.] :     0.408136    -0.119108     0.003650 
x,y,z [Debye]:     1.037400    -0.302748     0.009278 

 

Dipole moment calculation done in   0.4 sec 

Maximum memory used throughout the entire PROP-calculation: 36.9 MB

--------------------------------
SUGGESTED CITATIONS FOR THIS RUN
--------------------------------

Below you find a list of papers that are relevant to this ORCA run
We neither can nor want to force you to cite these papers, but we appreciate if you do
You receive ORCA, which is the product of decades of hard work by many enthusiastic individuals, for free
The only thing we kindly ask in return is that you cite our papers,
We deeply appreciate it, if you show your appreciation for ORCA by not just citing the generic ORCA reference.

Please note that relegating all ORCA citations to the supporting information does *not* help us.
SI sections are not indexed - citations you put there will not count into any citation statistics
But we need these citations in order to attract the funding resources that allow us to do what we are doing

Therefore, if you are a happy ORCA user, please consider citing a few of the papers listed below in the main body of your paper

In addition to the list printed below, the program has created the file cs_rporg_w08_ox_solv_02.bibtex that contains the list in bibtex format
You can import this file easily into all common literature databanks and citation aid programs


List of essential papers. We consider these as the minimum necessary citations

  1. Neese,F.
     Software update: the ORCA program system, version 5.0
     WIRES Comput. Molec. Sci., 2022 12(1)e1606
     doi.org/10.1002/wcms.1606

List of papers to cite with high priority. The work reported in these papers was absolutely
necessary for this run to complete.
Our perspective: the developers of density functionals and basis sets usually get cited in chemistry papers
Good! But without the algorithms to do something with them, the functionals or basis sets would not do anything.
Hence, in our opinion, the algorithm design and method developments papers are equally worthy of getting cited

  1. Neese,F.
     An improvement of the resolution of the identity approximation for the formation of the Coulomb matrix
     J. Comp. Chem., 2003 24(14)1740-1747
     doi.org/10.1002/jcc.10318
  2. Neese,F.; Wennmohs,F.; Hansen,A.; Becker,U.
     Efficient, approximate and parallel Hartree-Fock and hybrid DFT calculations. A 'chain-of-spheres' algorithm for the Hartree-Fock exchange
     Chem. Phys., 2009 356(1-3)98-109
     doi.org/10.1016/j.chemphys.2008.10.036
  3. Garcia-Rates,M.; Neese,F.
     Effect of the Solute Cavity on the Solvation Energy and its Derivatives within the Framework of the Gaussian Charge Scheme
     J. Comput. Chem., 2020 41 922-939
     doi.org/10.1002/jcc.26139
  4. Helmich-Paris,B.; de Souza,B.; Neese,F.; Izsák,R.
     An improved chain of spheres for exchange algorithm
     J. Chem. Phys., 2021 155 104109
     doi.org/doi: 10.1063/5.0058766.
  5. Neese,F.
     The SHARK Integral Generation and Digestion System
     J. Comp. Chem., 2022  1-16
     doi.org/10.1002/jcc.26942
  6. Grimme,S.; Antony,J.; Ehrlich,S.; Krieg,H.
     A consistent and accurate ab initio parametrization of density functional dispersion correction (DFT-D) for the 94 elements H-Pu
     J. Chem. Phys., 2010 132 154104-XXXX
     doi.org/10.1063/1.3382344
  7. Grimme,S.; Ehrlich,S.; Goerigk,L.
     Effect of the damping function in dispersion corrected density functional theory
     J. Comput. Chem., 2011 32(7)1456-1465
     doi.org/10.1002/jcc.21759

List of suggested additional citations. These are papers that are important in the 'surrounding' of 
of this run, or papers that preceded the highly important papers. If you like your results we are grateful for a citation.

  1. Izsak,R.; Neese,F.
     An overlap fitted chain of spheres exchange method
     J. Chem. Phys., 2011 135 144105
     doi.org/10.1063/1.3646921
  2. Izsak,R.; Hansen,A.; Neese,F.
     The resolution of identity and chain of spheres approximations for the LPNO-CCSD singles Fock term
     Molec. Phys., 2012 110 2413-2417
     doi.org/10.1080/00268976.2012.687466
  3. Neese,F.
     The ORCA program system
     WIRES Comput. Molec. Sci., 2012 2(1)73-78
     doi.org/10.1002/wcms.81
  4. Izsak,R.; Neese,F.; Klopper,W.
     Robust fitting techniques in the chain of spheres approximation to the Fock exchange: The role of the complementary space
     J. Chem. Phys., 2013 139 
     doi.org/10.1063/1.4819264
  5. Neese,F.
     Software update: the ORCA program system, version 4.0
     WIRES Comput. Molec. Sci., 2018 8(1)1-6
     doi.org/10.1002/wcms.1327
  6. Neese,F.; Wennmohs,F.; Becker,U.; Riplinger,C.
     The ORCA quantum chemistry program package
     J. Chem. Phys., 2020 152 Art. No. L224108
     doi.org/10.1063/5.0004608

List of optional additional citations

  1. Neese,F.
     Approximate second-order SCF convergence for spin unrestricted wavefunctions
     Chem. Phys. Lett., 2000 325(1-3)93-98
     doi.org/10.1016/s0009-2614(00)00662-x

Timings for individual modules:

Sum of individual times          ...      153.793 sec (=   2.563 min)
Startup calculation              ...        7.745 sec (=   0.129 min)   5.0 %
SCF iterations                   ...      143.679 sec (=   2.395 min)  93.4 %
Property calculations            ...        2.368 sec (=   0.039 min)   1.5 %
                             ****ORCA TERMINATED NORMALLY****
TOTAL RUN TIME: 0 days 0 hours 2 minutes 37 seconds 427 msec
