
                                 *****************
                                 * O   R   C   A *
                                 *****************

                                            #,                                       
                                            ###                                      
                                            ####                                     
                                            #####                                    
                                            ######                                   
                                           ########,                                 
                                     ,,################,,,,,                         
                               ,,#################################,,                 
                          ,,##########################################,,             
                       ,#########################################, ''#####,          
                    ,#############################################,,   '####,        
                  ,##################################################,,,,####,       
                ,###########''''           ''''###############################       
              ,#####''   ,,,,##########,,,,          '''####'''          '####       
            ,##' ,,,,###########################,,,                        '##       
           ' ,,###''''                  '''############,,,                           
         ,,##''                                '''############,,,,        ,,,,,,###''
      ,#''                                            '''#######################'''  
     '                                                          ''''####''''         
             ,#######,   #######,   ,#######,      ##                                
            ,#'     '#,  ##    ##  ,#'     '#,    #''#        ,####,   ,####,        
            ##       ##  ##   ,#'  ##            #'  '#       #'       #'  '#        
            ##       ##  #######   ##           ,######,      #####,   #    #        
            '#,     ,#'  ##    ##  '#,     ,#' ,#      #,     #,   #   #,  ,#        
             '#######'   ##     ##  '#######'  #'      '#     '####' # '####'        



                #########################################################
                #                        -***-                          #
                #          Department of theory and spectroscopy        #
                #                                                       #
                #                      Frank Neese                      #
                #                                                       #
                #     Directorship, Architecture, Infrastructure        #
                #                    SHARK, DRIVERS                     #
                #        Core code/Algorithms in most modules           #
                #                                                       #
                #        Max Planck Institute fuer Kohlenforschung      #
                #                Kaiser Wilhelm Platz 1                 #
                #                 D-45470 Muelheim/Ruhr                 #
                #                      Germany                          #
                #                                                       #
                #                  All rights reserved                  #
                #                        -***-                          #
                #########################################################


                         Program Version 6.0.0  -   RELEASE  -


 With contributions from (in alphabetic order):
   Daniel Aravena         : Magnetic Suceptibility
   Michael Atanasov       : Ab Initio Ligand Field Theory (pilot matlab implementation)
   Alexander A. Auer      : GIAO ZORA, VPT2 properties, NMR spectrum
   Ute Becker             : All parallelization in ORCA, NUMFREQ, NUMCALC
   Giovanni Bistoni       : ED, misc. LED, open-shell LED, HFLD
   Martin Brehm           : Molecular dynamics
   Dmytro Bykov           : pre 5.0 version of the SCF Hessian
   Marcos Casanova-Páez   : Triplet and SCS-CIS(D). UHF-(DLPNO)-IP/EA/STEOM-CCSD. UHF-CVS-IP/STEOM-CCSD
   Vijay G. Chilkuri      : MRCI spin determinant printing, contributions to CSF-ICE
   Pauline Colinet        : FMM embedding
   Dipayan Datta          : RHF DLPNO-CCSD density
   Achintya Kumar Dutta   : EOM-CC, STEOM-CC
   Nicolas Foglia         : Exact transition moments, OPA infrastructure, MCD improvements
   Dmitry Ganyushin       : Spin-Orbit,Spin-Spin,Magnetic field MRCI
   Miquel Garcia          : C-PCM and meta-GGA Hessian, CCSD/C-PCM, Gaussian charge scheme
   Tiago L. C. Gouveia    : GS-ROHF, GS-ROCIS
   Yang Guo               : DLPNO-NEVPT2, F12-NEVPT2, CIM, IAO-localization
   Andreas Hansen         : Spin unrestricted coupled pair/coupled cluster methods
   Ingolf Harden          : AUTO-CI MPn and infrastructure 
   Benjamin Helmich-Paris : MC-RPA, TRAH-(SCF,CASSCF), AVAS, COSX integrals, SCF dyn. polar.
   Lee Huntington         : MR-EOM, pCC
   Robert Izsak           : Overlap fitted RIJCOSX, COSX-SCS-MP3, EOM
   Riya Kayal             : Wick's Theorem for AUTO-CI, AUTO-CI UHF-CCSDT
   Emily Kempfer          : AUTO-CI, RHF CISDT and CCSDT
   Christian Kollmar      : KDIIS, OOCD, Brueckner-CCSD(T), CCSD density, CASPT2, CASPT2-K, improved NEVPT2
   Axel Koslowski         : Symmetry handling
   Simone Kossmann        : Meta GGA functionals, TD-DFT gradient, OOMP2, (MP2 Hessian; deprecated post 5.0)
   Lucas Lang             : DCDCAS
   Marvin Lechner         : AUTO-CI (C++ implementation), FIC-MRCC
   Spencer Leger          : CASSCF response
   Dagmar Lenk            : GEPOL surface, SMD, ORCA-2-JSON
   Dimitrios Liakos       : Extrapolation schemes; Compound Job, initial MDCI parallelization
   Dimitrios Manganas     : Further ROCIS development; embedding schemes. LFT, Crystal Embedding
   Dimitrios Pantazis     : SARC Basis sets
   Anastasios Papadopoulos: AUTO-CI, single reference methods and gradients
   Taras Petrenko         : pre 6.0 DFT Hessian and TD-DFT gradient, (ASA, deprecated), ECA, 1-Electron XAS/XES, NRVS
   Peter Pinski           : DLPNO-MP2, DLPNO-MP2 Gradient
   Christoph Reimann      : Effective Core Potentials
   Marius Retegan         : Local ZFS, SOC
   Christoph Riplinger    : Optimizer, TS searches, QM/MM, DLPNO-CCSD(T), (RO)-DLPNO pert. Triples
   Michael Roemelt        : Original ROCIS implementation
   Masaaki Saitow         : Open-shell DLPNO-CCSD energy and density
   Barbara Sandhoefer     : DKH picture change effects
   Kantharuban Sivalingam : CASSCF convergence/infrastructure, NEVPT2 and variants, FIC-MRCI
   Bernardo de Souza      : ESD, SOC TD-DFT
   Georgi Stoychev        : AutoAux, RI-MP2 NMR, DLPNO-MP2 response, X2C
   Van Anh Tran           : RI-MP2 g-tensors
   Willem Van den Heuvel  : Paramagnetic NMR
   Zikuan Wang            : NOTCH, Electric field optimization 
   Frank Wennmohs         : Technical directorship and infrastructure
   Hang Xu                : AUTO-CI-Response properties 


 We gratefully acknowledge several colleagues who have allowed us to
 interface, adapt or use parts of their codes:
   Stefan Grimme, W. Hujo, H. Kruse, P. Pracht,  : VdW corrections, initial TS optimization,
                  C. Bannwarth, S. Ehlert,         DFT functionals, gCP, sTDA/sTD-DF
                  L. Wittmann, M. Mueller
   Ed Valeev, F. Pavosevic, A. Kumar             : LibInt (2-el integral package), F12 methods
   Garnet Chan, S. Sharma, J. Yang, R. Olivares  : DMRG
   Ulf Ekstrom                                   : XCFun DFT Library
   Mihaly Kallay                                 : mrcc  (arbitrary order and MRCC methods)
   Frank Weinhold                                : gennbo (NPA and NBO analysis)
   Simon Mueller                                 : openCOSMO-RS
   Christopher J. Cramer and Donald G. Truhlar   : smd solvation model
   Lars Goerigk                                  : TD-DFT with DH, B97 family of functionals
   V. Asgeirsson, H. Jonsson                     : NEB implementation
   FAccTs GmbH                                   : IRC, NEB, NEB-TS, DLPNO-Multilevel, CI-OPT
                                                   MM, QMMM, 2- and 3-layer-ONIOM, Crystal-QMMM,
                                                   LR-CPCM, SF, NACMEs, symmetry and pop. for TD-DFT,
                                                   nearIR, NL-DFT gradient (VV10), updates on ESD,
                                                   ML-optimized integration grids, MBIS, APM,
                                                   GOAT, DOCKER, SOLVATOR, interface openCOSMO-RS
   S Lehtola, MJT Oliveira, MAL Marques          : LibXC Library
   Liviu Ungur et al                             : ANISO software


 Your calculation uses the libint2 library for the computation of 2-el integrals
 For citations please refer to: http://libint.valeyev.net

 Your ORCA version has been built with support for libXC version: 6.2.2
 For citations please refer to: https://libxc.gitlab.io

 This ORCA versions uses:
   CBLAS   interface :  Fast vector & matrix operations
   LAPACKE interface :  Fast linear algebra routines
   SCALAPACK package :  Parallel linear algebra routines
   Shared memory     :  Shared parallel matrices
   BLAS/LAPACK       :  OpenBLAS 0.3.27  USE64BITINT DYNAMIC_ARCH NO_AFFINITY Sandybridge SINGLE_THREADED
        Core in use  :  Sandybridge
   Copyright (c) 2011-2014, The OpenBLAS Project


NOTE: MaxCore=3500 MB was set to SCF,MP2,MDCI,CIPSI,MRCI and CIS
      => If you want to overwrite this, your respective input block should be placed after the MaxCore statement
Your calculation utilizes the atom-pairwise dispersion correction
with the Becke-Johnson damping scheme (D3BJ)


Your calculation utilizes the SMD solvation module
Please cite in your paper:
A.V. Marenich, C.J. Cramer, D.G. Truhlar J. Phys. Chem. B, 113, (2009), 6378 

Warning: RI is on but no J-basis has been assigned. Assigning Def2/J (nothing to worry about!)
================================================================================

----- Orbital basis set information -----
Your calculation utilizes the basis: aug-cc-pVTZ 
    H, B-Ne : Obtained from the ccRepo (grant-hill.group.shef.ac.uk/ccrepo) Feb. 2017
              R. A. Kendall, T. H. Dunning, Jr., R. J. Harrison, J. Chem. Phys. 96, 6796 (1992)
         He : Obtained from the ccRepo (grant-hill.group.shef.ac.uk/ccrepo) Feb. 2017
              D. E. Woon, T. H. Dunning, Jr., J. Chem. Phys. 100, 2975 (1994)
  Li-Be, Na : Obtained from the ccRepo (grant-hill.group.shef.ac.uk/ccrepo) Feb. 2017
              B. P. Prascher, D. E. Woon, K. A. Peterson, T. H. Dunning, Jr., A. K. Wilson, Theor. Chem. Acc. 128, 69 (2011)
         Mg : Obtained from the Peterson Research Group Website (tyr0.chem.wsu.edu/~kipeters) Feb. 2017
              B. P. Prascher, D. E. Woon, K. A. Peterson, T. H. Dunning, Jr., A. K. Wilson, Theor. Chem. Acc. 128, 69 (2011)
      Al-Ar : Obtained from the ccRepo (grant-hill.group.shef.ac.uk/ccrepo) Feb. 2017
              D. E. Woon, T. H. Dunning, Jr., J. Chem. Phys. 98, 1358 (1993)
      Sc-Zn : Obtained from the ccRepo (grant-hill.group.shef.ac.uk/ccrepo) Feb. 2017
              N. B. Balabanov, K. A. Peterson, J. Chem. Phys. 123, 064107 (2005)
              N. B. Balabanov, K. A. Peterson, J. Chem. Phys. 125, 074110 (2006)
      Ga-Kr : Obtained from the ccRepo (grant-hill.group.shef.ac.uk/ccrepo) Feb. 2017
              A. K. Wilson, D. E. Woon, K. A. Peterson, T. H. Dunning, Jr., J. Chem. Phys. 110, 7667 (1999)
     Ag, Au : Obtained from the Peterson Research Group Website (tyr0.chem.wsu.edu/~kipeters) Feb. 2017
              K. A. Peterson, C. Puzzarini, Theor. Chem. Acc. 114, 283 (2005)

----- AuxJ basis set information -----
Your calculation utilizes the auxiliary basis: def2/J
   F. Weigend, Phys. Chem. Chem. Phys. 8, 1057 (2006).

================================================================================
                                        WARNINGS
                       Please study these warnings very carefully!
================================================================================


================================================================================
                                       INPUT FILE
================================================================================
NAME = cs_rporg_w06_ox_solv_02.inp
|  1> !B3LYP aug-cc-pVTZ d3 TightSCF SlowConv RIJCOSX defgrid2
|  2> 
|  3> %pal
|  4> nprocs 10
|  5> end
|  6> 
|  7> %scf
|  8> MaxIter 1500
|  9> end
| 10> 
| 11> %maxcore 3500
| 12> 
| 13> !CPCM
| 14> %cpcm smd true
| 15> SMDsolvent "WATER"
| 16> surfacetype gepol_ses
| 17> rsolv 1.40
| 18> end
| 19> 
| 20> * xyz 1 1
| 21>   C          -0.12783464168902      0.03134307060273     -1.09515140317282
| 22>   C          -0.07771588779790     -0.92971218052811     -0.16710947357547
| 23>   C          -0.12919605245006     -0.42683937130453      1.23585814524276
| 24>   N          -0.22178468713299      1.04844033562478      0.98180183190431
| 25>   C          -0.22815278386695      1.40845079820397     -0.48344802154556
| 26>   H          -0.00562746786650     -1.99097881364679     -0.41742121227399
| 27>   O          -0.28283959618216      1.84841054848959      1.83590548918913
| 28>   C          -0.08518619128336     -0.35879109937522     -2.55276447601453
| 29>   O          -0.01182556277165     -1.53029284400420     -2.84168103743639
| 30>   C          -1.55459876437257      2.13631852567497     -0.74219631083336
| 31>   H          -1.61559639608661      2.40210019987432     -1.80874507031995
| 32>   H          -2.41672834703621      1.49039588964646     -0.50990257113543
| 33>   H          -1.60867043617204      3.06315133921376     -0.14807750091220
| 34>   C           0.99197987220583      2.31175839591414     -0.70863005539040
| 35>   H           0.90571734984683      3.23356560719802     -0.11031871750380
| 36>   H           1.92856903642825      1.78807470587538     -0.45768655458116
| 37>   H           1.04150556124239      2.59281936172848     -1.77181047702734
| 38>   C           1.15110865335917     -0.68043554170839      2.04328624127400
| 39>   H           1.23899297088630     -1.76802501138656      2.19811060240581
| 40>   H           2.04596289628099     -0.33699333930403      1.49967780306167
| 41>   H           1.09453254399261     -0.18569022918863      3.02671243361448
| 42>   C          -1.38670020602967     -0.84436366873233      2.01059021085389
| 43>   H          -2.30386467942418     -0.61864219459089      1.44313189602476
| 44>   H          -1.33732117512029     -1.93426317158842      2.16621895625276
| 45>   H          -1.41858650993659     -0.34674593001915      2.99356252765365
| 46>   N          -0.13386543071122      0.63534107507626     -3.47284130418435
| 47>   H          -0.18439275173440      1.61992840290075     -3.25301637873183
| 48>   H          -0.10209108757800      0.36432528735361     -4.45187443683860
| 49> *
| 50> 
| 51>                          ****END OF INPUT****
================================================================================

                       ****************************
                       * Single Point Calculation *
                       ****************************

---------------------------------
CARTESIAN COORDINATES (ANGSTROEM)
---------------------------------
  C     -0.127835    0.031343   -1.095151
  C     -0.077716   -0.929712   -0.167109
  C     -0.129196   -0.426839    1.235858
  N     -0.221785    1.048440    0.981802
  C     -0.228153    1.408451   -0.483448
  H     -0.005627   -1.990979   -0.417421
  O     -0.282840    1.848411    1.835905
  C     -0.085186   -0.358791   -2.552764
  O     -0.011826   -1.530293   -2.841681
  C     -1.554599    2.136319   -0.742196
  H     -1.615596    2.402100   -1.808745
  H     -2.416728    1.490396   -0.509903
  H     -1.608670    3.063151   -0.148078
  C      0.991980    2.311758   -0.708630
  H      0.905717    3.233566   -0.110319
  H      1.928569    1.788075   -0.457687
  H      1.041506    2.592819   -1.771810
  C      1.151109   -0.680436    2.043286
  H      1.238993   -1.768025    2.198111
  H      2.045963   -0.336993    1.499678
  H      1.094533   -0.185690    3.026712
  C     -1.386700   -0.844364    2.010590
  H     -2.303865   -0.618642    1.443132
  H     -1.337321   -1.934263    2.166219
  H     -1.418587   -0.346746    2.993563
  N     -0.133865    0.635341   -3.472841
  H     -0.184393    1.619928   -3.253016
  H     -0.102091    0.364325   -4.451874

----------------------------
CARTESIAN COORDINATES (A.U.)
----------------------------
  NO LB      ZA    FRAG     MASS         X           Y           Z
   0 C     6.0000    0    12.011   -0.241572    0.059230   -2.069536
   1 C     6.0000    0    12.011   -0.146862   -1.756901   -0.315791
   2 C     6.0000    0    12.011   -0.244145   -0.806610    2.335433
   3 N     7.0000    0    14.007   -0.419112    1.981265    1.855337
   4 C     6.0000    0    12.011   -0.431146    2.661586   -0.913584
   5 H     1.0000    0     1.008   -0.010634   -3.762405   -0.788812
   6 O     8.0000    0    15.999   -0.534489    3.492990    3.469359
   7 C     6.0000    0    12.011   -0.160979   -0.678017   -4.824026
   8 O     8.0000    0    15.999   -0.022347   -2.891834   -5.369999
   9 C     6.0000    0    12.011   -2.937766    4.037057   -1.402548
  10 H     1.0000    0     1.008   -3.053035    4.539312   -3.418033
  11 H     1.0000    0     1.008   -4.566955    2.816440   -0.963576
  12 H     1.0000    0     1.008   -3.039947    5.788517   -0.279826
  13 C     6.0000    0    12.011    1.874570    4.368590   -1.339117
  14 H     1.0000    0     1.008    1.711558    6.110553   -0.208472
  15 H     1.0000    0     1.008    3.644467    3.378972   -0.864902
  16 H     1.0000    0     1.008    1.968160    4.899719   -3.348237
  17 C     6.0000    0    12.011    2.175280   -1.285837    3.861251
  18 H     1.0000    0     1.008    2.341357   -3.341083    4.153827
  19 H     1.0000    0     1.008    3.866310   -0.636825    2.833980
  20 H     1.0000    0     1.008    2.068367   -0.350904    5.719658
  21 C     6.0000    0    12.011   -2.620484   -1.595616    3.799465
  22 H     1.0000    0     1.008   -4.353673   -1.169064    2.727124
  23 H     1.0000    0     1.008   -2.527171   -3.655228    4.093561
  24 H     1.0000    0     1.008   -2.680740   -0.655255    5.657013
  25 N     7.0000    0    14.007   -0.252969    1.200621   -6.562719
  26 H     1.0000    0     1.008   -0.348452    3.061221   -6.147310
  27 H     1.0000    0     1.008   -0.192924    0.688475   -8.412823

--------------------------------
INTERNAL COORDINATES (ANGSTROEM)
--------------------------------
 C      0   0   0     0.000000000000     0.00000000     0.00000000
 C      1   0   0     1.336937137007     0.00000000     0.00000000
 C      2   1   0     1.491257660185   114.16450517     0.00000000
 N      3   2   1     1.499855819503   100.04728809     0.00000000
 C      4   3   2     1.508842343937   113.54346859     0.10495385
 H      2   1   3     1.092766934616   122.79228610   179.98081071
 O      4   3   2     1.171824688585   123.45214560   180.14123615
 C      1   2   3     1.509522915038   118.91030942   180.09636498
 O      8   1   2     1.208830384689   118.87945612     0.27008756
 C      5   4   3     1.534992197082   106.28908598   119.72180875
 H     10   5   4     1.100857332163   109.00660390   181.17908814
 H     10   5   4     1.102018080859   111.25800328   299.68017711
 H     10   5   4     1.102234081421   110.50305493    62.08926091
 C      5   4   3     1.534729703519   106.23422557   239.77901691
 H     14   5   4     1.102336706539   110.50787576   298.21569912
 H     14   5   4     1.102005676188   111.25810919    60.58447206
 H     14   5   4     1.100818181777   109.13232270   179.21247689
 C      3   2   1     1.534741439990   114.23211034   245.33220491
 H     18   3   2     1.102064013849   107.66801181   292.17432106
 H     18   3   2     1.101919596233   111.49464439    50.69668021
 H     18   3   2     1.102316132601   110.63294722   173.44402385
 C      3   2   1     1.534878825412   114.29406131   114.64686150
 H     22   3   2     1.101884655585   111.48605986   309.31786792
 H     22   3   2     1.102061487129   107.67349435    67.87405126
 H     22   3   2     1.102213557281   110.55068306   186.57246198
 N      8   1   2     1.355437131838   117.70312127   180.17388270
 H     26   8   1     1.010093171016   124.67979590     0.84870385
 H     26   8   1     1.016348877557   117.20545718   179.83667128

---------------------------
INTERNAL COORDINATES (A.U.)
---------------------------
 C      0   0   0     0.000000000000     0.00000000     0.00000000
 C      1   0   0     2.526445047212     0.00000000     0.00000000
 C      2   1   0     2.818068572863   114.16450517     0.00000000
 N      3   2   1     2.834316739229   100.04728809     0.00000000
 C      4   3   2     2.851298809305   113.54346859     0.10495385
 H      2   1   3     2.065030234628   122.79228610   179.98081071
 O      4   3   2     2.214427738393   123.45214560   180.14123615
 C      1   2   3     2.852584902301   118.91030942   180.09636498
 O      8   1   2     2.284358369426   118.87945612     0.27008756
 C      5   4   3     2.900714870191   106.28908598   119.72180875
 H     10   5   4     2.080318870307   109.00660390   181.17908814
 H     10   5   4     2.082512367453   111.25800328   299.68017711
 H     10   5   4     2.082920549360   110.50305493    62.08926091
 C      5   4   3     2.900218829245   106.23422557   239.77901691
 H     14   5   4     2.083114482727   110.50787576   298.21569912
 H     14   5   4     2.082488926021   111.25810919    60.58447206
 H     14   5   4     2.080244886800   109.13232270   179.21247689
 C      3   2   1     2.900241007960   114.23211034   245.33220491
 H     18   3   2     2.082599168225   107.66801181   292.17432106
 H     18   3   2     2.082326258482   111.49464439    50.69668021
 H     18   3   2     2.083075603619   110.63294722   173.44402385
 C      3   2   1     2.900500628784   114.29406131   114.64686150
 H     22   3   2     2.082260230226   111.48605986   309.31786792
 H     22   3   2     2.082594393417   107.67349435    67.87405126
 H     22   3   2     2.082881764356   110.55068306   186.57246198
 N      8   1   2     2.561404970922   117.70312127   180.17388270
 H     26   8   1     1.908799462964   124.67979590     0.84870385
 H     26   8   1     1.920621035101   117.20545718   179.83667128

---------------------
BASIS SET INFORMATION
---------------------
There are 4 groups of distinct atoms

 Group   1 Type C   : 19s6p3d2f contracted to 5s4p3d2f pattern {88111/3111/111/11}
 Group   2 Type N   : 19s6p3d2f contracted to 5s4p3d2f pattern {88111/3111/111/11}
 Group   3 Type H   : 6s3p2d contracted to 4s3p2d pattern {3111/111/11}
 Group   4 Type O   : 19s6p3d2f contracted to 5s4p3d2f pattern {88111/3111/111/11}

Atom   0C    basis set group =>   1
Atom   1C    basis set group =>   1
Atom   2C    basis set group =>   1
Atom   3N    basis set group =>   2
Atom   4C    basis set group =>   1
Atom   5H    basis set group =>   3
Atom   6O    basis set group =>   4
Atom   7C    basis set group =>   1
Atom   8O    basis set group =>   4
Atom   9C    basis set group =>   1
Atom  10H    basis set group =>   3
Atom  11H    basis set group =>   3
Atom  12H    basis set group =>   3
Atom  13C    basis set group =>   1
Atom  14H    basis set group =>   3
Atom  15H    basis set group =>   3
Atom  16H    basis set group =>   3
Atom  17C    basis set group =>   1
Atom  18H    basis set group =>   3
Atom  19H    basis set group =>   3
Atom  20H    basis set group =>   3
Atom  21C    basis set group =>   1
Atom  22H    basis set group =>   3
Atom  23H    basis set group =>   3
Atom  24H    basis set group =>   3
Atom  25N    basis set group =>   2
Atom  26H    basis set group =>   3
Atom  27H    basis set group =>   3
---------------------------------
AUXILIARY/J BASIS SET INFORMATION
---------------------------------
There are 4 groups of distinct atoms

 Group   1 Type C   : 12s5p4d2f1g contracted to 6s4p3d1f1g pattern {711111/2111/211/2/1}
 Group   2 Type N   : 12s5p4d2f1g contracted to 6s4p3d1f1g pattern {711111/2111/211/2/1}
 Group   3 Type H   : 5s2p1d contracted to 3s1p1d pattern {311/2/1}
 Group   4 Type O   : 12s5p4d2f1g contracted to 6s4p3d1f1g pattern {711111/2111/211/2/1}

Atom   0C    basis set group =>   1
Atom   1C    basis set group =>   1
Atom   2C    basis set group =>   1
Atom   3N    basis set group =>   2
Atom   4C    basis set group =>   1
Atom   5H    basis set group =>   3
Atom   6O    basis set group =>   4
Atom   7C    basis set group =>   1
Atom   8O    basis set group =>   4
Atom   9C    basis set group =>   1
Atom  10H    basis set group =>   3
Atom  11H    basis set group =>   3
Atom  12H    basis set group =>   3
Atom  13C    basis set group =>   1
Atom  14H    basis set group =>   3
Atom  15H    basis set group =>   3
Atom  16H    basis set group =>   3
Atom  17C    basis set group =>   1
Atom  18H    basis set group =>   3
Atom  19H    basis set group =>   3
Atom  20H    basis set group =>   3
Atom  21C    basis set group =>   1
Atom  22H    basis set group =>   3
Atom  23H    basis set group =>   3
Atom  24H    basis set group =>   3
Atom  25N    basis set group =>   2
Atom  26H    basis set group =>   3
Atom  27H    basis set group =>   3


           ************************************************************
           *        Program running with 10 parallel MPI-processes    *
           *              working on a common directory               *
           ************************************************************
------------------------------------------------------------------------------
                             ORCA STARTUP CALCULATIONS
                           -- RI-GTO INTEGRALS CHOSEN --
------------------------------------------------------------------------------
------------------------------------------------------------------------------
                   ___                                                        
                  /   \      - P O W E R E D   B Y -                         
                 /     \                                                     
                 |  |  |   _    _      __       _____    __    __             
                 |  |  |  | |  | |    /  \     |  _  \  |  |  /  |          
                  \  \/   | |  | |   /    \    | | | |  |  | /  /          
                 / \  \   | |__| |  /  /\  \   | |_| |  |  |/  /          
                |  |  |   |  __  | /  /__\  \  |    /   |      \           
                |  |  |   | |  | | |   __   |  |    \   |  |\   \          
                \     /   | |  | | |  |  |  |  | |\  \  |  | \   \       
                 \___/    |_|  |_| |__|  |__|  |_| \__\ |__|  \__/        
                                                                              
                      - O R C A' S   B I G   F R I E N D -                    
                                      &                                       
                       - I N T E G R A L  F E E D E R -                       
                                                                              
 v1 FN, 2020, v2 2021, v3 2022-2024                                           
------------------------------------------------------------------------------


----------------------
SHARK INTEGRAL PACKAGE
----------------------

Number of atoms                             ...     28
Number of basis functions                   ...   1021
Number of shells                            ...    395
Maximum angular momentum                    ...      3
Integral batch strategy                     ... SHARK/LIBINT Hybrid
RI-J (if used) integral strategy            ... SPLIT-RIJ (Revised 2003 algorithm where possible)
Printlevel                                  ...      1
Contraction scheme used                     ... PARTIAL GENERAL contraction
Prescreening option                         ... SCHWARTZ
   Thresh                                   ... 2.500e-11
   Tcut                                     ... 2.500e-12
   Tpresel                                  ... 2.500e-12 
Coulomb Range Separation                    ... NOT USED
Exchange Range Separation                   ... NOT USED
Multipole approximations                    ... NOT USED
Finite Nucleus Model                        ... NOT USED
CABS basis                                  ... NOT available
Auxiliary Coulomb fitting basis             ... AVAILABLE
   # of basis functions in Aux-J            ...    802
   # of shells in Aux-J                     ...    270
   Maximum angular momentum in Aux-J        ...      4
Auxiliary J/K fitting basis                 ... NOT available
Auxiliary Correlation fitting basis         ... NOT available
Auxiliary 'external' fitting basis          ... NOT available

Checking pre-screening integrals            ... done (  0.6 sec) Dimension = 395
Save PGC pre-screening integrals            ... done (  0.6 sec) Dimension = 395
Calculate PGC overlap integrals             ... done (  0.7 sec) Dimension = 317
Calculating pre-screening integrals (ORCA)  ... done (  0.9 sec) Dimension = 317
Check shell pair data                       ... done (  0.0 sec)
Shell pair information
Shell pair cut-off parameter TPreSel        ...   2.5e-12
Total number of shell pairs                 ...     78210
Shell pairs after pre-screening             ...     64048
Total number of primitive shell pairs       ...    102010
Primitive shell pairs kept                  ...     76744
          la=0 lb=0:  14283 shell pairs
          la=1 lb=0:  16479 shell pairs
          la=1 lb=1:   4381 shell pairs
          la=2 lb=0:  11602 shell pairs
          la=2 lb=1:   6162 shell pairs
          la=2 lb=2:   2220 shell pairs
          la=3 lb=0:   4522 shell pairs
          la=3 lb=1:   2371 shell pairs
          la=3 lb=2:   1692 shell pairs
          la=3 lb=3:    336 shell pairs

Calculating one electron integrals          ... done (  0.2 sec)
Calculating RI/J V-Matrix + Cholesky decomp.... done (  0.1 sec)
Calculating Nuclear repulsion               ... done (  0.0 sec) ENN=    871.958234541026 Eh

Diagonalization of the overlap matrix:
Smallest eigenvalue                        ... 2.780e-07
Time for diagonalization                   ...    0.351 sec
Threshold for overlap eigenvalues          ... 1.000e-07
Number of eigenvalues below threshold      ... 0

IMPORTANT:
Smallest eigenvalue of S below the DiffSThresh (1.000e-06) while
Thresh>1e-12 and/or TCut>1e-13! In order to avoid SCF convergence issues,
Thresh will be set to at least 1e-12 and TCut to at least 1e-13.
This can be turned off by adding %SCF DiffSThresh -1 END to the input.

Time for construction of square roots      ...    0.221 sec
Total time needed                          ...    0.632 sec

-------------------
DFT GRID GENERATION
-------------------

General Integration Accuracy     IntAcc      ... 4.388
Radial Grid Type                 RadialGrid  ... OptM3 with GC (2021)
Angular Grid (max. ang.)         AngularGrid ... 4 (Lebedev-302)
Angular grid pruning method      GridPruning ... 4 (adaptive)
Weight generation scheme         WeightScheme... mBecke (2022)
Basis function cutoff            BFCut       ... 1.0000e-11
Integration weight cutoff        WCut        ... 1.0000e-14
Partially contracted basis set               ... off
Rotationally invariant grid construction     ... off
Angular grids for H and He will be reduced by one unit
Diffuse basis detected: some atoms will have their outermost
                        angular grid increased by 1.

Total number of grid points                  ...   131098
Total number of batches                      ...     2064
Average number of points per batch           ...       63
Average number of grid points per atom       ...     4682

---------------------
SHARK GRID GENERATION
---------------------

General Integration Accuracy     IntAcc      ... 4.388
Radial Grid Type                 RadialGrid  ... OptM3 with GC (2021)
Angular Grid (max. ang.)         AngularGrid ... 4 (Lebedev-302)
Angular grid pruning method      GridPruning ... 4 (adaptive)
Weight generation scheme         WeightScheme... mBecke (2022)
Basis function cutoff            BFCut       ... 1.0000e-11
Integration weight cutoff        WCut        ... 1.0000e-14
Partially contracted basis set               ... off
Rotationally invariant grid construction     ... off
Angular grids for H and He will be reduced by one unit
Diffuse basis detected: some atoms will have their outermost
                        angular grid increased by 1.
Steep s-basis detected: some atoms will have their radial
                        grid points doubled.

Total number of grid points                  ...   212020
Total number of batches                      ...     3328
Average number of points per batch           ...       63
Average number of grid points per atom       ...     7572

--------------------
COSX GRID GENERATION
--------------------

GRIDX 1
-------
General Integration Accuracy     IntAcc      ... 3.816
Radial Grid Type                 RadialGrid  ... OptM3 with GC (2021)
Angular Grid (max. ang.)         AngularGrid ... 1 (Lebedev-50)
Angular grid pruning method      GridPruning ... 4 (adaptive)
Weight generation scheme         WeightScheme... mBecke (2022)
Basis function cutoff            BFCut       ... 1.0000e-11
Integration weight cutoff        WCut        ... 1.0000e-14
Partially contracted basis set               ... on
Rotationally invariant grid construction     ... off
Angular grids for H and He will be reduced by one unit
Diffuse basis detected: some atoms will have their outermost
                        angular grid increased by 1.

Total number of grid points                  ...    16408
Total number of batches                      ...      142
Average number of points per batch           ...      115
Average number of grid points per atom       ...      586
UseSFitting                                  ... on

GRIDX 2
-------
General Integration Accuracy     IntAcc      ... 4.020
Radial Grid Type                 RadialGrid  ... OptM3 with GC (2021)
Angular Grid (max. ang.)         AngularGrid ... 2 (Lebedev-110)
Angular grid pruning method      GridPruning ... 4 (adaptive)
Weight generation scheme         WeightScheme... mBecke (2022)
Basis function cutoff            BFCut       ... 1.0000e-11
Integration weight cutoff        WCut        ... 1.0000e-14
Partially contracted basis set               ... on
Rotationally invariant grid construction     ... off
Angular grids for H and He will be reduced by one unit
Diffuse basis detected: some atoms will have their outermost
                        angular grid increased by 1.

Total number of grid points                  ...    38325
Total number of batches                      ...      314
Average number of points per batch           ...      122
Average number of grid points per atom       ...     1369
UseSFitting                                  ... on

GRIDX 3
-------
General Integration Accuracy     IntAcc      ... 4.338
Radial Grid Type                 RadialGrid  ... OptM3 with GC (2021)
Angular Grid (max. ang.)         AngularGrid ... 3 (Lebedev-194)
Angular grid pruning method      GridPruning ... 4 (adaptive)
Weight generation scheme         WeightScheme... mBecke (2022)
Basis function cutoff            BFCut       ... 1.0000e-11
Integration weight cutoff        WCut        ... 1.0000e-14
Partially contracted basis set               ... on
Rotationally invariant grid construction     ... off
Angular grids for H and He will be reduced by one unit
Diffuse basis detected: some atoms will have their outermost
                        angular grid increased by 1.

Total number of grid points                  ...    85087
Total number of batches                      ...      677
Average number of points per batch           ...      125
Average number of grid points per atom       ...     3039
UseSFitting                                  ... on
Initializing property integral containers    ... done (  0.1 sec)

SHARK setup successfully completed in  13.4 seconds

Maximum memory used throughout the entire STARTUP-calculation: 120.4 MB


           ************************************************************
           *        Program running with 10 parallel MPI-processes    *
           *              working on a common directory               *
           ************************************************************
-------------------------------------------------------------------------------
                                 ORCA GUESS
                   Start orbitals & Density for SCF / CASSCF
-------------------------------------------------------------------------------

------------
SCF SETTINGS
------------
Hamiltonian:
 Density Functional     Method          .... DFT(GTOs)
 Exchange Functional    Exchange        .... B88
   X-Alpha parameter    XAlpha          ....  0.666667
   Becke's b parameter  XBeta           ....  0.004200
 Correlation Functional Correlation     .... LYP
 LDA part of GGA corr.  LDAOpt          .... VWN-5
 Gradients option       PostSCFGGA      .... off
 Hybrid DFT is turned on
   Fraction HF Exchange ScalHFX         ....  0.200000
   Scaling of DF-GGA-X  ScalDFX         ....  0.720000
   Scaling of DF-GGA-C  ScalDFC         ....  0.810000
   Scaling of DF-LDA-C  ScalLDAC        ....  1.000000
   Perturbative correction              ....  0.000000
   NL short-range parameter             ....  4.800000
 RI-approximation to the Coulomb term is turned on
   Number of AuxJ basis functions       .... 802
   RIJ-COSX (HFX calculated with COS-X)).... on


General Settings:
 Integral files         IntName         .... cs_rporg_w06_ox_solv_02
 Hartree-Fock type      HFTyp           .... RHF
 Total Charge           Charge          ....    1
 Multiplicity           Mult            ....    1
 Number of Electrons    NEL             ....   98
 Basis Dimension        Dim             ....  943
 Nuclear Repulsion      ENuc            ....    871.9582345410 Eh

Convergence Acceleration:
 AO-DIIS                CNVDIIS         .... on
   Start iteration      DIISMaxIt       ....     0
   Startup error        DIISStart       ....  0.200000
   # of expansion vecs  DIISMaxEq       ....     5
   Bias factor          DIISBfac        ....   1.050
   Max. coefficient     DIISMaxC        ....  10.000
 MO-DIIS                CNVKDIIS        .... off
 Trust-Rad. Augm. Hess. CNVTRAH         .... auto
   Auto Start mean grad. ratio tolernc. ....  1.125000
   Auto Start start iteration           ....    50
   Auto Start num. interpolation iter.  ....    10
   Max. Number of Micro iterations      ....    24
   Max. Number of Macro iterations      .... Maxiter - #DIIS iter
   Number of Davidson start vectors     ....     2
   Converg. threshold    (grad. norm)   ....   1.000e-05
   Grad. Scal. Fac. for Micro threshold ....   0.100
   Minimum threshold for Micro iter.    ....   1.000e-02
   NR start threshold (gradient norm)   ....   1.000e-04
   Initial trust radius                 ....   0.400
   Minimum AH scaling param. (alpha)    ....   1.000
   Maximum AH scaling param. (alpha)    .... 1000.000
   Quad. conv. algorithm                .... NR
   White noise on init. David. guess    .... on
   Maximum white noise                  ....   0.010
   Pseudo random numbers                .... off
   Inactive MOs                         .... canonical
   Orbital update algorithm             .... Taylor
   Preconditioner                       .... Diag
   Full preconditioner red. dimension   ....   250
 SOSCF                  CNVSOSCF        .... on
   Start iteration      SOSCFMaxIt      ....   150
   Startup grad/error   SOSCFStart      ....  0.001000
   Hessian update       SOSCFHessUp     .... L-BFGS
 Level Shifting         CNVShift        .... on
   Level shift para.    LevelShift      ....    0.2500
   Turn off err/grad.   ShiftErr        ....    0.0000
 Zerner damping         CNVZerner       .... off
 Static damping         CNVDamp         .... on
   Fraction old density DampFac         ....    0.8500
   Max. Damping (<1)    DampMax         ....    0.9800
   Min. Damping (>=0)   DampMin         ....    0.0000
   Turn off err/grad.   DampErr         ....    0.0300

SCF Procedure:
 Maximum # iterations   MaxIter         ....  1500
 SCF integral mode      SCFMode         .... Direct
   Integral package                     .... SHARK and LIBINT hybrid scheme
 Reset frequency        DirectResetFreq ....    20
 Integral Threshold     Thresh          ....  1.000e-12 Eh
 Primitive CutOff       TCut            ....  1.000e-13 Eh

Convergence Tolerance:
 Convergence Check Mode ConvCheckMode   .... Total+1el-Energy
 Convergence forced     ConvForced      .... 0
 Energy Change          TolE            ....  1.000e-08 Eh
 1-El. energy change                    ....  1.000e-05 Eh
 Orbital Gradient       TolG            ....  1.000e-05
 Orbital Rotation angle TolX            ....  1.000e-05
 DIIS Error             TolErr          ....  5.000e-07

------------------------------
INITIAL GUESS: MODEL POTENTIAL
------------------------------
Loading Hartree-Fock densities                     ... done
Calculating cut-offs                               ... done
Initializing the effective Hamiltonian             ... done
Setting up the integral package (SHARK)            ... done
Starting the Coulomb interaction                   ... done (   1.0 sec)
Making the grid                                    ... done (   0.5 sec)
Mapping shells                                     ... done
Starting the XC term evaluation                    ... done (   1.1 sec)
  promolecular density results
     # of electrons  =     98.988669130
     EX              =    -80.307332560
     EC              =     -3.346880566
     EX+EC           =    -83.654213126
Transforming the Hamiltonian                       ... done (   0.2 sec)
Diagonalizing the Hamiltonian                      ... done (   0.4 sec)
Back transforming the eigenvectors                 ... done (   0.2 sec)
Now organizing SCF variables                       ... done
                      ------------------
                      INITIAL GUESS DONE (   4.5 sec)
                      ------------------
             **** ENERGY FILE WAS UPDATED (cs_rporg_w06_ox_solv_02.en.tmp) ****
Finished Guess after   6.0 sec
Maximum memory used throughout the entire GUESS-calculation: 97.7 MB


           ************************************************************
           *        Program running with 10 parallel MPI-processes    *
           *              working on a common directory               *
           ************************************************************

-------------------------------------------------------------------------------------------
                                      ORCA LEAN-SCF
                              memory conserving SCF solver
-------------------------------------------------------------------------------------------

--------------------
CPCM SOLVATION MODEL
--------------------
CPCM parameters:
  Epsilon                                         ...      78.3550
  Refrac                                          ...       1.3328
  Rsolv                                           ...       1.4000
  Surface type                                    ...    GEPOL SES
  Discretization scheme                           ... Constant num. charges
  Epsilon function type                           ...         CPCM
Solvent:                                          ... WATER
SMD-CDS solvent descriptors:
  Soln                                            ...       1.3328
  Soln25                                          ...       1.3323
  Sola                                            ...       0.0000
  Solb                                            ...       0.0000
  Solg                                            ...       0.0000
  Solc                                            ...       0.0000
  Solh                                            ...       0.0000
Radii:
  Scheme                                          ... Element-dependent radii
  Radius for C  used is    3.4960 Bohr (=   1.8500 Ang.)
  Radius for N  used is    3.5716 Bohr (=   1.8900 Ang.)
  Radius for H  used is    2.2677 Bohr (=   1.2000 Ang.)
  Radius for O  used is    2.8724 Bohr (=   1.5200 Ang.)
Calculating surface                               ...        done! (  0.2s)
Cavity surface points                             ...         1241
Cavity Volume                                     ...    1379.0334
Cavity Surface-area                               ...     734.3430
Calculating surface distance matrix               ...        done! (  0.0s)
Performing Cholesky decomposition & store         ...        done! (  0.1s)
Overall time for CPCM initialization              ...                 0.3s

----------------------------------------D-I-I-S--------------------------------------------
Iteration    Energy (Eh)           Delta-E    RMSDP     MaxDP     DIISErr   Damp  Time(sec)
-------------------------------------------------------------------------------------------
               ***  Starting incremental Fock matrix formation  ***
    1    -611.1620533739993562     0.00e+00  1.74e-03  3.05e-01  3.31e-01  0.850  29.0
Warning: op=0 Small HOMO/LUMO gap (  -0.029) - skipping pre-diagonalization
         Will do a full diagonalization
    2    -611.2808138161466331    -1.19e-01  1.75e-03  3.06e-01  2.30e-01  0.850  18.8
                               ***Turning on AO-DIIS***
    3    -611.3539047288276151    -7.31e-02  1.33e-03  2.65e-01  1.42e-01  0.850  17.3
    4    -611.3994021108404695    -4.55e-02  1.05e-03  2.22e-01  1.14e-01  0.850  17.9
    5    -611.4320606932707278    -3.27e-02  8.58e-04  1.85e-01  9.82e-02  0.850  19.0
    6    -611.4579474098362653    -2.59e-02  7.17e-04  1.56e-01  8.43e-02  0.850  18.9
    7    -611.4793044494971355    -2.14e-02  6.06e-04  1.32e-01  7.04e-02  0.850  18.0
    8    -611.4969695996516066    -1.77e-02  5.15e-04  1.12e-01  5.74e-02  0.850  17.9
    9    -611.5114459603779551    -1.45e-02  4.36e-04  9.41e-02  4.79e-02  0.850  16.7
   10    -611.5233891108579201    -1.19e-02  3.69e-04  7.93e-02  4.07e-02  0.850  17.1
   11    -611.5333360056516767    -9.95e-03  3.12e-04  6.71e-02  3.44e-02  0.850  17.0
   12    -611.5416544971009216    -8.32e-03  2.65e-04  5.69e-02  2.88e-02  0.850  16.5
   13    -611.5486167875873207    -6.96e-03  1.50e-03  3.23e-01  2.39e-02  0.000  16.2
   14    -611.5863054987470377    -3.77e-02  2.49e-05  3.56e-03  2.56e-03  0.000  17.8
                              *** Initializing SOSCF ***
---------------------------------------S-O-S-C-F--------------------------------------
Iteration    Energy (Eh)           Delta-E    RMSDP     MaxDP     MaxGrad    Time(sec)
--------------------------------------------------------------------------------------
   15    -611.5863234285021690    -1.79e-05  1.03e-05  1.33e-03  6.46e-04    18.6
               *** Restarting incremental Fock matrix formation ***
   16    -611.5863088578945508     1.46e-05  1.79e-04  2.34e-02  9.11e-05    28.3
   17    -611.5863088068166462     5.11e-08  5.33e-05  6.52e-03  1.72e-04    24.3
   18    -611.5863094689549371    -6.62e-07  5.67e-05  8.56e-03  4.35e-05    23.3
   19    -611.5863094395004964     2.95e-08  9.03e-06  1.47e-03  5.69e-05    24.2
   20    -611.5863094554964619    -1.60e-08  2.09e-05  4.16e-03  1.14e-05    21.6
   21    -611.5863094686320665    -1.31e-08  5.04e-06  7.66e-04  9.90e-06    23.3
   22    -611.5863094679297092     7.02e-10  1.25e-05  2.05e-03  1.04e-06    20.7
                 **** Energy Check signals convergence ****

               *****************************************************
               *                     SUCCESS                       *
               *           SCF CONVERGED AFTER  22 CYCLES          *
               *****************************************************

Recomputing exchange energy using gridx3       ... done (   40.676 sec)
Old exchange energy                            :    -16.261631847 Eh
New exchange energy                            :    -16.261704776 Eh
Exchange energy change after final integration :     -0.000072929 Eh
Total energy after final integration           :   -611.586382397 Eh

SMD CDS free energy correction energy :                 7.19463     Kcal/mol
Total Energy after SMD CDS correction =              -611.574917019 Eh
             **** ENERGY FILE WAS UPDATED (cs_rporg_w06_ox_solv_02.en.tmp) ****

----------------
TOTAL SCF ENERGY
----------------

Total Energy       :       -611.57491701878882 Eh          -16641.79954 eV

Components:
Nuclear Repulsion  :        871.95823454102594 Eh           23727.18983 eV
Electronic Energy  :      -1483.43603289269799 Eh          -40366.34664 eV
One Electron Energy:      -2543.67814554321376 Eh          -69217.00126 eV
Two Electron Energy:       1060.24211265051576 Eh           28850.65462 eV
CPCM Dielectric    :         -0.10851111625769 Eh              -2.95274 eV
SMD CDS (Gcds)     :          0.01146537846761 Eh               0.31199 eV

Virial components:
Potential Energy   :      -1219.51419607353864 Eh          -33184.66835 eV
Kinetic Energy     :        607.93927905474993 Eh           16542.86881 eV
Virial Ratio       :          2.00598026495293

DFT components:
N(Alpha)           :       48.999976925325 electrons
N(Beta)            :       48.999976925325 electrons
N(Total)           :       97.999953850650 electrons
E(X)               :      -64.653017529570 Eh       
E(C)               :       -3.909878155040 Eh       
E(XC)              :      -68.562895684609 Eh       

CPCM Solvation Model Properties:
Surface-charge          :         -1.04896162444821
Corrected charge        :         -1.00000000000000
Outlying charge corr.   :          0.00016163422002 Eh               0.00440 eV
Free-energy (cav+disp)  :          0.01146537846761 Eh               0.31199 eV

---------------
SCF CONVERGENCE
---------------

  Last Energy change         ...   -7.0236e-10  Tolerance :   1.0000e-08
  Last MAX-Density change    ...    2.0520e-03  Tolerance :   1.0000e-07
  Last RMS-Density change    ...    1.2512e-05  Tolerance :   5.0000e-09
  Last DIIS Error            ...    6.4577e-04  Tolerance :   5.0000e-07
  Last Orbital Gradient      ...    1.0446e-06  Tolerance :   1.0000e-05
  Last Orbital Rotation      ...    7.2866e-06  Tolerance :   1.0000e-05


----------------
ORBITAL ENERGIES
----------------

  NO   OCC          E(Eh)            E(eV) 
   0   2.0000     -19.280868      -524.6591 
   1   2.0000     -19.116544      -520.1876 
   2   2.0000     -14.566677      -396.3794 
   3   2.0000     -14.350938      -390.5089 
   4   2.0000     -10.304564      -280.4015 
   5   2.0000     -10.282263      -279.7946 
   6   2.0000     -10.277632      -279.6686 
   7   2.0000     -10.219409      -278.0843 
   8   2.0000     -10.214912      -277.9619 
   9   2.0000     -10.194985      -277.4196 
  10   2.0000     -10.194935      -277.4183 
  11   2.0000     -10.193375      -277.3758 
  12   2.0000     -10.193336      -277.3748 
  13   2.0000      -1.287190       -35.0262 
  14   2.0000      -1.070169       -29.1208 
  15   2.0000      -0.966729       -26.3060 
  16   2.0000      -0.920707       -25.0537 
  17   2.0000      -0.862104       -23.4591 
  18   2.0000      -0.795841       -21.6559 
  19   2.0000      -0.760442       -20.6927 
  20   2.0000      -0.725987       -19.7551 
  21   2.0000      -0.713499       -19.4153 
  22   2.0000      -0.672378       -18.2963 
  23   2.0000      -0.662067       -18.0158 
  24   2.0000      -0.624522       -16.9941 
  25   2.0000      -0.600415       -16.3381 
  26   2.0000      -0.571696       -15.5566 
  27   2.0000      -0.554731       -15.0950 
  28   2.0000      -0.549678       -14.9575 
  29   2.0000      -0.508369       -13.8334 
  30   2.0000      -0.494500       -13.4560 
  31   2.0000      -0.469054       -12.7636 
  32   2.0000      -0.461694       -12.5633 
  33   2.0000      -0.459793       -12.5116 
  34   2.0000      -0.446718       -12.1558 
  35   2.0000      -0.439893       -11.9701 
  36   2.0000      -0.434141       -11.8136 
  37   2.0000      -0.423614       -11.5271 
  38   2.0000      -0.420965       -11.4550 
  39   2.0000      -0.408369       -11.1123 
  40   2.0000      -0.402715       -10.9584 
  41   2.0000      -0.384510       -10.4631 
  42   2.0000      -0.383502       -10.4356 
  43   2.0000      -0.376829       -10.2540 
  44   2.0000      -0.373492       -10.1632 
  45   2.0000      -0.345952        -9.4138 
  46   2.0000      -0.294896        -8.0245 
  47   2.0000      -0.293714        -7.9924 
  48   2.0000      -0.292154        -7.9499 
  49   0.0000      -0.175363        -4.7719 
  50   0.0000      -0.063337        -1.7235 
  51   0.0000      -0.007709        -0.2098 
  52   0.0000       0.004469         0.1216 
  53   0.0000       0.009053         0.2463 
  54   0.0000       0.012556         0.3417 
  55   0.0000       0.024700         0.6721 
  56   0.0000       0.025332         0.6893 
  57   0.0000       0.026895         0.7319 
  58   0.0000       0.031507         0.8573 
  59   0.0000       0.039832         1.0839 
*Only the first 10 virtual orbitals were printed.

                    ********************************
                    * MULLIKEN POPULATION ANALYSIS *
                    ********************************

-----------------------
MULLIKEN ATOMIC CHARGES
-----------------------
   0 C :    1.284358
   1 C :   -1.031135
   2 C :    1.164134
   3 N :    1.213472
   4 C :    1.456540
   5 H :    0.430315
   6 O :   -1.000743
   7 C :    0.379344
   8 O :   -1.022187
   9 C :   -1.051480
  10 H :    0.238365
  11 H :    0.254269
  12 H :    0.130416
  13 C :   -1.051519
  14 H :    0.130648
  15 H :    0.242135
  16 H :    0.245190
  17 C :   -1.122477
  18 H :    0.190266
  19 H :    0.253780
  20 H :    0.162996
  21 C :   -1.116402
  22 H :    0.247749
  23 H :    0.188510
  24 H :    0.169881
  25 N :   -0.234172
  26 H :    0.124890
  27 H :    0.122857
Sum of atomic charges:    1.0000000

--------------------------------
MULLIKEN REDUCED ORBITAL CHARGES
--------------------------------
  0 C s       :     2.966636  s :     2.966636
      pz      :    -0.086880  p :     1.711889
      px      :     1.079464
      py      :     0.719305
      dz2     :    -0.104136  d :     0.141388
      dxz     :     0.055556
      dyz     :     0.161191
      dx2y2   :     0.030110
      dxy     :    -0.001332
      f0      :    -0.020446  f :    -0.104271
      f+1     :    -0.002305
      f-1     :    -0.063668
      f+2     :    -0.014454
      f-2     :    -0.004305
      f+3     :    -0.001295
      f-3     :     0.002203

  1 C s       :     4.196893  s :     4.196893
      pz      :     1.069803  p :     2.838390
      px      :     0.969727
      py      :     0.798860
      dz2     :     0.006223  d :     0.003167
      dxz     :    -0.002881
      dyz     :    -0.013915
      dx2y2   :     0.000657
      dxy     :     0.013084
      f0      :    -0.000659  f :    -0.007315
      f+1     :     0.000059
      f-1     :    -0.005986
      f+2     :    -0.003458
      f-2     :     0.000363
      f+3     :     0.001079
      f-3     :     0.001286

  2 C s       :     2.902984  s :     2.902984
      pz      :     0.530285  p :     1.847754
      px      :     0.552854
      py      :     0.764615
      dz2     :     0.120495  d :     0.118254
      dxz     :    -0.104938
      dyz     :     0.081997
      dx2y2   :     0.041532
      dxy     :    -0.020833
      f0      :    -0.010585  f :    -0.033126
      f+1     :    -0.006970
      f-1     :     0.004337
      f+2     :    -0.011019
      f-2     :    -0.002100
      f+3     :    -0.003912
      f-3     :    -0.002878

  3 N s       :     3.447043  s :     3.447043
      pz      :     0.855303  p :     2.548345
      px      :     0.969133
      py      :     0.723910
      dz2     :    -0.157187  d :    -0.209492
      dxz     :     0.034472
      dyz     :    -0.089708
      dx2y2   :    -0.046703
      dxy     :     0.049633
      f0      :    -0.004348  f :     0.000631
      f+1     :     0.002560
      f-1     :    -0.003333
      f+2     :    -0.000505
      f-2     :     0.004713
      f+3     :     0.001615
      f-3     :    -0.000070

  4 C s       :     2.894695  s :     2.894695
      pz      :     0.583628  p :     1.514907
      px      :     0.514104
      py      :     0.417175
      dz2     :     0.008375  d :     0.169054
      dxz     :    -0.020394
      dyz     :     0.131889
      dx2y2   :     0.084656
      dxy     :    -0.035472
      f0      :    -0.002533  f :    -0.035196
      f+1     :    -0.002617
      f-1     :    -0.008938
      f+2     :     0.003781
      f-2     :    -0.002836
      f+3     :    -0.008515
      f-3     :    -0.013538

  5 H s       :     0.512950  s :     0.512950
      pz      :     0.007091  p :     0.055659
      px      :     0.027759
      py      :     0.020809
      dz2     :    -0.000912  d :     0.001076
      dxz     :    -0.000355
      dyz     :    -0.000225
      dx2y2   :    -0.000613
      dxy     :     0.003181

  6 O s       :     4.258123  s :     4.258123
      pz      :     1.667512  p :     4.655867
      px      :     1.248561
      py      :     1.739794
      dz2     :     0.017653  d :     0.076396
      dxz     :     0.024403
      dyz     :     0.004105
      dx2y2   :     0.008643
      dxy     :     0.021591
      f0      :     0.002250  f :     0.010358
      f+1     :     0.000829
      f-1     :     0.002303
      f+2     :     0.001122
      f-2     :     0.002450
      f+3     :     0.000825
      f-3     :     0.000579

  7 C s       :     3.902923  s :     3.902923
      pz      :     0.537053  p :     1.602847
      px      :     0.641217
      py      :     0.424577
      dz2     :     0.037095  d :     0.137276
      dxz     :     0.048840
      dyz     :    -0.004017
      dx2y2   :    -0.021274
      dxy     :     0.076632
      f0      :    -0.014134  f :    -0.022390
      f+1     :     0.004070
      f-1     :    -0.011739
      f+2     :    -0.006734
      f-2     :     0.004718
      f+3     :     0.002287
      f-3     :    -0.000859

  8 O s       :     4.142951  s :     4.142951
      pz      :     1.894231  p :     4.827787
      px      :     1.547928
      py      :     1.385628
      dz2     :     0.005736  d :     0.046508
      dxz     :     0.002695
      dyz     :     0.018382
      dx2y2   :    -0.000199
      dxy     :     0.019894
      f0      :     0.000732  f :     0.004941
      f+1     :     0.000176
      f-1     :     0.001107
      f+2     :     0.000928
      f-2     :     0.000379
      f+3     :     0.001592
      f-3     :     0.000027

  9 C s       :     3.652470  s :     3.652470
      pz      :     1.143981  p :     3.287298
      px      :     1.038098
      py      :     1.105218
      dz2     :     0.030378  d :     0.093058
      dxz     :     0.021693
      dyz     :     0.012889
      dx2y2   :     0.006134
      dxy     :     0.021964
      f0      :     0.004512  f :     0.018654
      f+1     :     0.000669
      f-1     :     0.001893
      f+2     :     0.001474
      f-2     :     0.000313
      f+3     :     0.007718
      f-3     :     0.002075

 10 H s       :     0.725905  s :     0.725905
      pz      :     0.004454  p :     0.031251
      px      :     0.010912
      py      :     0.015885
      dz2     :    -0.002228  d :     0.004479
      dxz     :     0.004505
      dyz     :     0.001532
      dx2y2   :     0.000077
      dxy     :     0.000593

 11 H s       :     0.694358  s :     0.694358
      pz      :     0.006485  p :     0.047944
      px      :     0.038184
      py      :     0.003275
      dz2     :     0.000546  d :     0.003429
      dxz     :     0.000855
      dyz     :    -0.000099
      dx2y2   :     0.003670
      dxy     :    -0.001544

 12 H s       :     0.815351  s :     0.815351
      pz      :     0.006217  p :     0.048657
      px      :     0.015974
      py      :     0.026467
      dz2     :     0.002161  d :     0.005576
      dxz     :     0.000843
      dyz     :    -0.001699
      dx2y2   :     0.000110
      dxy     :     0.004160

 13 C s       :     3.652926  s :     3.652926
      pz      :     1.146280  p :     3.285987
      px      :     1.071071
      py      :     1.068636
      dz2     :     0.028543  d :     0.094013
      dxz     :     0.022959
      dyz     :     0.014874
      dx2y2   :     0.008003
      dxy     :     0.019636
      f0      :     0.004417  f :     0.018593
      f+1     :     0.000695
      f-1     :     0.001953
      f+2     :     0.000714
      f-2     :     0.001047
      f+3     :     0.007194
      f-3     :     0.002573

 14 H s       :     0.814514  s :     0.814514
      pz      :     0.006832  p :     0.049288
      px      :     0.013384
      py      :     0.029072
      dz2     :     0.002140  d :     0.005550
      dxz     :     0.000702
      dyz     :    -0.001530
      dx2y2   :     0.000522
      dxy     :     0.003717

 15 H s       :     0.704280  s :     0.704280
      pz      :     0.007068  p :     0.050226
      px      :     0.038387
      py      :     0.004772
      dz2     :     0.000577  d :     0.003360
      dxz     :     0.000826
      dyz     :    -0.000170
      dx2y2   :     0.002543
      dxy     :    -0.000416

 16 H s       :     0.722266  s :     0.722266
      pz      :     0.001024  p :     0.028122
      px      :     0.009501
      py      :     0.017596
      dz2     :    -0.002235  d :     0.004423
      dxz     :     0.003942
      dyz     :     0.001890
      dx2y2   :    -0.000013
      dxy     :     0.000839

 17 C s       :     3.691453  s :     3.691453
      pz      :     1.088545  p :     3.304407
      px      :     1.068093
      py      :     1.147769
      dz2     :     0.018894  d :     0.108241
      dxz     :     0.020389
      dyz     :     0.016077
      dx2y2   :     0.026737
      dxy     :     0.026145
      f0      :     0.001030  f :     0.018376
      f+1     :     0.007360
      f-1     :     0.001430
      f+2     :     0.002828
      f-2     :     0.001179
      f+3     :     0.001222
      f-3     :     0.003327

 18 H s       :     0.770456  s :     0.770456
      pz      :     0.009077  p :     0.035164
      px      :     0.010360
      py      :     0.015728
      dz2     :     0.000003  d :     0.004114
      dxz     :     0.000883
      dyz     :     0.002357
      dx2y2   :    -0.001930
      dxy     :     0.002802

 19 H s       :     0.705007  s :     0.705007
      pz      :     0.002134  p :     0.037638
      px      :     0.034307
      py      :     0.001197
      dz2     :     0.001351  d :     0.003575
      dxz     :    -0.000684
      dyz     :    -0.000154
      dx2y2   :     0.002897
      dxy     :     0.000166

 20 H s       :     0.783686  s :     0.783686
      pz      :     0.025816  p :     0.047423
      px      :     0.015529
      py      :     0.006079
      dz2     :     0.001104  d :     0.005895
      dxz     :     0.004270
      dyz     :    -0.000921
      dx2y2   :     0.000959
      dxy     :     0.000482

 21 C s       :     3.682967  s :     3.682967
      pz      :     1.096384  p :     3.306076
      px      :     1.076604
      py      :     1.133088
      dz2     :     0.018307  d :     0.108988
      dxz     :     0.020417
      dyz     :     0.016534
      dx2y2   :     0.037506
      dxy     :     0.016223
      f0      :     0.000930  f :     0.018370
      f+1     :     0.006897
      f-1     :     0.001976
      f+2     :     0.003600
      f-2     :     0.000285
      f+3     :     0.001055
      f-3     :     0.003628

 22 H s       :     0.710158  s :     0.710158
      pz      :     0.002557  p :     0.038545
      px      :     0.034338
      py      :     0.001650
      dz2     :     0.001484  d :     0.003549
      dxz     :    -0.001110
      dyz     :     0.000063
      dx2y2   :     0.002361
      dxy     :     0.000750

 23 H s       :     0.771782  s :     0.771782
      pz      :     0.009082  p :     0.035545
      px      :     0.007943
      py      :     0.018520
      dz2     :     0.000009  d :     0.004162
      dxz     :     0.000568
      dyz     :     0.002620
      dx2y2   :    -0.001863
      dxy     :     0.002827

 24 H s       :     0.777648  s :     0.777648
      pz      :     0.024992  p :     0.046565
      px      :     0.016991
      py      :     0.004581
      dz2     :     0.000996  d :     0.005906
      dxz     :     0.004500
      dyz     :    -0.001090
      dx2y2   :     0.001045
      dxy     :     0.000455

 25 N s       :     3.685008  s :     3.685008
      pz      :     1.000082  p :     3.539913
      px      :     1.538411
      py      :     1.001419
      dz2     :    -0.008167  d :     0.002613
      dxz     :     0.008017
      dyz     :    -0.005531
      dx2y2   :    -0.007756
      dxy     :     0.016050
      f0      :     0.002904  f :     0.006639
      f+1     :     0.000649
      f-1     :     0.003317
      f+2     :    -0.000834
      f-2     :     0.000017
      f+3     :     0.000317
      f-3     :     0.000267

 26 H s       :     0.783511  s :     0.783511
      pz      :     0.000851  p :     0.053919
      px      :     0.035082
      py      :     0.017987
      dz2     :     0.003370  d :     0.037679
      dxz     :     0.001492
      dyz     :     0.008533
      dx2y2   :     0.007467
      dxy     :     0.016816

 27 H s       :     0.789069  s :     0.789069
      pz      :     0.000146  p :     0.060154
      px      :     0.041675
      py      :     0.018333
      dz2     :     0.007896  d :     0.027920
      dxz     :     0.009274
      dyz     :     0.009025
      dx2y2   :     0.001468
      dxy     :     0.000255



                     *******************************
                     * LOEWDIN POPULATION ANALYSIS *
                     *******************************

----------------------
LOEWDIN ATOMIC CHARGES
----------------------
   0 C :   -0.061705
   1 C :    0.267274
   2 C :   -0.391142
   3 N :   -0.039449
   4 C :   -0.380149
   5 H :   -0.125617
   6 O :    0.659948
   7 C :   -0.680202
   8 O :    0.442389
   9 C :    0.633566
  10 H :   -0.138610
  11 H :   -0.124872
  12 H :   -0.132493
  13 C :    0.633597
  14 H :   -0.132689
  15 H :   -0.124489
  16 H :   -0.139178
  17 C :    0.633075
  18 H :   -0.122621
  19 H :   -0.129418
  20 H :   -0.134778
  21 C :    0.633332
  22 H :   -0.129558
  23 H :   -0.122584
  24 H :   -0.134873
  25 N :    0.885475
  26 H :   -0.301683
  27 H :   -0.242549

-------------------------------
LOEWDIN REDUCED ORBITAL CHARGES
-------------------------------
  0 C s       :     2.456770  s :     2.456770
      pz      :     0.823950  p :     2.268240
      px      :     0.635569
      py      :     0.808720
      dz2     :     0.242347  d :     0.856661
      dxz     :     0.102371
      dyz     :     0.247730
      dx2y2   :     0.129486
      dxy     :     0.134728
      f0      :     0.092161  f :     0.480034
      f+1     :     0.040183
      f-1     :     0.145461
      f+2     :     0.067709
      f-2     :     0.062276
      f+3     :     0.039521
      f-3     :     0.032724

  1 C s       :     2.465229  s :     2.465229
      pz      :     0.805050  p :     2.226329
      px      :     0.565022
      py      :     0.856257
      dz2     :     0.216542  d :     0.692808
      dxz     :     0.144212
      dyz     :     0.179342
      dx2y2   :     0.107140
      dxy     :     0.045572
      f0      :     0.073432  f :     0.348360
      f+1     :     0.046880
      f-1     :     0.089315
      f+2     :     0.056778
      f-2     :     0.044246
      f+3     :     0.011781
      f-3     :     0.025927

  2 C s       :     2.413907  s :     2.413907
      pz      :     0.783540  p :     2.150421
      px      :     0.760026
      py      :     0.606854
      dz2     :     0.251164  d :     1.163733
      dxz     :     0.245340
      dyz     :     0.217327
      dx2y2   :     0.280449
      dxy     :     0.169454
      f0      :     0.096083  f :     0.663080
      f+1     :     0.152890
      f-1     :     0.073273
      f+2     :     0.093032
      f-2     :     0.065656
      f+3     :     0.104720
      f-3     :     0.077427

  3 N s       :     2.643392  s :     2.643392
      pz      :     1.017563  p :     2.774984
      px      :     0.737276
      py      :     1.020145
      dz2     :     0.312444  d :     1.115358
      dxz     :     0.151285
      dyz     :     0.335677
      dx2y2   :     0.164340
      dxy     :     0.151612
      f0      :     0.105825  f :     0.505715
      f+1     :     0.032925
      f-1     :     0.137003
      f+2     :     0.086070
      f-2     :     0.081293
      f+3     :     0.030142
      f-3     :     0.032456

  4 C s       :     2.411345  s :     2.411345
      pz      :     0.607841  p :     2.148186
      px      :     0.764570
      py      :     0.775775
      dz2     :     0.268189  d :     1.157897
      dxz     :     0.161946
      dyz     :     0.219130
      dx2y2   :     0.252723
      dxy     :     0.255908
      f0      :     0.103668  f :     0.662721
      f+1     :     0.084979
      f-1     :     0.118131
      f+2     :     0.048858
      f-2     :     0.080602
      f+3     :     0.158760
      f-3     :     0.067723

  5 H s       :     0.629802  s :     0.629802
      pz      :     0.087162  p :     0.284884
      px      :     0.063691
      py      :     0.134032
      dz2     :     0.034917  d :     0.210931
      dxz     :     0.004521
      dyz     :     0.067031
      dx2y2   :     0.050582
      dxy     :     0.053880

  6 O s       :     3.160883  s :     3.160883
      pz      :     1.391936  p :     3.769827
      px      :     0.975173
      py      :     1.402718
      dz2     :     0.094248  d :     0.289055
      dxz     :     0.031063
      dyz     :     0.086355
      dx2y2   :     0.048938
      dxy     :     0.028451
      f0      :     0.025908  f :     0.120287
      f+1     :     0.005543
      f-1     :     0.033398
      f+2     :     0.021582
      f-2     :     0.019579
      f+3     :     0.006116
      f-3     :     0.008160

  7 C s       :     2.470137  s :     2.470137
      pz      :     0.786662  p :     2.196243
      px      :     0.556543
      py      :     0.853038
      dz2     :     0.272497  d :     1.318895
      dxz     :     0.133942
      dyz     :     0.426018
      dx2y2   :     0.219008
      dxy     :     0.267429
      f0      :     0.124005  f :     0.694927
      f+1     :     0.055624
      f-1     :     0.181929
      f+2     :     0.107064
      f-2     :     0.079504
      f+3     :     0.069098
      f-3     :     0.077702

  8 O s       :     3.173902  s :     3.173902
      pz      :     1.431446  p :     4.074635
      px      :     1.243401
      py      :     1.399788
      dz2     :     0.034245  d :     0.230151
      dxz     :     0.007168
      dyz     :     0.081305
      dx2y2   :     0.060546
      dxy     :     0.046887
      f0      :     0.009018  f :     0.078923
      f+1     :     0.001498
      f-1     :     0.016712
      f+2     :     0.017115
      f-2     :     0.003232
      f+3     :     0.015516
      f-3     :     0.015833

  9 C s       :     2.434399  s :     2.434399
      pz      :     0.774534  p :     2.254327
      px      :     0.719872
      py      :     0.759921
      dz2     :     0.111399  d :     0.492109
      dxz     :     0.060350
      dyz     :     0.079258
      dx2y2   :     0.111609
      dxy     :     0.129494
      f0      :     0.022205  f :     0.185599
      f+1     :     0.025392
      f-1     :     0.014336
      f+2     :     0.020119
      f-2     :     0.025380
      f+3     :     0.048956
      f-3     :     0.029211

 10 H s       :     0.598663  s :     0.598663
      pz      :     0.145669  p :     0.309510
      px      :     0.078903
      py      :     0.084938
      dz2     :     0.063092  d :     0.230436
      dxz     :     0.067959
      dyz     :     0.078472
      dx2y2   :     0.004688
      dxy     :     0.016224

 11 H s       :     0.611681  s :     0.611681
      pz      :     0.084267  p :     0.295369
      px      :     0.105765
      py      :     0.105336
      dz2     :     0.028791  d :     0.217823
      dxz     :     0.038908
      dyz     :     0.034796
      dx2y2   :     0.067199
      dxy     :     0.048130

 12 H s       :     0.609562  s :     0.609562
      pz      :     0.104117  p :     0.301839
      px      :     0.076465
      py      :     0.121257
      dz2     :     0.064729  d :     0.221092
      dxz     :     0.013797
      dyz     :     0.045021
      dx2y2   :     0.033447
      dxy     :     0.064098

 13 C s       :     2.434289  s :     2.434289
      pz      :     0.774742  p :     2.254204
      px      :     0.730748
      py      :     0.748714
      dz2     :     0.109159  d :     0.492239
      dxz     :     0.054235
      dyz     :     0.087916
      dx2y2   :     0.126739
      dxy     :     0.114190
      f0      :     0.022576  f :     0.185671
      f+1     :     0.021895
      f-1     :     0.016754
      f+2     :     0.017573
      f-2     :     0.028071
      f+3     :     0.046425
      f-3     :     0.032377

 14 H s       :     0.609245  s :     0.609245
      pz      :     0.104439  p :     0.302105
      px      :     0.079048
      py      :     0.118617
      dz2     :     0.064928  d :     0.221339
      dxz     :     0.014300
      dyz     :     0.044930
      dx2y2   :     0.032073
      dxy     :     0.065108

 15 H s       :     0.611695  s :     0.611695
      pz      :     0.084604  p :     0.295120
      px      :     0.114279
      py      :     0.096238
      dz2     :     0.029883  d :     0.217674
      dxz     :     0.046683
      dyz     :     0.026372
      dx2y2   :     0.057428
      dxy     :     0.057308

 16 H s       :     0.598393  s :     0.598393
      pz      :     0.146113  p :     0.309744
      px      :     0.079234
      py      :     0.084397
      dz2     :     0.063863  d :     0.231041
      dxz     :     0.067945
      dyz     :     0.077739
      dx2y2   :     0.004697
      dxy     :     0.016797

 17 C s       :     2.438276  s :     2.438276
      pz      :     0.754781  p :     2.257206
      px      :     0.723598
      py      :     0.778826
      dz2     :     0.107442  d :     0.486755
      dxz     :     0.114399
      dyz     :     0.064447
      dx2y2   :     0.134135
      dxy     :     0.066332
      f0      :     0.018248  f :     0.184689
      f+1     :     0.044595
      f-1     :     0.016811
      f+2     :     0.024155
      f-2     :     0.027472
      f+3     :     0.026907
      f-3     :     0.026499

 18 H s       :     0.604507  s :     0.604507
      pz      :     0.079685  p :     0.298188
      px      :     0.076593
      py      :     0.141910
      dz2     :     0.015637  d :     0.219926
      dxz     :     0.009714
      dyz     :     0.077075
      dx2y2   :     0.048506
      dxy     :     0.068995

 19 H s       :     0.615060  s :     0.615060
      pz      :     0.097900  p :     0.297547
      px      :     0.109615
      py      :     0.090033
      dz2     :     0.044577  d :     0.216810
      dxz     :     0.052108
      dyz     :     0.023619
      dx2y2   :     0.054170
      dxy     :     0.042336

 20 H s       :     0.612240  s :     0.612240
      pz      :     0.125905  p :     0.302689
      px      :     0.078021
      py      :     0.098764
      dz2     :     0.059982  d :     0.219848
      dxz     :     0.070062
      dyz     :     0.049807
      dx2y2   :     0.030764
      dxy     :     0.009232

 21 C s       :     2.438282  s :     2.438282
      pz      :     0.756822  p :     2.257117
      px      :     0.726699
      py      :     0.773596
      dz2     :     0.104124  d :     0.486617
      dxz     :     0.117308
      dyz     :     0.063790
      dx2y2   :     0.144929
      dxy     :     0.056466
      f0      :     0.017211  f :     0.184652
      f+1     :     0.042557
      f-1     :     0.018768
      f+2     :     0.027007
      f-2     :     0.024234
      f+3     :     0.029775
      f-3     :     0.025099

 22 H s       :     0.615130  s :     0.615130
      pz      :     0.099592  p :     0.297590
      px      :     0.112221
      py      :     0.085776
      dz2     :     0.046788  d :     0.216839
      dxz     :     0.051990
      dyz     :     0.023523
      dx2y2   :     0.046799
      dxy     :     0.047738

 23 H s       :     0.604553  s :     0.604553
      pz      :     0.079927  p :     0.298147
      px      :     0.077876
      py      :     0.140345
      dz2     :     0.015461  d :     0.219884
      dxz     :     0.009788
      dyz     :     0.077296
      dx2y2   :     0.047199
      dxy     :     0.070140

 24 H s       :     0.612159  s :     0.612159
      pz      :     0.126301  p :     0.302747
      px      :     0.077076
      py      :     0.099370
      dz2     :     0.060336  d :     0.219968
      dxz     :     0.069647
      dyz     :     0.049909
      dx2y2   :     0.031739
      dxy     :     0.008337

 25 N s       :     2.640936  s :     2.640936
      pz      :     0.970554  p :     2.981747
      px      :     1.032598
      py      :     0.978595
      dz2     :     0.126403  d :     0.365881
      dxz     :     0.023799
      dyz     :     0.097140
      dx2y2   :     0.074323
      dxy     :     0.044215
      f0      :     0.023624  f :     0.125962
      f+1     :     0.002167
      f-1     :     0.035920
      f+2     :     0.020459
      f-2     :     0.017519
      f+3     :     0.010426
      f-3     :     0.015847

 26 H s       :     0.568449  s :     0.568449
      pz      :     0.108292  p :     0.424340
      px      :     0.132647
      py      :     0.183401
      dz2     :     0.030349  d :     0.308894
      dxz     :     0.014554
      dyz     :     0.096220
      dx2y2   :     0.067536
      dxy     :     0.100236

 27 H s       :     0.580974  s :     0.580974
      pz      :     0.168719  p :     0.381787
      px      :     0.118924
      py      :     0.094144
      dz2     :     0.084946  d :     0.279788
      dxz     :     0.084862
      dyz     :     0.089424
      dx2y2   :     0.013239
      dxy     :     0.007318



                      *****************************
                      * MAYER POPULATION ANALYSIS *
                      *****************************

  NA   - Mulliken gross atomic population
  ZA   - Total nuclear charge
  QA   - Mulliken gross atomic charge
  VA   - Mayer's total valence
  BVA  - Mayer's bonded valence
  FA   - Mayer's free valence

  ATOM       NA         ZA         QA         VA         BVA        FA
  0 C      4.7156     6.0000     1.2844     1.0595     1.0595    -0.0000
  1 C      7.0311     6.0000    -1.0311     2.6575     2.6575    -0.0000
  2 C      4.8359     6.0000     1.1641     2.1898     2.1898    -0.0000
  3 N      5.7865     7.0000     1.2135     1.9784     1.9784     0.0000
  4 C      4.5435     6.0000     1.4565     2.3809     2.3809    -0.0000
  5 H      0.5697     1.0000     0.4303     0.9134     0.9134    -0.0000
  6 O      9.0007     8.0000    -1.0007     0.7387     0.7387    -0.0000
  7 C      5.6207     6.0000     0.3793     1.6143     1.6143     0.0000
  8 O      9.0222     8.0000    -1.0222     1.1225     1.1225     0.0000
  9 C      7.0515     6.0000    -1.0515     3.6896     3.6896    -0.0000
 10 H      0.7616     1.0000     0.2384     0.9658     0.9658    -0.0000
 11 H      0.7457     1.0000     0.2543     0.9837     0.9837    -0.0000
 12 H      0.8696     1.0000     0.1304     1.0939     1.0939    -0.0000
 13 C      7.0515     6.0000    -1.0515     3.6874     3.6874    -0.0000
 14 H      0.8694     1.0000     0.1306     1.0968     1.0968    -0.0000
 15 H      0.7579     1.0000     0.2421     0.9988     0.9988    -0.0000
 16 H      0.7548     1.0000     0.2452     0.9570     0.9570    -0.0000
 17 C      7.1225     6.0000    -1.1225     3.6947     3.6947     0.0000
 18 H      0.8097     1.0000     0.1903     1.0091     1.0091     0.0000
 19 H      0.7462     1.0000     0.2538     0.9776     0.9776    -0.0000
 20 H      0.8370     1.0000     0.1630     1.0501     1.0501     0.0000
 21 C      7.1164     6.0000    -1.1164     3.7097     3.7097    -0.0000
 22 H      0.7523     1.0000     0.2477     0.9848     0.9848    -0.0000
 23 H      0.8115     1.0000     0.1885     1.0111     1.0111    -0.0000
 24 H      0.8301     1.0000     0.1699     1.0431     1.0431    -0.0000
 25 N      7.2342     7.0000    -0.2342     3.0341     3.0341     0.0000
 26 H      0.8751     1.0000     0.1249     1.0033     1.0033    -0.0000
 27 H      0.8771     1.0000     0.1229     0.9514     0.9514     0.0000

  Mayer bond orders larger than 0.100000
B(  0-C ,  1-C ) :   0.7179 B(  0-C ,  3-N ) :  -0.2662 B(  0-C ,  4-C ) :   0.8683 
B(  0-C ,  5-H ) :  -0.1155 B(  0-C ,  7-C ) :  -0.5100 B(  0-C ,  8-O ) :   0.6134 
B(  0-C , 25-N ) :  -0.3138 B(  1-C ,  2-C ) :   1.1994 B(  1-C ,  3-N ) :  -0.3539 
B(  1-C ,  4-C ) :  -0.1545 B(  1-C ,  5-H ) :   0.8409 B(  1-C ,  7-C ) :   0.5061 
B(  2-C ,  3-N ) :   1.0927 B(  2-C ,  4-C ) :  -0.1316 B(  2-C ,  6-O ) :  -0.2659 
B(  2-C ,  7-C ) :  -0.1559 B(  2-C , 17-C ) :   0.3632 B(  2-C , 21-C ) :   0.3858 
B(  3-N ,  4-C ) :   1.2941 B(  3-N ,  6-O ) :   0.4491 B(  4-C ,  7-C ) :   0.3069 
B(  4-C ,  9-C ) :   0.4174 B(  4-C , 13-C ) :   0.4085 B(  4-C , 25-N ) :  -0.1175 
B(  5-H ,  8-O ) :   0.1081 B(  6-O ,  9-C ) :   0.1079 B(  6-O , 13-C ) :   0.1102 
B(  6-O , 17-C ) :   0.1046 B(  6-O , 21-C ) :   0.1032 B(  7-C ,  8-O ) :   0.4264 
B(  7-C , 25-N ) :   1.2241 B(  9-C , 10-H ) :   0.9845 B(  9-C , 11-H ) :   0.9570 
B(  9-C , 12-H ) :   1.1205 B(  9-C , 13-C ) :   0.1250 B( 13-C , 14-H ) :   1.1208 
B( 13-C , 15-H ) :   0.9742 B( 13-C , 16-H ) :   0.9711 B( 17-C , 18-H ) :   1.0634 
B( 17-C , 19-H ) :   0.9662 B( 17-C , 20-H ) :   1.0954 B( 17-C , 21-C ) :   0.2064 
B( 21-C , 22-H ) :   0.9750 B( 21-C , 23-H ) :   1.0655 B( 21-C , 24-H ) :   1.0839 
B( 25-N , 26-H ) :   1.0393 B( 25-N , 27-H ) :   0.9994 

-------
TIMINGS
-------

Total SCF time: 0 days 0 hours 8 min 8 sec 

Total time                  ....     488.511 sec
Sum of individual times     ....     487.635 sec  ( 99.8%)

SCF preparation             ....       2.854 sec  (  0.6%)
Fock matrix formation       ....     438.979 sec  ( 89.9%)
  Startup                   ....       4.338 sec  (  1.0% of F)
  Split-RI-J                ....      34.383 sec  (  7.8% of F)
  Chain of spheres X        ....     289.385 sec  ( 65.9% of F)
  XC integration            ....      82.962 sec  ( 18.9% of F)
    XC Preparation          ....       0.000 sec  (  0.0% of XC)
    Basis function eval.    ....      11.519 sec  ( 13.9% of XC)
    Density eval.           ....      28.343 sec  ( 34.2% of XC)
    XC-Functional eval.     ....       0.390 sec  (  0.5% of XC)
    XC-Potential eval.      ....      34.055 sec  ( 41.0% of XC)
  CPCM terms                ....      21.860 sec  (  5.0% of F)
Diagonalization             ....       0.000 sec  (  0.0%)
Density matrix formation    ....       7.187 sec  (  1.5%)
Total Energy calculation    ....       3.984 sec  (  0.8%)
Population analysis         ....       0.953 sec  (  0.2%)
Orbital Transformation      ....       2.490 sec  (  0.5%)
Orbital Orthonormalization  ....       0.000 sec  (  0.0%)
DIIS solution               ....      24.924 sec  (  5.1%)
SOSCF solution              ....       6.264 sec  (  1.3%)
Finished LeanSCF after 489.0 sec

Maximum memory used throughout the entire LEANSCF-calculation: 175.5 MB


-------------------------------------------------------------------------------
                          DFT DISPERSION CORRECTION                            
                                                                               
                              DFTD3 V3.1  Rev 1                                
                          USING Becke-Johnson damping                          
-------------------------------------------------------------------------------
The B3LYP functional is recognized
Active option DFTDOPT                   ...         4   

molecular C6(AA) [au] = 6684.925003 


            DFT-D V3
 parameters
 s6 scaling factor         :     1.0000 
 a1 scaling factor         :     0.3981 
 s8 scaling factor         :     1.9889 
 a2 scaling factor         :     4.4211 
 ad hoc parameters k1-k3   :    16.0000     1.3333    -4.0000 

 Edisp/kcal,au: -33.789738869733  -0.053847370696 
 E6   /kcal   : -16.334403295 
 E8   /kcal   : -17.455335575 
 % E8         :  51.658687397 

-------------------------   ----------------
Dispersion correction           -0.053847371
-------------------------   ----------------


-------------------------   --------------------
FINAL SINGLE POINT ENERGY      -611.628764389485
-------------------------   --------------------



           ************************************************************
           *        Program running with 10 parallel MPI-processes    *
           *              working on a common directory               *
           ************************************************************

------------------------------------------------------------------------------
                              ORCA PROPERTY CALCULATIONS
------------------------------------------------------------------------------

GBWName                                 ... cs_rporg_w06_ox_solv_02.gbw
Number of atoms                         ...     28
Number of basis functions               ...   1021
Max core memory                         ...   3500 MB

Electric properties:
Dipole moment                           ... YES
Quadrupole moment                       ...  NO
Static polarizability (Dipole/Dipole)   ...  NO
Static polarizability (Dipole/Quad.)    ...  NO
Static polarizability (Quad./Quad.)     ...  NO
Static polarizability (Velocity)        ...  NO

Atomic electric properties:
Dipole moment                           ...  NO
Quadrupole moment                       ...  NO
Static polarizability                   ...  NO

Choice of electric origin               ... Center of mass
Position of electric origin             ...    -0.307615     0.721153    -0.578594

General magnetic properties:
Magnetizability                         ...  NO

EPR properties:
g-Tensor (aka g-matrix)                 ...  NO
Zero-Field splitting spin-orbit         ...  NO
Zero-field splitting spin-spin          ...  NO
Hyperfine couplings                     ...  NO (   0 nuclei)
Quadrupole couplings                    ...  NO (   0 nuclei)
Contact density                         ...  NO (   0 nuclei)

NMR properties:
Chemical shifts                         ...  NO (   0 nuclei)
Spin-rotation constants                 ...  NO (   0 nuclei)
Spin-spin couplings                     ...  NO (   0 nuclei,    0 pairs)

Choice of magnetic origin               ... GIAO
Position of magnetic origin             ...     0.000000     0.000000     0.000000

Properties with geometric perturbations:
SCF Hessian                             ...  NO
IR spectrum                             ...  NO
VCD spectrum                            ...  NO
X-ray spectroscopy properties:
SCF XES/XAS/RIXS spectra                ...  NO


-------------
DIPOLE MOMENT
-------------

Method             : SCF
Type of density    : Electron Density
Multiplicity       :   1
Irrep              :   0
Energy             :  -611.5749170187888240 Eh
Relativity type    : 
Basis              : AO
                                X                 Y                 Z
Electronic contribution:      0.139730331      -1.306424572      -3.192996313
Nuclear contribution   :     -0.277270832       3.421665314       4.666505617
                        -----------------------------------------
Total Dipole Moment    :     -0.137540501       2.115240742       1.473509304
                        -----------------------------------------
Magnitude (a.u.)       :      2.581548073
Magnitude (Debye)      :      6.561773729



--------------------
Rotational spectrum 
--------------------
 
Rotational constants in cm-1:             0.040160             0.022299             0.017655 
Rotational constants in MHz :          1203.956703           668.492574           529.280087 

Dipole components along the rotational axes: 
x,y,z [a.u.] :     1.613507     2.015119    -0.016833 
x,y,z [Debye]:     4.101209     5.122024    -0.042786 

 

Dipole moment calculation done in   0.2 sec 

Maximum memory used throughout the entire PROP-calculation: 100.1 MB

--------------------------------
SUGGESTED CITATIONS FOR THIS RUN
--------------------------------

Below you find a list of papers that are relevant to this ORCA run
We neither can nor want to force you to cite these papers, but we appreciate if you do
You receive ORCA, which is the product of decades of hard work by many enthusiastic individuals, for free
The only thing we kindly ask in return is that you cite our papers,
We deeply appreciate it, if you show your appreciation for ORCA by not just citing the generic ORCA reference.

Please note that relegating all ORCA citations to the supporting information does *not* help us.
SI sections are not indexed - citations you put there will not count into any citation statistics
But we need these citations in order to attract the funding resources that allow us to do what we are doing

Therefore, if you are a happy ORCA user, please consider citing a few of the papers listed below in the main body of your paper

In addition to the list printed below, the program has created the file cs_rporg_w06_ox_solv_02.bibtex that contains the list in bibtex format
You can import this file easily into all common literature databanks and citation aid programs


List of essential papers. We consider these as the minimum necessary citations

  1. Neese,F.
     Software update: the ORCA program system, version 5.0
     WIRES Comput. Molec. Sci., 2022 12(1)e1606
     doi.org/10.1002/wcms.1606

List of papers to cite with high priority. The work reported in these papers was absolutely
necessary for this run to complete.
Our perspective: the developers of density functionals and basis sets usually get cited in chemistry papers
Good! But without the algorithms to do something with them, the functionals or basis sets would not do anything.
Hence, in our opinion, the algorithm design and method developments papers are equally worthy of getting cited

  1. Neese,F.
     An improvement of the resolution of the identity approximation for the formation of the Coulomb matrix
     J. Comp. Chem., 2003 24(14)1740-1747
     doi.org/10.1002/jcc.10318
  2. Neese,F.; Wennmohs,F.; Hansen,A.; Becker,U.
     Efficient, approximate and parallel Hartree-Fock and hybrid DFT calculations. A 'chain-of-spheres' algorithm for the Hartree-Fock exchange
     Chem. Phys., 2009 356(1-3)98-109
     doi.org/10.1016/j.chemphys.2008.10.036
  3. Garcia-Rates,M.; Neese,F.
     Effect of the Solute Cavity on the Solvation Energy and its Derivatives within the Framework of the Gaussian Charge Scheme
     J. Comput. Chem., 2020 41 922-939
     doi.org/10.1002/jcc.26139
  4. Helmich-Paris,B.; de Souza,B.; Neese,F.; Izsák,R.
     An improved chain of spheres for exchange algorithm
     J. Chem. Phys., 2021 155 104109
     doi.org/doi: 10.1063/5.0058766.
  5. Neese,F.
     The SHARK Integral Generation and Digestion System
     J. Comp. Chem., 2022  1-16
     doi.org/10.1002/jcc.26942
  6. Grimme,S.; Antony,J.; Ehrlich,S.; Krieg,H.
     A consistent and accurate ab initio parametrization of density functional dispersion correction (DFT-D) for the 94 elements H-Pu
     J. Chem. Phys., 2010 132 154104-XXXX
     doi.org/10.1063/1.3382344
  7. Grimme,S.; Ehrlich,S.; Goerigk,L.
     Effect of the damping function in dispersion corrected density functional theory
     J. Comput. Chem., 2011 32(7)1456-1465
     doi.org/10.1002/jcc.21759

List of suggested additional citations. These are papers that are important in the 'surrounding' of 
of this run, or papers that preceded the highly important papers. If you like your results we are grateful for a citation.

  1. Izsak,R.; Neese,F.
     An overlap fitted chain of spheres exchange method
     J. Chem. Phys., 2011 135 144105
     doi.org/10.1063/1.3646921
  2. Izsak,R.; Hansen,A.; Neese,F.
     The resolution of identity and chain of spheres approximations for the LPNO-CCSD singles Fock term
     Molec. Phys., 2012 110 2413-2417
     doi.org/10.1080/00268976.2012.687466
  3. Neese,F.
     The ORCA program system
     WIRES Comput. Molec. Sci., 2012 2(1)73-78
     doi.org/10.1002/wcms.81
  4. Izsak,R.; Neese,F.; Klopper,W.
     Robust fitting techniques in the chain of spheres approximation to the Fock exchange: The role of the complementary space
     J. Chem. Phys., 2013 139 
     doi.org/10.1063/1.4819264
  5. Neese,F.
     Software update: the ORCA program system, version 4.0
     WIRES Comput. Molec. Sci., 2018 8(1)1-6
     doi.org/10.1002/wcms.1327
  6. Neese,F.; Wennmohs,F.; Becker,U.; Riplinger,C.
     The ORCA quantum chemistry program package
     J. Chem. Phys., 2020 152 Art. No. L224108
     doi.org/10.1063/5.0004608

List of optional additional citations

  1. Neese,F.
     Approximate second-order SCF convergence for spin unrestricted wavefunctions
     Chem. Phys. Lett., 2000 325(1-3)93-98
     doi.org/10.1016/s0009-2614(00)00662-x

Timings for individual modules:

Sum of individual times          ...      518.315 sec (=   8.639 min)
Startup calculation              ...       18.107 sec (=   0.302 min)   3.5 %
SCF iterations                   ...      497.793 sec (=   8.297 min)  96.0 %
Property calculations            ...        2.415 sec (=   0.040 min)   0.5 %
                             ****ORCA TERMINATED NORMALLY****
TOTAL RUN TIME: 0 days 0 hours 8 minutes 42 seconds 295 msec
