 vasp.6.3.2 27Jun22 (build Oct 25 2024 11:36:28) complex                        
  
 executed on             LinuxIFC date 2024.12.20  09:45:07
 running on   80 total cores
 distrk:  each k-point on   80 cores,    1 groups
 distr:  one band on NCORE=  10 cores,    8 groups


--------------------------------------------------------------------------------------------------------


 INCAR:
   SYSTEM = 145_ox
   ISTART = 1
   ICHARG = 2
   INIWAV = 1
   NELM = 100
   ALGO = fast   	
   ISPIN = 2
   EDIFF = 1E-05
   ISMEAR = 0
   SIGMA = 0.05
   PREC = accurate
   ENCUT = 500
   LREAL = auto  	
   LWAVE = .TRUE.
   LCHARG = .FALSE.
   LAECHG = .FALSE.
   LVHAR = .FALSE.
   LVTOT = .FALSE.
   EDIFFG = -0.02
   IBRION = 2
   NSW = 500
   ISIF = 2
   POTIM = 0.5
   IVDW = 11
   LPLANE = .TRUE.
   NCORE = 10
   LSCALU = .FALSE.
   NSIM = 4
   LSOL = .TRUE.
   ISOL = 2
   R_SOLV = 2.1900
   EPSILON_INF = 1.8069
   N_MOL = 0.0115
   P_MOL = 0.82
   EB_K = 35.6880

 POTCAR:    PAW_PBE C 08Apr2002                   
 POTCAR:    PAW_PBE Cl 06Sep2000                  
 POTCAR:    PAW_PBE O 08Apr2002                   
 POTCAR:    PAW_PBE H 15Jun2001                   
 -----------------------------------------------------------------------------
|                                                                             |
|           W    W    AA    RRRRR   N    N  II  N    N   GGGG   !!!           |
|           W    W   A  A   R    R  NN   N  II  NN   N  G    G  !!!           |
|           W    W  A    A  R    R  N N  N  II  N N  N  G       !!!           |
|           W WW W  AAAAAA  RRRRR   N  N N  II  N  N N  G  GGG   !            |
|           WW  WW  A    A  R   R   N   NN  II  N   NN  G    G                |
|           W    W  A    A  R    R  N    N  II  N    N   GGGG   !!!           |
|                                                                             |
|     You use a magnetic or noncollinear calculation, but did not specify     |
|     the initial magnetic moment with the MAGMOM tag. Note that a            |
|     default of 1 will be used for all atoms. This ferromagnetic setup       |
|     may break the symmetry of the crystal, in particular it may rule        |
|     out finding an antiferromagnetic solution. Thence, we recommend         |
|     setting the initial magnetic moment manually or verifying carefully     |
|     that this magnetic setup is desired.                                    |
|                                                                             |
 -----------------------------------------------------------------------------

 POTCAR:    PAW_PBE C 08Apr2002                   
   SHA256 =  253f7b50bb8d59471dbedb8285d89021f4a42ed1a2c5d38a03a736e69125dd95 C/POTCAR              
   COPYR  = (c) Copyright 08Apr2002 Georg Kresse                                                    
   COPYR  = This file is part of the software VASP. Any use, copying, and all other rights are regul
   COPYR  = If you do not have a valid VASP license, you may not use, copy or distribute this file. 
   VRHFIN =C: s2p2                                                                                  
   LEXCH  = PE                                                                                      
   EATOM  =   147.1560 eV,   10.8157 Ry                                                             
                                                                                                    
   TITEL  = PAW_PBE C 08Apr2002                                                                     
   LULTRA =        F    use ultrasoft PP ?                                                          
   IUNSCR =        1    unscreen: 0-lin 1-nonlin 2-no                                               
   RPACOR =    1.200    partial core radius                                                         
   POMASS =   12.011; ZVAL   =    4.000    mass and valenz                                          
   RCORE  =    1.500    outmost cutoff radius                                                       
   RWIGS  =    1.630; RWIGS  =    0.863    wigner-seitz radius (au A)                               
   ENMAX  =  400.000; ENMIN  =  300.000 eV                                                          
   ICORE  =        2    local potential                                                             
   LCOR   =        T    correct aug charges                                                         
   LPAW   =        T    paw PP                                                                      
   EAUG   =  644.873                                                                                
   DEXC   =    0.000                                                                                
   RMAX   =    1.529    core radius for proj-oper                                                   
   RAUG   =    1.300    factor for augmentation sphere                                              
   RDEP   =    1.501    radius for radial grids                                                     
   RDEPT  =    1.300    core radius for aug-charge                                                  
                                                                                                    
   Atomic configuration                                                                             
    4 entries                                                                                       
     n  l   j            E        occ.                                                              
     1  0  0.50      -273.3789   2.0000                                                             
     2  0  0.50       -13.7508   2.0000                                                             
     2  1  0.50        -5.2854   2.0000                                                             
     3  2  1.50        -5.4423   0.0000                                                             
   Description                                                                                      
     l       E           TYP  RCUT    TYP  RCUT                                                     
     0    -13.7508458     23  1.200                                                                 
     0     -8.2022199     23  1.200                                                                 
     1     -5.2854383     23  1.500                                                                 
     1     34.0145650     23  1.500                                                                 
     2     -5.4423304      7  1.500                                                                 
  local pseudopotential read in
  partial core-charges read in
  partial kinetic energy density read in
  atomic valenz-charges read in
  non local Contribution for L=           0  read in
    real space projection operators read in
  non local Contribution for L=           0  read in
    real space projection operators read in
  non local Contribution for L=           1  read in
    real space projection operators read in
  non local Contribution for L=           1  read in
    real space projection operators read in
    PAW grid and wavefunctions read in
 
   number of l-projection  operators is LMAX  =           4
   number of lm-projection operators is LMMAX =           8
 
 POTCAR:    PAW_PBE Cl 06Sep2000                  
   SHA256 =  9f1b6e6ed4247ac726a768b330d26d7667cc3c95a39ff49c1d064c2d9dcce931 Cl/POTCAR             
   COPYR  = (c) Copyright 06Sep2000 Georg Kresse                                                    
   COPYR  = This file is part of the software VASP. Any use, copying, and all other rights are regul
   COPYR  = If you do not have a valid VASP license, you may not use, copy or distribute this file. 
   VRHFIN =Cl: s2p5                                                                                 
   LEXCH  = PE                                                                                      
   EATOM  =   409.7259 eV,   30.1140 Ry                                                             
                                                                                                    
   TITEL  = PAW_PBE Cl 06Sep2000                                                                    
   LULTRA =        F    use ultrasoft PP ?                                                          
   IUNSCR =        1    unscreen: 0-lin 1-nonlin 2-no                                               
   RPACOR =    1.500    partial core radius                                                         
   POMASS =   35.453; ZVAL   =    7.000    mass and valenz                                          
   RCORE  =    1.900    outmost cutoff radius                                                       
   RWIGS  =    2.100; RWIGS  =    1.111    wigner-seitz radius (au A)                               
   ENMAX  =  262.472; ENMIN  =  196.854 eV                                                          
   ICORE  =        2    local potential                                                             
   LCOR   =        T    correct aug charges                                                         
   LPAW   =        T    paw PP                                                                      
   EAUG   =  356.192                                                                                
   DEXC   =    0.000                                                                                
   RMAX   =    1.945    core radius for proj-oper                                                   
   RAUG   =    1.300    factor for augmentation sphere                                              
   RDEP   =    2.020    radius for radial grids                                                     
   RDEPT  =    1.678    core radius for aug-charge                                                  
                                                                                                    
   Atomic configuration                                                                             
    6 entries                                                                                       
     n  l   j            E        occ.                                                              
     1  0  0.50     -2751.1850   2.0000                                                             
     2  0  0.50      -252.6861   2.0000                                                             
     2  1  1.50      -191.6157   6.0000                                                             
     3  0  0.50       -20.6916   2.0000                                                             
     3  1  0.50        -8.5949   5.0000                                                             
     3  2  1.50        -8.1635   0.0000                                                             
   Description                                                                                      
     l       E           TYP  RCUT    TYP  RCUT                                                     
     0    -20.6915656     23  1.900                                                                 
     0    -22.0521482     23  1.900                                                                 
     1     -8.5948577     23  1.900                                                                 
     1     -5.3847331     23  1.900                                                                 
     2     -8.1634956     23  1.900                                                                 
  local pseudopotential read in
  partial core-charges read in
  partial kinetic energy density read in
  atomic valenz-charges read in
  non local Contribution for L=           0  read in
    real space projection operators read in
  non local Contribution for L=           0  read in
    real space projection operators read in
  non local Contribution for L=           1  read in
    real space projection operators read in
  non local Contribution for L=           1  read in
    real space projection operators read in
    PAW grid and wavefunctions read in
 
   number of l-projection  operators is LMAX  =           4
   number of lm-projection operators is LMMAX =           8
 
 POTCAR:    PAW_PBE O 08Apr2002                   
   SHA256 =  818f92134a0a090dccd8ba1447fa70422a3b330e708bb4f08108d8ae51209ddf O/POTCAR              
   COPYR  = (c) Copyright 08Apr2002 Georg Kresse                                                    
   COPYR  = This file is part of the software VASP. Any use, copying, and all other rights are regul
   COPYR  = If you do not have a valid VASP license, you may not use, copy or distribute this file. 
   VRHFIN =O: s2p4                                                                                  
   LEXCH  = PE                                                                                      
   EATOM  =   432.3788 eV,   31.7789 Ry                                                             
                                                                                                    
   TITEL  = PAW_PBE O 08Apr2002                                                                     
   LULTRA =        F    use ultrasoft PP ?                                                          
   IUNSCR =        1    unscreen: 0-lin 1-nonlin 2-no                                               
   RPACOR =    1.200    partial core radius                                                         
   POMASS =   16.000; ZVAL   =    6.000    mass and valenz                                          
   RCORE  =    1.520    outmost cutoff radius                                                       
   RWIGS  =    1.550; RWIGS  =    0.820    wigner-seitz radius (au A)                               
   ENMAX  =  400.000; ENMIN  =  300.000 eV                                                          
   ICORE  =        2    local potential                                                             
   LCOR   =        T    correct aug charges                                                         
   LPAW   =        T    paw PP                                                                      
   EAUG   =  605.392                                                                                
   DEXC   =    0.000                                                                                
   RMAX   =    1.553    core radius for proj-oper                                                   
   RAUG   =    1.300    factor for augmentation sphere                                              
   RDEP   =    1.550    radius for radial grids                                                     
   RDEPT  =    1.329    core radius for aug-charge                                                  
                                                                                                    
   Atomic configuration                                                                             
    4 entries                                                                                       
     n  l   j            E        occ.                                                              
     1  0  0.50      -514.6923   2.0000                                                             
     2  0  0.50       -23.9615   2.0000                                                             
     2  1  0.50        -9.0305   4.0000                                                             
     3  2  1.50        -9.5241   0.0000                                                             
   Description                                                                                      
     l       E           TYP  RCUT    TYP  RCUT                                                     
     0    -23.9615318     23  1.200                                                                 
     0     -9.5240782     23  1.200                                                                 
     1     -9.0304911     23  1.520                                                                 
     1      8.1634956     23  1.520                                                                 
     2     -9.5240782      7  1.500                                                                 
  local pseudopotential read in
  partial core-charges read in
  partial kinetic energy density read in
  kinetic energy density of atom read in
  atomic valenz-charges read in
  non local Contribution for L=           0  read in
    real space projection operators read in
  non local Contribution for L=           0  read in
    real space projection operators read in
  non local Contribution for L=           1  read in
    real space projection operators read in
  non local Contribution for L=           1  read in
    real space projection operators read in
    PAW grid and wavefunctions read in
 
   number of l-projection  operators is LMAX  =           4
   number of lm-projection operators is LMMAX =           8
 
 POTCAR:    PAW_PBE H 15Jun2001                   
   SHA256 =  030f79b5d3ab3cf0e668861823c8fb652ff669f3e15e46930bd03bfd63a607b6 H/POTCAR              
   COPYR  = (c) Copyright 15Jun2001 Georg Kresse                                                    
   COPYR  = This file is part of the software VASP. Any use, copying, and all other rights are regul
   COPYR  = If you do not have a valid VASP license, you may not use, copy or distribute this file. 
   VRHFIN =H: ultrasoft test                                                                        
   LEXCH  = PE                                                                                      
   EATOM  =    12.4884 eV,    0.9179 Ry                                                             
                                                                                                    
   TITEL  = PAW_PBE H 15Jun2001                                                                     
   LULTRA =        F    use ultrasoft PP ?                                                          
   IUNSCR =        0    unscreen: 0-lin 1-nonlin 2-no                                               
   RPACOR =    0.000    partial core radius                                                         
   POMASS =    1.000; ZVAL   =    1.000    mass and valenz                                          
   RCORE  =    1.100    outmost cutoff radius                                                       
   RWIGS  =    0.700; RWIGS  =    0.370    wigner-seitz radius (au A)                               
   ENMAX  =  250.000; ENMIN  =  200.000 eV                                                          
   RCLOC  =    0.701    cutoff for local pot                                                        
   LCOR   =        T    correct aug charges                                                         
   LPAW   =        T    paw PP                                                                      
   EAUG   =  400.000                                                                                
   RMAX   =    1.123    core radius for proj-oper                                                   
   RAUG   =    1.200    factor for augmentation sphere                                              
   RDEP   =    1.112    radius for radial grids                                                     
   RDEPT  =    0.926    core radius for aug-charge                                                  
                                                                                                    
   Atomic configuration                                                                             
    2 entries                                                                                       
     n  l   j            E        occ.                                                              
     1  0  0.50        -6.4927   1.0000                                                             
     2  1  0.50        -3.4015   0.0000                                                             
   Description                                                                                      
     l       E           TYP  RCUT    TYP  RCUT                                                     
     0     -6.4927494     23  1.100                                                                 
     0      6.8029130     23  1.100                                                                 
     1     -4.0817478     23  1.100                                                                 
  local pseudopotential read in
  atomic valenz-charges read in
  non local Contribution for L=           0  read in
    real space projection operators read in
  non local Contribution for L=           0  read in
    real space projection operators read in
  non local Contribution for L=           1  read in
    real space projection operators read in
    PAW grid and wavefunctions read in
 
   number of l-projection  operators is LMAX  =           3
   number of lm-projection operators is LMMAX =           5
 
 Optimization of the real space projectors (new method)

 maximal supplied QI-value         = 25.13
 optimisation between [QCUT,QGAM] = [ 11.31, 22.87] = [ 35.82,146.48] Ry 
 Optimized for a Real-space Cutoff    1.03 Angstroem

   l    n(q)    QCUT    max X(q) W(low)/X(q) W(high)/X(q)  e(spline) 
   0      7    11.310   115.676    0.20E-03    0.90E-03    0.20E-06
   0      7    11.310    87.132    0.20E-03    0.89E-03    0.19E-06
   1      6    11.310     4.429    0.16E-03    0.28E-03    0.12E-06
   1      6    11.310     2.733    0.12E-03    0.21E-03    0.99E-07
 Optimization of the real space projectors (new method)

 maximal supplied QI-value         = 19.84
 optimisation between [QCUT,QGAM] = [ 11.31, 22.82] = [ 35.82,145.81] Ry 
 Optimized for a Real-space Cutoff    1.20 Angstroem

   l    n(q)    QCUT    max X(q) W(low)/X(q) W(high)/X(q)  e(spline) 
   0      8    11.310   168.010    0.15E-03    0.18E-03    0.47E-07
   0      8    11.310   164.674    0.14E-03    0.17E-03    0.46E-07
   1      8    11.310    69.222    0.18E-03    0.20E-03    0.94E-07
   1      8    11.310    56.786    0.17E-03    0.19E-03    0.92E-07
 Optimization of the real space projectors (new method)

 maximal supplied QI-value         = 24.76
 optimisation between [QCUT,QGAM] = [ 11.39, 22.77] = [ 36.31,145.25] Ry 
 Optimized for a Real-space Cutoff    1.10 Angstroem

   l    n(q)    QCUT    max X(q) W(low)/X(q) W(high)/X(q)  e(spline) 
   0      7    11.387    20.381    0.22E-03    0.48E-03    0.18E-06
   0      7    11.387    15.268    0.22E-03    0.52E-03    0.19E-06
   1      7    11.387     5.964    0.22E-03    0.73E-03    0.24E-06
   1      7    11.387     5.382    0.19E-03    0.60E-03    0.21E-06
 Optimization of the real space projectors (new method)

 maximal supplied QI-value         = 34.20
 optimisation between [QCUT,QGAM] = [ 11.29, 22.57] = [ 35.68,142.71] Ry 
 Optimized for a Real-space Cutoff    1.20 Angstroem

   l    n(q)    QCUT    max X(q) W(low)/X(q) W(high)/X(q)  e(spline) 
   0      8    11.287    19.460    0.22E-03    0.50E-03    0.19E-06
   0      8    11.287    12.209    0.21E-03    0.48E-03    0.18E-06
   1      8    11.287     4.655    0.21E-03    0.11E-04    0.26E-06
  PAW_PBE C 08Apr2002                   :
 energy of atom  1       EATOM= -147.1560
 kinetic energy error for atom=    0.0076 (will be added to EATOM!!)
  PAW_PBE Cl 06Sep2000                  :
 energy of atom  2       EATOM= -409.7259
 kinetic energy error for atom=    0.0030 (will be added to EATOM!!)
  PAW_PBE O 08Apr2002                   :
 energy of atom  3       EATOM= -432.3788
 kinetic energy error for atom=    0.0224 (will be added to EATOM!!)
  PAW_PBE H 15Jun2001                   :
 energy of atom  4       EATOM=  -12.4884
 kinetic energy error for atom=    0.0020 (will be added to EATOM!!)
 
 
 POSCAR: C Cl O H
  positions in direct lattice
  velocities in cartesian coordinates
 exchange correlation table for  LEXCH =        8
   RHO(1)=    0.500       N(1)  =     2000
   RHO(2)=  100.500       N(2)  =     4000
 
 POSCAR: C Cl O H
  positions in direct lattice
  velocities in cartesian coordinates
 
 POSCAR: C Cl O H
  positions in direct lattice
  velocities in cartesian coordinates
 


--------------------------------------------------------------------------------------------------------


 ion  position               nearest neighbor table
   1  0.510  0.523  0.500-  17 1.09   2 1.39   6 1.41
   2  0.545  0.524  0.500-  16 1.09   1 1.39   3 1.40
   3  0.562  0.494  0.500-   2 1.40   4 1.40   9 1.74
   4  0.545  0.463  0.500-  15 1.09   5 1.39   3 1.40
   5  0.510  0.463  0.500-  14 1.09   4 1.39   6 1.41
   6  0.492  0.493  0.500-   1 1.41   5 1.41   7 1.50
   7  0.455  0.491  0.500-  10 1.24   6 1.50   8 1.51
   8  0.435  0.524  0.500-  13 1.10  11 1.10  12 1.10   7 1.51
   9  0.605  0.494  0.500-   3 1.74
  10  0.440  0.464  0.500-   7 1.24
  11  0.441  0.539  0.522-   8 1.10
  12  0.441  0.539  0.478-   8 1.10
  13  0.408  0.518  0.500-   8 1.10
  14  0.497  0.439  0.500-   5 1.09
  15  0.559  0.439  0.500-   4 1.09
  16  0.558  0.547  0.500-   2 1.09
  17  0.496  0.547  0.500-   1 1.09
 
  LATTYP: Found a simple cubic cell.
 ALAT       =    40.0000000000
  
  Lattice vectors:
  
 A1 = (  40.0000000000,   0.0000000000,   0.0000000000)
 A2 = (   0.0000000000,  40.0000000000,   0.0000000000)
 A3 = (   0.0000000000,   0.0000000000,  40.0000000000)


Analysis of symmetry for initial positions (statically):
=====================================================================
 Subroutine PRICEL returns:
 Original cell was already a primitive cell.
 

 Routine SETGRP: Setting up the symmetry group for a 
 simple cubic supercell.


 Subroutine GETGRP returns: Found  1 space group operations
 (whereof  1 operations were pure point group operations)
 out of a pool of 48 trial point group operations.


The static configuration has the point symmetry C_1 .


Analysis of symmetry for dynamics (positions and initial velocities):
=====================================================================
 Subroutine PRICEL returns:
 Original cell was already a primitive cell.
 

 Routine SETGRP: Setting up the symmetry group for a 
 simple cubic supercell.


 Subroutine GETGRP returns: Found  1 space group operations
 (whereof  1 operations were pure point group operations)
 out of a pool of 48 trial point group operations.


The dynamic configuration has the point symmetry C_1 .


Analysis of constrained symmetry for selective dynamics:
=====================================================================
 Subroutine PRICEL returns:
 Original cell was already a primitive cell.
 

 Routine SETGRP: Setting up the symmetry group for a 
 simple cubic supercell.


 Subroutine GETGRP returns: Found  1 space group operations
 (whereof  1 operations were pure point group operations)
 out of a pool of 48 trial point group operations.


The constrained configuration has the point symmetry C_1 .


Analysis of structural, dynamic, and magnetic symmetry:
=====================================================================
 Subroutine PRICEL returns:
 Original cell was already a primitive cell.
 

 Routine SETGRP: Setting up the symmetry group for a 
 simple cubic supercell.


 Subroutine GETGRP returns: Found  1 space group operations
 (whereof  1 operations were pure point group operations)
 out of a pool of 48 trial point group operations.


The overall configuration has the point symmetry C_1 .


 Subroutine INISYM returns: Found  1 space group operations
 (whereof  1 operations are pure point group operations),
 and found     1 'primitive' translations


----------------------------------------------------------------------------------------

                                     Primitive cell                                     

  volume of cell :   64000.0000

  direct lattice vectors                    reciprocal lattice vectors
    40.000000000  0.000000000  0.000000000     0.025000000  0.000000000  0.000000000
     0.000000000 40.000000000  0.000000000     0.000000000  0.025000000  0.000000000
     0.000000000  0.000000000 40.000000000     0.000000000  0.000000000  0.025000000

  length of vectors
    40.000000000 40.000000000 40.000000000     0.025000000  0.025000000  0.025000000

  position of ions in fractional coordinates (direct lattice)
     0.509640695  0.523248371  0.500008766
     0.544503098  0.523816171  0.500010998
     0.561920831  0.493520730  0.499997331
     0.545097246  0.462808746  0.499998166
     0.510322224  0.462697240  0.500003831
     0.492085047  0.492784753  0.500003231
     0.454726562  0.491315581  0.500007510
     0.435120833  0.523569344  0.499985139
     0.605309579  0.493902604  0.499976888
     0.440143684  0.463998252  0.500015711
     0.441263130  0.538721267  0.522103396
     0.441289467  0.538719705  0.477871938
     0.408327702  0.517940442  0.499970945
     0.496735137  0.439061355  0.500004146
     0.559150427  0.439474708  0.499990507
     0.558067114  0.547429545  0.500020783
     0.496296224  0.546993185  0.500031713

  ion indices of the primitive-cell ions
   primitive index   ion index
                 1           1
                 2           2
                 3           3
                 4           4
                 5           5
                 6           6
                 7           7
                 8           8
                 9           9
                10          10
                11          11
                12          12
                13          13
                14          14
                15          15
                16          16
                17          17

----------------------------------------------------------------------------------------

 
 
 KPOINTS: K-Point Grid                            

Automatic generation of k-mesh.
 Grid dimensions read from file:
 generate k-points for:    1    1    1

 Generating k-lattice:

  Cartesian coordinates                     Fractional coordinates (reciprocal lattice)
     0.025000000  0.000000000  0.000000000     1.000000000  0.000000000  0.000000000
     0.000000000  0.025000000  0.000000000     0.000000000  1.000000000  0.000000000
     0.000000000  0.000000000  0.025000000     0.000000000  0.000000000  1.000000000

  Length of vectors
     0.025000000  0.025000000  0.025000000

  Shift w.r.t. Gamma in fractional coordinates (k-lattice)
     0.000000000  0.000000000  0.000000000

 
 Subroutine IBZKPT returns following result:
 ===========================================
 
 Found      1 irreducible k-points:
 
 Following reciprocal coordinates:
            Coordinates               Weight
  0.000000  0.000000  0.000000      1.000000
 
 Following cartesian coordinates:
            Coordinates               Weight
  0.000000  0.000000  0.000000      1.000000
 


--------------------------------------------------------------------------------------------------------




 Dimension of arrays:
   k-points           NKPTS =      1   k-points in BZ     NKDIM =      1   number of bands    NBANDS=     48
   number of dos      NEDOS =    301   number of ions     NIONS =     17
   non local maximal  LDIM  =      4   non local SUM 2l+1 LMDIM =      8
   total plane-waves  NPLWV = ******
   max r-space proj   IRMAX =   2915   max aug-charges    IRDMAX=  11613
   dimension x,y,z NGX =   294 NGY =  294 NGZ =  294
   dimension x,y,z NGXF=   588 NGYF=  588 NGZF=  588
   support grid    NGXF=   588 NGYF=  588 NGZF=  588
   ions per type =               8   1   1   7
   NGX,Y,Z   is equivalent  to a cutoff of  12.22, 12.22, 12.22 a.u.
   NGXF,Y,Z  is equivalent  to a cutoff of  24.44, 24.44, 24.44 a.u.

 SYSTEM =  145_ox                                  
 POSCAR =  C Cl O H                                

 Startparameter for this run:
   NWRITE =      2    write-flag & timer
   PREC   = accura    normal or accurate (medium, high low for compatibility)
   ISTART =      1    job   : 0-new  1-cont  2-samecut
   ICHARG =      2    charge: 1-file 2-atom 10-const
   ISPIN  =      2    spin polarized calculation?
   LNONCOLLINEAR =      F non collinear calculations
   LSORBIT =      F    spin-orbit coupling
   INIWAV =      1    electr: 0-lowe 1-rand  2-diag
   LASPH  =      F    aspherical Exc in radial PAW
 Electronic Relaxation 1
   ENCUT  =  500.0 eV  36.75 Ry    6.06 a.u.  72.93 72.93 72.93*2*pi/ulx,y,z
   ENINI  =  500.0     initial cutoff
   ENAUG  =  644.9 eV  augmentation charge cutoff
   NELM   =    100;   NELMIN=  2; NELMDL=  0     # of ELM steps 
   EDIFF  = 0.1E-04   stopping-criterion for ELM
   LREAL  =      T    real-space projection
   NLSPLINE    = F    spline interpolate recip. space projectors
   LCOMPAT=      F    compatible to vasp.4.4
   GGA_COMPAT  = T    GGA compatible to vasp.4.4-vasp.4.6
   LMAXPAW     = -100 max onsite density
   LMAXMIX     =    2 max onsite mixed and CHGCAR
   VOSKOWN=      0    Vosko Wilk Nusair interpolation
   ROPT   =   -0.00025  -0.00025  -0.00025  -0.00025
 Ionic relaxation
   EDIFFG = -.2E-01   stopping-criterion for IOM
   NSW    =    500    number of steps for IOM
   NBLOCK =      1;   KBLOCK =    500    inner block; outer block 
   IBRION =      2    ionic relax: 0-MD 1-quasi-New 2-CG
   NFREE  =      1    steps in history (QN), initial steepest desc. (CG)
   ISIF   =      2    stress and relaxation
   IWAVPR =     11    prediction:  0-non 1-charg 2-wave 3-comb
   ISYM   =      2    0-nonsym 1-usesym 2-fastsym
   LCORR  =      T    Harris-Foulkes like correction to forces

   POTIM  = 0.5000    time-step for ionic-motion
   TEIN   =    0.0    initial temperature
   TEBEG  =    0.0;   TEEND  =   0.0 temperature during run
   SMASS  =  -3.00    Nose mass-parameter (am)
   estimated Nose-frequenzy (Omega)   =  0.10E-29 period in steps = 0.13E+47 mass=  -0.366E-25a.u.
   SCALEE = 1.0000    scale energy and forces
   NPACO  =    256;   APACO  = 10.0  distance and # of slots for P.C.
   PSTRESS=    0.0 pullay stress

  Mass of Ions in am
   POMASS =  12.01 35.45 16.00  1.00
  Ionic Valenz
   ZVAL   =   4.00  7.00  6.00  1.00
  Atomic Wigner-Seitz radii
   RWIGS  =  -1.00 -1.00 -1.00 -1.00
  virtual crystal weights 
   VCA    =   1.00  1.00  1.00  1.00
   NELECT =      52.0000    total number of electrons
   NUPDOWN=      -1.0000    fix difference up-down

 DOS related values:
   EMIN   =  10.00;   EMAX   =-10.00  energy-range for DOS
   EFERMI =   0.00
   ISMEAR =     0;   SIGMA  =   0.05  broadening in eV -4-tet -1-fermi 0-gaus

 Electronic relaxation 2 (details)
   IALGO  =     68    algorithm
   LDIAG  =      T    sub-space diagonalisation (order eigenvalues)
   LSUBROT=      F    optimize rotation matrix (better conditioning)
   TURBO    =      0    0=normal 1=particle mesh
   IRESTART =      0    0=no restart 2=restart with 2 vectors
   NREBOOT  =      0    no. of reboots
   NMIN     =      0    reboot dimension
   EREF     =   0.00    reference energy to select bands
   IMIX   =      4    mixing-type and parameters
     AMIX     =   0.40;   BMIX     =  1.00
     AMIX_MAG =   1.60;   BMIX_MAG =  1.00
     AMIN     =   0.10
     WC   =   100.;   INIMIX=   1;  MIXPRE=   1;  MAXMIX= -45

 Intra band minimization:
   WEIMIN = 0.0010     energy-eigenvalue tresh-hold
   EBREAK =  0.52E-07  absolut break condition
   DEPER  =   0.30     relativ break condition  

   TIME   =   0.40     timestep for ELM

  volume/ion in A,a.u.               =    3764.71     25405.49
  Fermi-wavevector in a.u.,A,eV,Ry     =   0.152762  0.288679  0.317510  0.023336
  Thomas-Fermi vector in A             =   0.833416
 
 Write flags
   LWAVE        =      T    write WAVECAR
   LDOWNSAMPLE  =      F    k-point downsampling of WAVECAR
   LCHARG       =      F    write CHGCAR
   LVTOT        =      F    write LOCPOT, total local potential
   LVHAR        =      F    write LOCPOT, Hartree potential only
   LELF         =      F    write electronic localiz. function (ELF)
   LORBIT       =      0    0 simple, 1 ext, 2 COOP (PROOUT), +10 PAW based schemes


 Dipole corrections
   LMONO  =      F    monopole corrections only (constant potential shift)
   LDIPOL =      F    correct potential (dipole corrections)
   IDIPOL =      0    1-x, 2-y, 3-z, 4-all directions 
   EPSILON=  1.0000000 bulk dielectric constant

 Exchange correlation treatment:
   GGA     =    --    GGA type
   LEXCH   =     8    internal setting for exchange type
   LIBXC   =     F    Libxc                    
   VOSKOWN =     0    Vosko Wilk Nusair interpolation
   LHFCALC =     F    Hartree Fock is set to
   LHFONE  =     F    Hartree Fock one center treatment
   AEXX    =    0.0000 exact exchange contribution

 Linear response parameters
   LEPSILON=     F    determine dielectric tensor
   LRPA    =     F    only Hartree local field effects (RPA)
   LNABLA  =     F    use nabla operator in PAW spheres
   LVEL    =     F    velocity operator in full k-point grid
   CSHIFT  =0.1000    complex shift for real part using Kramers Kronig
   OMEGAMAX=  -1.0    maximum frequency
   DEG_THRESHOLD= 0.2000000E-02 threshold for treating states as degnerate
   RTIME   =   -0.100 relaxation time in fs
  (WPLASMAI=    0.000 imaginary part of plasma frequency in eV, 0.658/RTIME)
   DFIELD  = 0.0000000 0.0000000 0.0000000 field for delta impulse in time
 
  Optional k-point grid parameters
   LKPOINTS_OPT  =     F    use optional k-point grid
   KPOINTS_OPT_MODE=     1    mode for optional k-point grid
 
 Orbital magnetization related:
   ORBITALMAG=     F  switch on orbital magnetization
   LCHIMAG   =     F  perturbation theory with respect to B field
   DQ        =  0.001000  dq finite difference perturbation B field
   LLRAUG    =     F  two centre corrections for induced B field

 Solvation model:
   LSOL             =     T         switch on solvation model
   LSOL_SCF         =     T         include solvation in SCF
   ISOL             =     2         solvation model type
   EFERMI_ref       =  0.000000         reference Fermi level
   capacitance_init =  1.000000         initial capacitance
 Nonlinear solvation model:
   LNLDIEL     =     T         switch on non-linear dielectric mode
   LNLION      =     T         switch on non-linear ionic mode
   LNLTEST     =     F         test non-linear model in linear regime
   I_NLOC_SOL  =     1         type of nonlocal dielectric response
   NC_K        =  0.015000     cutoff charge density for cavities (1/Angstrom**3)
   TAU         =  0.000879     cavity formation energy (eV/Angstrom**2)
   SIGMA_K     =  0.600000     cavity width
   A_K         =  0.125000     smoothing length (Angstrom)
   R_SOLV      =  2.190000     solvent radius (Angstrom)
   R_CAV       =  0.000000     cavity radius (Angstrom)
   R_DIEL      =  1.000000     dielectric radius (Angstrom)
   R_ION       =  0.000000     ionic radius (Angstrom)
   R_B         =  0.000000     bound charge radius (Angstrom)
   SOLTEMP     =298.000000     solvent temperature (K)
   EB_K        = 35.688000     relative permittivity of the bulk solvent
   EPSILON_INF =  1.806900     optical relative permittivity of bulk solvent
   N_MOL       =  0.011500     molar density of solvent (1/Angstrom**3)
   P_MOL       =  0.820000     solvent dipole moment (e*Angstrom)
   C_MOLAR     =  0.000000     electrolyte concentration (mol/L)
   LAMBDA_D_K  =  0.000000     Debye length (Angstrom)
   ZION        =  1.000000     charge of ions in electrolyte (e)
   D_ION       = -1.000000     minimum ion packing diameter (Angstrom)



--------------------------------------------------------------------------------------------------------


 conjugate gradient relaxation of ions
   using selective dynamics as specified on POSCAR
 charge density and potential will be updated during run
 spin polarized calculation
 RMM-DIIS sequential band-by-band and
  variant of blocked Davidson during initial phase
 perform sub-space diagonalisation
    before iterative eigenvector-optimisation
 modified Broyden-mixing scheme, WC =      100.0
 initial mixing is a Kerker type mixing with AMIX =  0.4000 and BMIX =      1.0000
 Hartree-type preconditioning will be used
 using additional bands           22
 real space projection scheme for non local part
 use partial core corrections
 calculate Harris-corrections to forces 
   (improved forces if not selfconsistent)
 use gradient corrections 
 use of overlap-Matrix (Vanderbilt PP)
 Gauss-broadening in eV      SIGMA  =   0.05


--------------------------------------------------------------------------------------------------------


  energy-cutoff  :      500.00
  volume of cell :    64000.00
      direct lattice vectors                 reciprocal lattice vectors
    40.000000000  0.000000000  0.000000000     0.025000000  0.000000000  0.000000000
     0.000000000 40.000000000  0.000000000     0.000000000  0.025000000  0.000000000
     0.000000000  0.000000000 40.000000000     0.000000000  0.000000000  0.025000000

  length of vectors
    40.000000000 40.000000000 40.000000000     0.025000000  0.025000000  0.025000000


 
 old parameters found on file WAVECAR:
  energy-cutoff  :      500.00
  volume of cell :    64000.00
      direct lattice vectors                 reciprocal lattice vectors
    40.000000000  0.000000000  0.000000000     0.025000000  0.000000000  0.000000000
     0.000000000 40.000000000  0.000000000     0.000000000  0.025000000  0.000000000
     0.000000000  0.000000000 40.000000000     0.000000000  0.000000000  0.025000000

  length of vectors

 
 k-points in units of 2pi/SCALE and weight: K-Point Grid                            
   0.00000000  0.00000000  0.00000000       1.000
 
 k-points in reciprocal lattice and weights: K-Point Grid                            
   0.00000000  0.00000000  0.00000000       1.000
 
 position of ions in fractional coordinates (direct lattice) 
   0.50964070  0.52324837  0.50000877
   0.54450310  0.52381617  0.50001100
   0.56192083  0.49352073  0.49999733
   0.54509725  0.46280875  0.49999817
   0.51032222  0.46269724  0.50000383
   0.49208505  0.49278475  0.50000323
   0.45472656  0.49131558  0.50000751
   0.43512083  0.52356934  0.49998514
   0.60530958  0.49390260  0.49997689
   0.44014368  0.46399825  0.50001571
   0.44126313  0.53872127  0.52210340
   0.44128947  0.53871971  0.47787194
   0.40832770  0.51794044  0.49997094
   0.49673514  0.43906136  0.50000415
   0.55915043  0.43947471  0.49999051
   0.55806711  0.54742954  0.50002078
   0.49629622  0.54699318  0.50003171
 
 position of ions in cartesian coordinates  (Angst):
  20.38562781 20.92993485 20.00035066
  21.78012391 20.95264684 20.00043992
  22.47683325 19.74082921 19.99989324
  21.80388984 18.51234985 19.99992664
  20.41288896 18.50788961 20.00015322
  19.68340189 19.71139013 20.00012926
  18.18906247 19.65262323 20.00030038
  17.40483332 20.94277377 19.99940556
  24.21238314 19.75610416 19.99907550
  17.60574735 18.55993006 20.00062845
  17.65052522 21.54885067 20.88413585
  17.65157869 21.54878820 19.11487754
  16.33310807 20.71761769 19.99883779
  19.86940546 17.56245422 20.00016584
  22.36601708 17.57898832 19.99962029
  22.32268457 21.89718179 20.00083132
  19.85184896 21.87972739 20.00126854
 


--------------------------------------------------------------------------------------------------------


 k-point   1 :   0.0000 0.0000 0.0000  plane waves: 1624525

 maximum and minimum number of plane-waves per node :    162473   162437

 maximum number of plane-waves:   1624525
 maximum index in each direction: 
   IXMAX=   72   IYMAX=   72   IZMAX=   72
   IXMIN=  -72   IYMIN=  -72   IZMIN=  -72


 real space projection operators:
  total allocation   :       1965.73 KBytes
  max/ min on nodes  :        205.55        188.38


 parallel 3D FFT for wavefunctions:
    minimum data exchange during FFTs selected (reduces bandwidth)
 parallel 3D FFT for charge:
    minimum data exchange during FFTs selected (reduces bandwidth)


 total amount of memory used by VASP MPI-rank0   703994. kBytes
=======================================================================

   base      :      30000. kBytes
   nonlr-proj:       1082. kBytes
   fftplans  :     167689. kBytes
   grid      :     474012. kBytes
   one-center:         12. kBytes
   wavefun   :      31199. kBytes
 
     INWAV:  cpu time      9.5037: real time      9.5249
 Broyden mixing: mesh for mixing (old mesh)
   NGX =145   NGY =145   NGZ =145
  (NGX  =588   NGY  =588   NGZ  =588)
  gives a total of ****** points

 initial charge density was supplied:
 charge density of overlapping atoms calculated
 number of electron      52.0000000 magnetization      17.0000000
 keeping initial charge density in first step


--------------------------------------------------------------------------------------------------------


 Maximum index for non-local projection operator          321
 Maximum index for augmentation-charges          335 (set IRDMAX)


--------------------------------------------------------------------------------------------------------


 First call to EWALD:  gamma=   0.044
 Maximum number of real-space cells 3x 3x 3
 Maximum number of reciprocal cells 3x 3x 3

    FEWALD:  cpu time      0.0067: real time      0.0068


--------------------------------------- Iteration      1(   1)  ---------------------------------------


    POTLOK:  cpu time      8.8297: real time      8.8433
    SETDIJ:  cpu time      0.1782: real time      0.1785
     EDDAV:  cpu time     32.6126: real time     32.6841
       DOS:  cpu time      0.0063: real time      0.0064
    CHARGE:  cpu time      2.7377: real time      2.7420
    MIXING:  cpu time      0.5802: real time      0.5806
    --------------------------------------------
      LOOP:  cpu time     44.9448: real time     45.0349

 eigenvalue-minimisations  :   248
 total energy-change (2. order) :-0.1004297E+03  (-0.7510930E+01)
 number of electron      51.9999999 magnetization      16.3450277
 augmentation part        0.7575196 magnetization      16.3703661

 Broyden mixing:
  rms(total) = 0.29023E+01    rms(broyden)= 0.29020E+01
  rms(prec ) = 0.29279E+01
  weight for this iteration     100.00

 Free energy of the ion-electron system (eV)
  ---------------------------------------------------
  alpha Z        PSCENC =         0.19067513
  Ewald energy   TEWEN  =      5163.16796191
  -Hartree energ DENC   =     -6672.54175540
  -exchange      EXHF   =         0.00000000
  -V(xc)+E(xc)   XCENC  =       171.54761960
  PAW double counting   =      1551.30687014    -1557.75428063
  entropy T*S    EENTRO =        -0.00000000
  eigenvalues    EBANDS =      -863.01850375
  atomic energy  EATOM  =      2106.67170235
  Solvation  Ecorr_sol  =         0.00000000
  ---------------------------------------------------
  free energy    TOTEN  =      -100.42971064 eV

  energy without entropy =     -100.42971064  energy(sigma->0) =     -100.42971064


--------------------------------------------------------------------------------------------------------




--------------------------------------- Iteration      1(   2)  ---------------------------------------


    --------------------------------------------
      INIT:  cpu time      0.5815: real time      0.5818
  FINALIZE:  cpu time     46.9845: real time     47.0254
    --------------------------------------------
    POTLOK:  cpu time     56.2612: real time     56.3211
    SETDIJ:  cpu time      0.1532: real time      0.1535
    EDDIAG:  cpu time      6.0378: real time      6.0513
  RMM-DIIS:  cpu time     20.3608: real time     20.4062
    ORTHCH:  cpu time      0.2348: real time      0.2353
       DOS:  cpu time      0.0034: real time      0.0034
    CHARGE:  cpu time      2.6773: real time      2.6832
    MIXING:  cpu time      0.4826: real time      0.4836
    --------------------------------------------
      LOOP:  cpu time     86.2112: real time     86.3377

 eigenvalue-minimisations  :   192
 total energy-change (2. order) : 0.5012791E+02  (-0.8854681E+01)
 number of electron      52.0000000 magnetization      15.6141215
 augmentation part        0.6726083 magnetization      15.5495516

 Broyden mixing:
  rms(total) = 0.13773E+01    rms(broyden)= 0.13771E+01
  rms(prec ) = 0.13961E+01
  weight for this iteration     100.00

 eigenvalues of (default mixing * dielectric matrix)
  average eigenvalue GAMMA=   0.9743
  0.9743

 Free energy of the ion-electron system (eV)
  ---------------------------------------------------
  alpha Z        PSCENC =         0.19067513
  Ewald energy   TEWEN  =      5163.16796191
  -Hartree energ DENC   =     -6765.02170054
  -exchange      EXHF   =         0.00000000
  -V(xc)+E(xc)   XCENC  =       215.47321989
  PAW double counting   =      2514.22837317    -2521.69190963
  entropy T*S    EENTRO =        -0.00000000
  eigenvalues    EBANDS =      -759.60855821
  atomic energy  EATOM  =      2106.67170235
  Solvation  Ecorr_sol  =        -3.71156950
  ---------------------------------------------------
  free energy    TOTEN  =       -50.30180542 eV

  energy without entropy =      -50.30180542  energy(sigma->0) =      -50.30180542


--------------------------------------------------------------------------------------------------------




--------------------------------------- Iteration      1(   3)  ---------------------------------------


    --------------------------------------------
      INIT:  cpu time      0.5844: real time      0.5843
  FINALIZE:  cpu time     55.7365: real time     55.8304
    --------------------------------------------
    POTLOK:  cpu time     65.0785: real time     65.2160
    SETDIJ:  cpu time      0.1630: real time      0.1633
    EDDIAG:  cpu time      6.0540: real time      6.0667
  RMM-DIIS:  cpu time     20.4291: real time     20.4740
    ORTHCH:  cpu time      0.2178: real time      0.2183
       DOS:  cpu time      0.0077: real time      0.0078
    CHARGE:  cpu time      2.6698: real time      2.6753
    MIXING:  cpu time      0.4772: real time      0.4781
    --------------------------------------------
      LOOP:  cpu time     95.0971: real time     95.2994

 eigenvalue-minimisations  :   192
 total energy-change (2. order) :-0.2982938E+02  (-0.3540898E+01)
 number of electron      51.9999999 magnetization      14.8203424
 augmentation part        0.6219905 magnetization      14.7333598

 Broyden mixing:
  rms(total) = 0.77679E+00    rms(broyden)= 0.77674E+00
  rms(prec ) = 0.78338E+00
  weight for this iteration     100.00

 eigenvalues of (default mixing * dielectric matrix)
  average eigenvalue GAMMA=   1.1137
  0.7894  1.4381

 Free energy of the ion-electron system (eV)
  ---------------------------------------------------
  alpha Z        PSCENC =         0.19067513
  Ewald energy   TEWEN  =      5163.16796191
  -Hartree energ DENC   =     -6837.41517527
  -exchange      EXHF   =         0.00000000
  -V(xc)+E(xc)   XCENC  =       195.10447129
  PAW double counting   =      3386.98559420    -3395.01468405
  entropy T*S    EENTRO =        -0.00000000
  eigenvalues    EBANDS =      -692.39046642
  atomic energy  EATOM  =      2106.67170235
  Solvation  Ecorr_sol  =        -7.43126917
  ---------------------------------------------------
  free energy    TOTEN  =       -80.13119003 eV

  energy without entropy =      -80.13119003  energy(sigma->0) =      -80.13119003


--------------------------------------------------------------------------------------------------------




--------------------------------------- Iteration      1(   4)  ---------------------------------------


    --------------------------------------------
      INIT:  cpu time      0.5615: real time      0.5622
  FINALIZE:  cpu time     58.7247: real time     58.7423
    --------------------------------------------
    POTLOK:  cpu time     68.0742: real time     68.1119
    SETDIJ:  cpu time      0.1687: real time      0.1689
    EDDIAG:  cpu time      6.0415: real time      6.0533
  RMM-DIIS:  cpu time     20.2336: real time     20.2773
    ORTHCH:  cpu time      0.2100: real time      0.2105
       DOS:  cpu time      0.0120: real time      0.0120
    CHARGE:  cpu time      2.6934: real time      2.6988
    MIXING:  cpu time      0.4795: real time      0.4802
    --------------------------------------------
      LOOP:  cpu time     97.9129: real time     98.0130

 eigenvalue-minimisations  :   192
 total energy-change (2. order) :-0.7608268E+01  (-0.1301070E+01)
 number of electron      51.9999999 magnetization      14.0862397
 augmentation part        0.5982427 magnetization      14.0170923

 Broyden mixing:
  rms(total) = 0.54161E+00    rms(broyden)= 0.54155E+00
  rms(prec ) = 0.54557E+00
  weight for this iteration     100.00

 eigenvalues of (default mixing * dielectric matrix)
  average eigenvalue GAMMA=   1.1257
  1.5622  1.1352  0.6797

 Free energy of the ion-electron system (eV)
  ---------------------------------------------------
  alpha Z        PSCENC =         0.19067513
  Ewald energy   TEWEN  =      5163.16796191
  -Hartree energ DENC   =     -6876.37186655
  -exchange      EXHF   =         0.00000000
  -V(xc)+E(xc)   XCENC  =       191.50862635
  PAW double counting   =      4027.50880908    -4035.71711190
  entropy T*S    EENTRO =        -0.00000000
  eigenvalues    EBANDS =      -654.80030333
  atomic energy  EATOM  =      2106.67170235
  Solvation  Ecorr_sol  =        -9.89795146
  ---------------------------------------------------
  free energy    TOTEN  =       -87.73945841 eV

  energy without entropy =      -87.73945841  energy(sigma->0) =      -87.73945841


--------------------------------------------------------------------------------------------------------




--------------------------------------- Iteration      1(   5)  ---------------------------------------


    --------------------------------------------
      INIT:  cpu time      0.5827: real time      0.5834
  FINALIZE:  cpu time     61.8666: real time     61.8853
    --------------------------------------------
    POTLOK:  cpu time     71.1925: real time     71.2311
    SETDIJ:  cpu time      0.1664: real time      0.1666
    EDDIAG:  cpu time      6.0022: real time      6.0147
  RMM-DIIS:  cpu time     20.0277: real time     20.0682
    ORTHCH:  cpu time      0.2671: real time      0.2677
       DOS:  cpu time      0.0008: real time      0.0008
    CHARGE:  cpu time      2.6658: real time      2.6713
    MIXING:  cpu time      0.4916: real time      0.4925
    --------------------------------------------
      LOOP:  cpu time    100.8140: real time    100.9131

 eigenvalue-minimisations  :   192
 total energy-change (2. order) :-0.6002839E+01  (-0.3524309E+00)
 number of electron      51.9999998 magnetization      12.9770814
 augmentation part        0.5914741 magnetization      12.9224440

 Broyden mixing:
  rms(total) = 0.34193E+00    rms(broyden)= 0.34191E+00
  rms(prec ) = 0.34410E+00
  weight for this iteration     100.00

 eigenvalues of (default mixing * dielectric matrix)
  average eigenvalue GAMMA=   1.3153
  2.1527  1.6086  0.8447  0.6553

 Free energy of the ion-electron system (eV)
  ---------------------------------------------------
  alpha Z        PSCENC =         0.19067513
  Ewald energy   TEWEN  =      5163.16796191
  -Hartree energ DENC   =     -6882.02820521
  -exchange      EXHF   =         0.00000000
  -V(xc)+E(xc)   XCENC  =       187.21263494
  PAW double counting   =      4289.05850995    -4297.17688710
  entropy T*S    EENTRO =        -0.00000000
  eigenvalues    EBANDS =      -650.62079776
  atomic energy  EATOM  =      2106.67170235
  Solvation  Ecorr_sol  =       -10.21789155
  ---------------------------------------------------
  free energy    TOTEN  =       -93.74229732 eV

  energy without entropy =      -93.74229732  energy(sigma->0) =      -93.74229732


--------------------------------------------------------------------------------------------------------




--------------------------------------- Iteration      1(   6)  ---------------------------------------


    --------------------------------------------
      INIT:  cpu time      0.5689: real time      0.5697
  FINALIZE:  cpu time     61.8497: real time     61.8852
    --------------------------------------------
    POTLOK:  cpu time     71.1782: real time     71.2340
    SETDIJ:  cpu time      0.1632: real time      0.1635
    EDDIAG:  cpu time      6.0222: real time      6.0339
  RMM-DIIS:  cpu time     20.0056: real time     20.0500
    ORTHCH:  cpu time      0.2374: real time      0.2379
       DOS:  cpu time      0.0015: real time      0.0015
    CHARGE:  cpu time      2.6747: real time      2.6804
    MIXING:  cpu time      0.5011: real time      0.5022
    --------------------------------------------
      LOOP:  cpu time    100.7839: real time    100.9033

 eigenvalue-minimisations  :   192
 total energy-change (2. order) :-0.7174517E+01  (-0.3676960E+00)
 number of electron      51.9999998 magnetization      12.4188976
 augmentation part        0.5878052 magnetization      12.3804206

 Broyden mixing:
  rms(total) = 0.20136E+00    rms(broyden)= 0.20134E+00
  rms(prec ) = 0.20227E+00
  weight for this iteration     100.00

 eigenvalues of (default mixing * dielectric matrix)
  average eigenvalue GAMMA=   1.3134
  2.4705  1.6472  1.0018  0.8119  0.6357

 Free energy of the ion-electron system (eV)
  ---------------------------------------------------
  alpha Z        PSCENC =         0.19067513
  Ewald energy   TEWEN  =      5163.16796191
  -Hartree energ DENC   =     -6886.69424263
  -exchange      EXHF   =         0.00000000
  -V(xc)+E(xc)   XCENC  =       181.90219233
  PAW double counting   =      4544.48939018    -4552.45727351
  entropy T*S    EENTRO =        -0.00000000
  eigenvalues    EBANDS =      -648.80954723
  atomic energy  EATOM  =      2106.67170235
  Solvation  Ecorr_sol  =        -9.37767306
  ---------------------------------------------------
  free energy    TOTEN  =      -100.91681451 eV

  energy without entropy =     -100.91681451  energy(sigma->0) =     -100.91681451


--------------------------------------------------------------------------------------------------------




--------------------------------------- Iteration      1(   7)  ---------------------------------------


    --------------------------------------------
      INIT:  cpu time      0.5874: real time      0.5880
  FINALIZE:  cpu time     64.9116: real time     64.9800
    --------------------------------------------
    POTLOK:  cpu time     74.2993: real time     74.4027
    SETDIJ:  cpu time      0.1698: real time      0.1700
    EDDIAG:  cpu time      6.0023: real time      6.0153
  RMM-DIIS:  cpu time     20.1048: real time     20.1487
    ORTHCH:  cpu time      0.2129: real time      0.2134
       DOS:  cpu time      0.0105: real time      0.0105
    CHARGE:  cpu time      2.6755: real time      2.6810
    MIXING:  cpu time      0.4845: real time      0.4854
    --------------------------------------------
      LOOP:  cpu time    103.9596: real time    104.1271

 eigenvalue-minimisations  :   193
 total energy-change (2. order) :-0.1074320E+01  (-0.1013253E+00)
 number of electron      51.9999998 magnetization      11.4043686
 augmentation part        0.5761014 magnetization      11.3786374

 Broyden mixing:
  rms(total) = 0.17852E+00    rms(broyden)= 0.17851E+00
  rms(prec ) = 0.17943E+00
  weight for this iteration     100.00

 eigenvalues of (default mixing * dielectric matrix)
  average eigenvalue GAMMA=   1.2224
  2.3389  1.9441  0.8715  0.8715  0.6541  0.6541

 Free energy of the ion-electron system (eV)
  ---------------------------------------------------
  alpha Z        PSCENC =         0.19067513
  Ewald energy   TEWEN  =      5163.16796191
  -Hartree energ DENC   =     -6888.16351820
  -exchange      EXHF   =         0.00000000
  -V(xc)+E(xc)   XCENC  =       181.19072931
  PAW double counting   =      4552.37862015    -4560.32835544
  entropy T*S    EENTRO =        -0.00000000
  eigenvalues    EBANDS =      -648.94221753
  atomic energy  EATOM  =      2106.67170235
  Solvation  Ecorr_sol  =        -8.15673193
  ---------------------------------------------------
  free energy    TOTEN  =      -101.99113423 eV

  energy without entropy =     -101.99113423  energy(sigma->0) =     -101.99113423


--------------------------------------------------------------------------------------------------------




--------------------------------------- Iteration      1(   8)  ---------------------------------------


    --------------------------------------------
      INIT:  cpu time      0.5739: real time      0.5741
  FINALIZE:  cpu time     64.8696: real time     64.8947
    --------------------------------------------
    POTLOK:  cpu time     74.2587: real time     74.3028
    SETDIJ:  cpu time      0.1623: real time      0.1625
    EDDIAG:  cpu time      6.0266: real time      6.0394
  RMM-DIIS:  cpu time     20.0811: real time     20.1213
    ORTHCH:  cpu time      0.2191: real time      0.2196
       DOS:  cpu time      0.0055: real time      0.0055
    CHARGE:  cpu time      2.6730: real time      2.6782
    MIXING:  cpu time      0.4880: real time      0.4890
    --------------------------------------------
      LOOP:  cpu time    103.9142: real time    104.0182

 eigenvalue-minimisations  :   193
 total energy-change (2. order) :-0.1416046E+01  (-0.5392732E-01)
 number of electron      51.9999998 magnetization       9.7646985
 augmentation part        0.5752644 magnetization       9.7467319

 Broyden mixing:
  rms(total) = 0.13250E+00    rms(broyden)= 0.13249E+00
  rms(prec ) = 0.13278E+00
  weight for this iteration     100.00

 eigenvalues of (default mixing * dielectric matrix)
  average eigenvalue GAMMA=   1.5194
  3.1796  2.8716  1.4356  1.0682  0.8399  0.6451  0.5957

 Free energy of the ion-electron system (eV)
  ---------------------------------------------------
  alpha Z        PSCENC =         0.19067513
  Ewald energy   TEWEN  =      5163.16796191
  -Hartree energ DENC   =     -6882.48828036
  -exchange      EXHF   =         0.00000000
  -V(xc)+E(xc)   XCENC  =       179.71246550
  PAW double counting   =      4464.99604091    -4472.85797863
  entropy T*S    EENTRO =        -0.00000000
  eigenvalues    EBANDS =      -657.08815389
  atomic energy  EATOM  =      2106.67170235
  Solvation  Ecorr_sol  =        -5.71161352
  ---------------------------------------------------
  free energy    TOTEN  =      -103.40718059 eV

  energy without entropy =     -103.40718059  energy(sigma->0) =     -103.40718059


--------------------------------------------------------------------------------------------------------




--------------------------------------- Iteration      1(   9)  ---------------------------------------


    --------------------------------------------
      INIT:  cpu time      0.5875: real time      0.5885
  FINALIZE:  cpu time     67.9017: real time     67.9126
    --------------------------------------------
    POTLOK:  cpu time     77.2938: real time     77.3265
    SETDIJ:  cpu time      0.1694: real time      0.1697
    EDDIAG:  cpu time      6.0303: real time      6.0417
  RMM-DIIS:  cpu time     21.1893: real time     21.2348
    ORTHCH:  cpu time      0.2175: real time      0.2180
       DOS:  cpu time      0.0142: real time      0.0143
    CHARGE:  cpu time      2.6577: real time      2.6632
    MIXING:  cpu time      0.5281: real time      0.5291
    --------------------------------------------
      LOOP:  cpu time    108.1004: real time    108.1973

 eigenvalue-minimisations  :   197
 total energy-change (2. order) :-0.5456157E+00  (-0.8505174E-01)
 number of electron      51.9999998 magnetization       9.5018566
 augmentation part        0.5721821 magnetization       9.4919883

 Broyden mixing:
  rms(total) = 0.10780E+00    rms(broyden)= 0.10779E+00
  rms(prec ) = 0.10856E+00
  weight for this iteration     100.00

 eigenvalues of (default mixing * dielectric matrix)
  average eigenvalue GAMMA=   1.4509
  3.6226  2.4585  1.6823  0.8361  0.8361  0.7760  0.7760  0.6196

 Free energy of the ion-electron system (eV)
  ---------------------------------------------------
  alpha Z        PSCENC =         0.19067513
  Ewald energy   TEWEN  =      5163.16796191
  -Hartree energ DENC   =     -6879.83567667
  -exchange      EXHF   =         0.00000000
  -V(xc)+E(xc)   XCENC  =       179.24113065
  PAW double counting   =      4404.29186869    -4412.08971692
  entropy T*S    EENTRO =        -0.00000000
  eigenvalues    EBANDS =      -663.14496750
  atomic energy  EATOM  =      2106.67170235
  Solvation  Ecorr_sol  =        -2.44577395
  ---------------------------------------------------
  free energy    TOTEN  =      -103.95279630 eV

  energy without entropy =     -103.95279630  energy(sigma->0) =     -103.95279630


--------------------------------------------------------------------------------------------------------




--------------------------------------- Iteration      1(  10)  ---------------------------------------


    --------------------------------------------
      INIT:  cpu time      0.5859: real time      0.5866
  FINALIZE:  cpu time     61.9119: real time     61.9290
    --------------------------------------------
    POTLOK:  cpu time     71.2487: real time     71.3115
    SETDIJ:  cpu time      0.1608: real time      0.1611
    EDDIAG:  cpu time      5.9867: real time      6.0000
  RMM-DIIS:  cpu time     20.1558: real time     20.2010
    ORTHCH:  cpu time      0.2320: real time      0.2325
       DOS:  cpu time      0.0046: real time      0.0046
    CHARGE:  cpu time      2.6758: real time      2.6814
    MIXING:  cpu time      0.5410: real time      0.5421
    --------------------------------------------
      LOOP:  cpu time    101.0053: real time    101.1342

 eigenvalue-minimisations  :   193
 total energy-change (2. order) :-0.5643947E+00  (-0.1353672E-01)
 number of electron      51.9999998 magnetization       8.2367003
 augmentation part        0.5690985 magnetization       8.2302046

 Broyden mixing:
  rms(total) = 0.80085E-01    rms(broyden)= 0.80082E-01
  rms(prec ) = 0.80460E-01
  weight for this iteration     100.00

 eigenvalues of (default mixing * dielectric matrix)
  average eigenvalue GAMMA=   1.5026
  4.3600  2.1088  1.6670  1.6670  0.7811  0.7811  0.8249  0.6096  0.7244

 Free energy of the ion-electron system (eV)
  ---------------------------------------------------
  alpha Z        PSCENC =         0.19067513
  Ewald energy   TEWEN  =      5163.16796191
  -Hartree energ DENC   =     -6882.31528169
  -exchange      EXHF   =         0.00000000
  -V(xc)+E(xc)   XCENC  =       178.82915985
  PAW double counting   =      4424.74977559    -4432.58361880
  entropy T*S    EENTRO =        -0.00000000
  eigenvalues    EBANDS =      -661.01057331
  atomic energy  EATOM  =      2106.67170235
  Solvation  Ecorr_sol  =        -2.21699199
  ---------------------------------------------------
  free energy    TOTEN  =      -104.51719095 eV

  energy without entropy =     -104.51719095  energy(sigma->0) =     -104.51719095


--------------------------------------------------------------------------------------------------------




--------------------------------------- Iteration      1(  11)  ---------------------------------------


    --------------------------------------------
      INIT:  cpu time      0.5785: real time      0.5795
  FINALIZE:  cpu time     58.4953: real time     58.5799
    --------------------------------------------
    POTLOK:  cpu time     67.8463: real time     67.9537
    SETDIJ:  cpu time      0.1575: real time      0.1577
    EDDIAG:  cpu time      5.9748: real time      5.9868
  RMM-DIIS:  cpu time     20.6944: real time     20.7381
    ORTHCH:  cpu time      0.2169: real time      0.2174
       DOS:  cpu time      0.0157: real time      0.0157
    CHARGE:  cpu time      2.6590: real time      2.6644
    MIXING:  cpu time      0.5553: real time      0.5563
    --------------------------------------------
      LOOP:  cpu time     98.1199: real time     98.2901

 eigenvalue-minimisations  :   196
 total energy-change (2. order) :-0.7788912E+00  (-0.1809026E-01)
 number of electron      51.9999998 magnetization       7.3602929
 augmentation part        0.5685176 magnetization       7.3567620

 Broyden mixing:
  rms(total) = 0.54297E-01    rms(broyden)= 0.54293E-01
  rms(prec ) = 0.54493E-01
  weight for this iteration     100.00

 eigenvalues of (default mixing * dielectric matrix)
  average eigenvalue GAMMA=   1.7451
  6.7282  2.2723  2.2723  1.5625  0.9236  0.9236  0.7279  0.7279  0.7053  0.6076

 Free energy of the ion-electron system (eV)
  ---------------------------------------------------
  alpha Z        PSCENC =         0.19067513
  Ewald energy   TEWEN  =      5163.16796191
  -Hartree energ DENC   =     -6883.27594451
  -exchange      EXHF   =         0.00000000
  -V(xc)+E(xc)   XCENC  =       178.13279753
  PAW double counting   =      4411.82282513    -4419.68514978
  entropy T*S    EENTRO =        -0.00000000
  eigenvalues    EBANDS =      -661.70700411
  atomic energy  EATOM  =      2106.67170235
  Solvation  Ecorr_sol  =        -0.61394584
  ---------------------------------------------------
  free energy    TOTEN  =      -105.29608219 eV

  energy without entropy =     -105.29608219  energy(sigma->0) =     -105.29608219


--------------------------------------------------------------------------------------------------------




--------------------------------------- Iteration      1(  12)  ---------------------------------------


    --------------------------------------------
      INIT:  cpu time      0.5888: real time      0.5896
  FINALIZE:  cpu time     58.8720: real time     58.9027
    --------------------------------------------
    POTLOK:  cpu time     68.1966: real time     68.2501
    SETDIJ:  cpu time      0.1620: real time      0.1622
    EDDIAG:  cpu time      6.0495: real time      6.0604
  RMM-DIIS:  cpu time     20.2562: real time     20.2994
    ORTHCH:  cpu time      0.2141: real time      0.2145
       DOS:  cpu time      0.0011: real time      0.0011
    CHARGE:  cpu time      2.6659: real time      2.6717
    MIXING:  cpu time      0.5685: real time      0.5695
    --------------------------------------------
      LOOP:  cpu time     98.1139: real time     98.2290

 eigenvalue-minimisations  :   194
 total energy-change (2. order) :-0.5499533E+00  (-0.9615156E-02)
 number of electron      51.9999998 magnetization       7.0043978
 augmentation part        0.5676902 magnetization       7.0025457

 Broyden mixing:
  rms(total) = 0.43208E-01    rms(broyden)= 0.43207E-01
  rms(prec ) = 0.43426E-01
  weight for this iteration     100.00

 eigenvalues of (default mixing * dielectric matrix)
  average eigenvalue GAMMA=   1.6750
  7.0196  2.1807  2.1807  1.4221  1.0623  1.0623  0.7230  0.7230  0.7885  0.6570
  0.6057

 Free energy of the ion-electron system (eV)
  ---------------------------------------------------
  alpha Z        PSCENC =         0.19067513
  Ewald energy   TEWEN  =      5163.16796191
  -Hartree energ DENC   =     -6883.15953590
  -exchange      EXHF   =         0.00000000
  -V(xc)+E(xc)   XCENC  =       177.57118284
  PAW double counting   =      4398.48168482    -4406.34634909
  entropy T*S    EENTRO =        -0.00000000
  eigenvalues    EBANDS =      -662.86121112
  atomic energy  EATOM  =      2106.67170235
  Solvation  Ecorr_sol  =         0.43785357
  ---------------------------------------------------
  free energy    TOTEN  =      -105.84603548 eV

  energy without entropy =     -105.84603548  energy(sigma->0) =     -105.84603548


--------------------------------------------------------------------------------------------------------




--------------------------------------- Iteration      1(  13)  ---------------------------------------


    --------------------------------------------
      INIT:  cpu time      0.5794: real time      0.5807
  FINALIZE:  cpu time     61.8073: real time     61.8289
    --------------------------------------------
    POTLOK:  cpu time     71.1763: real time     71.2190
    SETDIJ:  cpu time      0.1683: real time      0.1685
    EDDIAG:  cpu time      6.0542: real time      6.0678
  RMM-DIIS:  cpu time     20.4970: real time     20.5410
    ORTHCH:  cpu time      0.2235: real time      0.2240
       DOS:  cpu time      0.0060: real time      0.0060
    CHARGE:  cpu time      2.6815: real time      2.6880
    MIXING:  cpu time      0.5974: real time      0.5985
    --------------------------------------------
      LOOP:  cpu time    101.4043: real time    101.5129

 eigenvalue-minimisations  :   197
 total energy-change (2. order) :-0.1336273E+00  (-0.1876116E-02)
 number of electron      51.9999998 magnetization       5.6059460
 augmentation part        0.5666444 magnetization       5.6051117

 Broyden mixing:
  rms(total) = 0.35059E-01    rms(broyden)= 0.35059E-01
  rms(prec ) = 0.35178E-01
  weight for this iteration     100.00

 eigenvalues of (default mixing * dielectric matrix)
  average eigenvalue GAMMA=   1.8024
  7.6919  2.3437  2.3437  2.3470  1.4781  0.9655  0.9655  0.7365  0.7365  0.7721
  0.6354  0.6129

 Free energy of the ion-electron system (eV)
  ---------------------------------------------------
  alpha Z        PSCENC =         0.19067513
  Ewald energy   TEWEN  =      5163.16796191
  -Hartree energ DENC   =     -6882.52937086
  -exchange      EXHF   =         0.00000000
  -V(xc)+E(xc)   XCENC  =       177.42111279
  PAW double counting   =      4404.44864778    -4412.30453077
  entropy T*S    EENTRO =        -0.00000000
  eigenvalues    EBANDS =      -663.61295197
  atomic energy  EATOM  =      2106.67170235
  Solvation  Ecorr_sol  =         0.56709087
  ---------------------------------------------------
  free energy    TOTEN  =      -105.97966275 eV

  energy without entropy =     -105.97966275  energy(sigma->0) =     -105.97966275


--------------------------------------------------------------------------------------------------------




--------------------------------------- Iteration      1(  14)  ---------------------------------------


    --------------------------------------------
      INIT:  cpu time      0.5859: real time      0.5867
  FINALIZE:  cpu time     62.0244: real time     62.0513
    --------------------------------------------
    POTLOK:  cpu time     71.3612: real time     71.4085
    SETDIJ:  cpu time      0.1668: real time      0.1671
    EDDIAG:  cpu time      6.0420: real time      6.0545
  RMM-DIIS:  cpu time     20.4500: real time     20.4943
    ORTHCH:  cpu time      0.2180: real time      0.2185
       DOS:  cpu time      0.0063: real time      0.0063
    CHARGE:  cpu time      2.6666: real time      2.6721
    MIXING:  cpu time      0.6383: real time      0.6395
    --------------------------------------------
      LOOP:  cpu time    101.5493: real time    101.6608

 eigenvalue-minimisations  :   195
 total energy-change (2. order) :-0.2839723E+00  (-0.1548024E-02)
 number of electron      51.9999998 magnetization       5.0570841
 augmentation part        0.5665770 magnetization       5.0563404

 Broyden mixing:
  rms(total) = 0.28379E-01    rms(broyden)= 0.28379E-01
  rms(prec ) = 0.28532E-01
  weight for this iteration     100.00

 eigenvalues of (default mixing * dielectric matrix)
  average eigenvalue GAMMA=   1.8969
  8.8508  3.6921  2.2091  2.2091  1.3231  1.0865  1.0865  0.7408  0.7408  0.7878
  0.6845  0.6240  0.6240

 Free energy of the ion-electron system (eV)
  ---------------------------------------------------
  alpha Z        PSCENC =         0.19067513
  Ewald energy   TEWEN  =      5163.16796191
  -Hartree energ DENC   =     -6880.78880495
  -exchange      EXHF   =         0.00000000
  -V(xc)+E(xc)   XCENC  =       177.11370646
  PAW double counting   =      4423.99743506    -4431.84360000
  entropy T*S    EENTRO =        -0.00000000
  eigenvalues    EBANDS =      -665.67531384
  atomic energy  EATOM  =      2106.67170235
  Solvation  Ecorr_sol  =         0.90260281
  ---------------------------------------------------
  free energy    TOTEN  =      -106.26363506 eV

  energy without entropy =     -106.26363506  energy(sigma->0) =     -106.26363506


--------------------------------------------------------------------------------------------------------




--------------------------------------- Iteration      1(  15)  ---------------------------------------


    --------------------------------------------
      INIT:  cpu time      0.5861: real time      0.5866
  FINALIZE:  cpu time     58.9176: real time     58.9329
    --------------------------------------------
    POTLOK:  cpu time     68.2878: real time     68.3241
    SETDIJ:  cpu time      0.1663: real time      0.1666
    EDDIAG:  cpu time      6.0196: real time      6.0311
  RMM-DIIS:  cpu time     20.4836: real time     20.5280
    ORTHCH:  cpu time      0.2335: real time      0.2341
       DOS:  cpu time      0.0048: real time      0.0048
    CHARGE:  cpu time      2.6566: real time      2.6622
    MIXING:  cpu time      0.6640: real time      0.6654
    --------------------------------------------
      LOOP:  cpu time     98.5162: real time     98.6161

 eigenvalue-minimisations  :   195
 total energy-change (2. order) :-0.9451918E-01  (-0.4784858E-03)
 number of electron      51.9999998 magnetization       4.5057803
 augmentation part        0.5662824 magnetization       4.5052015

 Broyden mixing:
  rms(total) = 0.23914E-01    rms(broyden)= 0.23914E-01
  rms(prec ) = 0.24012E-01
  weight for this iteration     100.00

 eigenvalues of (default mixing * dielectric matrix)
  average eigenvalue GAMMA=   1.8828
  9.2527  4.0021  2.1314  2.1314  1.2777  1.2777  1.1532  0.7831  0.7831  0.7839
  0.7839  0.7584  0.6158  0.6251

 Free energy of the ion-electron system (eV)
  ---------------------------------------------------
  alpha Z        PSCENC =         0.19067513
  Ewald energy   TEWEN  =      5163.16796191
  -Hartree energ DENC   =     -6880.72894382
  -exchange      EXHF   =         0.00000000
  -V(xc)+E(xc)   XCENC  =       177.02854588
  PAW double counting   =      4424.37000698    -4432.22504371
  entropy T*S    EENTRO =        -0.00000000
  eigenvalues    EBANDS =      -665.80140918
  atomic energy  EATOM  =      2106.67170235
  Solvation  Ecorr_sol  =         0.96835020
  ---------------------------------------------------
  free energy    TOTEN  =      -106.35815424 eV

  energy without entropy =     -106.35815424  energy(sigma->0) =     -106.35815424


--------------------------------------------------------------------------------------------------------




--------------------------------------- Iteration      1(  16)  ---------------------------------------


    --------------------------------------------
      INIT:  cpu time      0.5853: real time      0.5858
  FINALIZE:  cpu time     58.7272: real time     58.7440
    --------------------------------------------
    POTLOK:  cpu time     68.0960: real time     68.1336
    SETDIJ:  cpu time      0.1663: real time      0.1666
    EDDIAG:  cpu time      6.0417: real time      6.0548
  RMM-DIIS:  cpu time     20.1580: real time     20.2020
    ORTHCH:  cpu time      0.2383: real time      0.2388
       DOS:  cpu time      0.0028: real time      0.0028
    CHARGE:  cpu time      2.6713: real time      2.6765
    MIXING:  cpu time      0.6666: real time      0.6680
    --------------------------------------------
[...]
    SETDIJ:  cpu time      0.1603: real time      0.1606
     EDDAV:  cpu time     32.1220: real time     32.1924
       DOS:  cpu time      0.0473: real time      0.0474
    CHARGE:  cpu time      2.6615: real time      2.6671
    MIXING:  cpu time      0.5647: real time      0.5654
    --------------------------------------------
      LOOP:  cpu time    177.7294: real time    177.9636

 eigenvalue-minimisations  :   240
 total energy-change (2. order) :-0.1553701E-04  (-0.1752431E-03)
 number of electron      51.9999998 magnetization       0.0000000
 augmentation part        0.5686052 magnetization       0.0000000

 Broyden mixing:
  rms(total) = 0.25130E-02    rms(broyden)= 0.25122E-02
  rms(prec ) = 0.25189E-02
  weight for this iteration     100.00

 Free energy of the ion-electron system (eV)
  ---------------------------------------------------
  alpha Z        PSCENC =         0.19067513
  Ewald energy   TEWEN  =      5166.13907418
  -Hartree energ DENC   =     -6881.97728495
  -exchange      EXHF   =         0.00000000
  -V(xc)+E(xc)   XCENC  =       176.89106839
  PAW double counting   =      4426.24274286    -4434.10186611
  entropy T*S    EENTRO =        -0.00000000
  eigenvalues    EBANDS =      -666.60633312
  atomic energy  EATOM  =      2106.67170235
  Solvation  Ecorr_sol  =         0.03816057
  ---------------------------------------------------
  free energy    TOTEN  =      -106.51206070 eV

  energy without entropy =     -106.51206070  energy(sigma->0) =     -106.51206070


--------------------------------------------------------------------------------------------------------




--------------------------------------- Iteration     11(   2)  ---------------------------------------


    --------------------------------------------
      INIT:  cpu time      0.5750: real time      0.5757
  FINALIZE:  cpu time     89.4939: real time     89.5374
    --------------------------------------------
    POTLOK:  cpu time     98.7917: real time     98.8611
    SETDIJ:  cpu time      0.1583: real time      0.1586
    EDDIAG:  cpu time      5.9782: real time      5.9894
  RMM-DIIS:  cpu time     18.4434: real time     18.4837
    ORTHCH:  cpu time      0.2410: real time      0.2416
       DOS:  cpu time      0.0102: real time      0.0103
    --------------------------------------------
      LOOP:  cpu time    123.6230: real time    123.7447

 eigenvalue-minimisations  :   176
 total energy-change (2. order) :-0.2364529E-05  (-0.4696070E-05)
 number of electron      51.9999998 magnetization       0.0000000
 augmentation part        0.5686052 magnetization       0.0000000

 Free energy of the ion-electron system (eV)
  ---------------------------------------------------
  alpha Z        PSCENC =         0.19067513
  Ewald energy   TEWEN  =      5166.13907418
  -Hartree energ DENC   =     -6881.98012206
  -exchange      EXHF   =         0.00000000
  -V(xc)+E(xc)   XCENC  =       176.89127249
  PAW double counting   =      4426.55120743    -4434.41016996
  entropy T*S    EENTRO =        -0.00000000
  eigenvalues    EBANDS =      -666.60325018
  atomic energy  EATOM  =      2106.67170235
  Solvation  Ecorr_sol  =         0.03754755
  ---------------------------------------------------
  free energy    TOTEN  =      -106.51206306 eV

  energy without entropy =     -106.51206306  energy(sigma->0) =     -106.51206306


--------------------------------------------------------------------------------------------------------




 average (electrostatic) potential at core
  the test charge radii are     0.6991  0.9406  0.7215  0.5201
  (the norm of the test charge is              1.0000)
       1 -59.4612       2 -59.4225       3 -60.6608       4 -59.4028       5 -59.3331
       6 -59.4078       7 -60.9995       8 -58.7892       9-101.2875      10 -80.1994
      11 -42.3862      12 -42.3862      13 -42.1159      14 -42.3666      15 -42.6358
      16 -42.6696      17 -42.6904
 
 
 
 E-fermi :  -5.6035     XC(G=0):  -0.0484     alpha+bet : -0.0197

 Fermi energy:        -5.6035341877

 spin component 1

 k-point     1 :       0.0000    0.0000    0.0000
  band No.  band energies     occupation 
      1     -26.0277      1.00000
      2     -22.6666      1.00000
      3     -21.2944      1.00000
      4     -19.2245      1.00000
      5     -19.0088      1.00000
      6     -18.0952      1.00000
      7     -15.6295      1.00000
      8     -15.4939      1.00000
      9     -13.9383      1.00000
     10     -12.6682      1.00000
     11     -11.9959      1.00000
     12     -11.5018      1.00000
     13     -11.2364      1.00000
     14     -11.0516      1.00000
     15     -10.7837      1.00000
     16     -10.2780      1.00000
     17     -10.1040      1.00000
     18      -9.8078      1.00000
     19      -9.1873      1.00000
     20      -9.0719      1.00000
     21      -8.8171      1.00000
     22      -8.3445      1.00000
     23      -7.7752      1.00000
     24      -6.9481      1.00000
     25      -6.4491      1.00000
     26      -5.9023      1.00000
     27      -2.8865      0.00000
     28      -1.8103      0.00000
     29      -0.7318      0.00000
     30      -0.6572      0.00000
     31      -0.4648      0.00000
     32      -0.1943      0.00000
     33      -0.0400      0.00000
     34       0.0137      0.00000
     35       0.0701      0.00000
     36       0.0976      0.00000
     37       0.0985      0.00000
     38       0.1090      0.00000
     39       0.1147      0.00000
     40       0.1272      0.00000
     41       0.1392      0.00000
     42       0.1836      0.00000
     43       0.1881      0.00000
     44       0.1890      0.00000
     45       0.1913      0.00000
     46       0.1916      0.00000
     47       0.1934      0.00000
     48       0.1942      0.00000
 Fermi energy:        -5.6035341877

 spin component 2

 k-point     1 :       0.0000    0.0000    0.0000
  band No.  band energies     occupation 
      1     -26.0277      1.00000
      2     -22.6666      1.00000
      3     -21.2944      1.00000
      4     -19.2245      1.00000
      5     -19.0088      1.00000
      6     -18.0952      1.00000
      7     -15.6295      1.00000
      8     -15.4939      1.00000
      9     -13.9383      1.00000
     10     -12.6682      1.00000
     11     -11.9959      1.00000
     12     -11.5018      1.00000
     13     -11.2364      1.00000
     14     -11.0516      1.00000
     15     -10.7837      1.00000
     16     -10.2780      1.00000
     17     -10.1040      1.00000
     18      -9.8078      1.00000
     19      -9.1873      1.00000
     20      -9.0719      1.00000
     21      -8.8171      1.00000
     22      -8.3445      1.00000
     23      -7.7752      1.00000
     24      -6.9481      1.00000
     25      -6.4491      1.00000
     26      -5.9023      1.00000
     27      -2.8865      0.00000
     28      -1.8103      0.00000
     29      -0.7318      0.00000
     30      -0.6572      0.00000
     31      -0.4648      0.00000
     32      -0.1943      0.00000
     33      -0.0400      0.00000
     34       0.0137      0.00000
     35       0.0701      0.00000
     36       0.0976      0.00000
     37       0.0986      0.00000
     38       0.1090      0.00000
     39       0.1148      0.00000
     40       0.1273      0.00000
     41       0.1392      0.00000
     42       0.1836      0.00000
     43       0.1881      0.00000
     44       0.1892      0.00000
     45       0.1913      0.00000
     46       0.1917      0.00000
     47       0.1934      0.00000
     48       0.1938      0.00000


--------------------------------------------------------------------------------------------------------


 soft charge-density along one line, spin component           1
         0         1         2         3         4         5         6         7         8         9
 total charge-density along one line
 
 soft charge-density along one line, spin component           2
         0         1         2         3         4         5         6         7         8         9
 total charge-density along one line
 
 pseudopotential strength for first ion, spin component:           1
 10.297  13.695  -0.001   0.000   0.001   0.003   0.000  -0.003
 13.695  18.213  -0.001   0.000   0.001   0.004   0.000  -0.004
 -0.001  -0.001  -4.415  -0.000  -0.001   8.635   0.000   0.001
  0.000   0.000  -0.000  -4.410   0.000   0.000   8.631  -0.000
  0.001   0.001  -0.001   0.000  -4.416   0.001  -0.000   8.637
  0.003   0.004   8.635   0.000   0.001 -19.030   0.000  -0.002
  0.000   0.000   0.000   8.631  -0.000   0.000 -19.032   0.000
 -0.003  -0.004   0.001  -0.000   8.637  -0.002   0.000 -19.034
 pseudopotential strength for first ion, spin component:           2
 10.297  13.695  -0.001   0.000   0.001   0.003   0.000  -0.003
 13.695  18.213  -0.001   0.000   0.001   0.004   0.000  -0.004
 -0.001  -0.001  -4.415  -0.000  -0.001   8.635   0.000   0.001
  0.000   0.000  -0.000  -4.410   0.000   0.000   8.631  -0.000
  0.001   0.001  -0.001   0.000  -4.416   0.001  -0.000   8.637
  0.003   0.004   8.635   0.000   0.001 -19.030   0.000  -0.002
  0.000   0.000   0.000   8.631  -0.000   0.000 -19.032   0.000
 -0.003  -0.004   0.001  -0.000   8.637  -0.002   0.000 -19.034
 total augmentation occupancy for first ion, spin component:           1
  7.810  -3.383  -0.180  -0.000   0.133  -0.037  -0.000   0.026
 -3.383   1.510   0.118   0.000  -0.089   0.023   0.000  -0.016
 -0.180   0.118   1.781   0.000   0.039   0.155   0.000   0.009
 -0.000   0.000   0.000   1.121  -0.000   0.000   0.064  -0.000
  0.133  -0.089   0.039  -0.000   1.829   0.009  -0.000   0.166
 -0.037   0.023   0.155   0.000   0.009   0.014   0.000   0.001
 -0.000   0.000   0.000   0.064  -0.000   0.000   0.004  -0.000
  0.026  -0.016   0.009  -0.000   0.166   0.001  -0.000   0.016
 total augmentation occupancy for first ion, spin component:           2
 -0.000   0.000  -0.000  -0.000  -0.000   0.000  -0.000  -0.000
  0.000  -0.000   0.000   0.000  -0.000  -0.000   0.000   0.000
 -0.000   0.000  -0.000  -0.000  -0.000  -0.000  -0.000   0.000
 -0.000   0.000  -0.000  -0.000  -0.000  -0.000   0.000   0.000
 -0.000  -0.000  -0.000  -0.000   0.000   0.000   0.000   0.000
  0.000  -0.000  -0.000  -0.000   0.000  -0.000  -0.000   0.000
 -0.000   0.000  -0.000   0.000   0.000  -0.000   0.000   0.000
 -0.000   0.000   0.000   0.000   0.000   0.000   0.000   0.000


------------------------ aborting loop because EDIFF is reached ----------------------------------------


    CHARGE:  cpu time      2.6657: real time      2.6824
    FORLOC:  cpu time      0.6006: real time      0.6017
    FORNL :  cpu time      9.9255: real time      9.9479
    STRESS:  cpu time     29.6107: real time     29.6950
    FORCOR:  cpu time      8.2208: real time      8.2310
    FORHAR:  cpu time      1.4348: real time      1.4381
    MIXING:  cpu time      0.2068: real time      0.2072
    OFIELD:  cpu time      0.0001: real time      0.0001

 ---------------------------------------------------------------------------------------------

         DFTD3 V3.0 Rev 1        
 Edisp (eV)   -0.20666

 E6    (eV) :    -0.0819
 E8    (eV) :    -0.1247
 % E8        : 60.35
    FORVDW:  cpu time      0.0054: real time      0.0054

  FORCE on cell =-STRESS in cart. coord.  units (eV):
  Direction    XX          YY          ZZ          XY          YZ          ZX
  --------------------------------------------------------------------------------------
  Alpha Z     0.19068     0.19068     0.19068
  Ewald    3542.53916  1981.32886  -357.72973    22.52078    -0.00891    -0.41772
  Hartree  3710.39339  2327.11751   844.62706   -18.96899    -0.02358    -0.25825
  E(xc)    -194.99097  -195.29756  -199.80541     0.25064     0.00009    -0.00075
  Local   -7841.46643 -4899.18839 -1146.57631    11.22318     0.03958     0.64781
  n-local    10.27797     8.53070    17.49372    -0.59866     0.00124     0.00165
  augment   -13.45263   -16.03231   -15.98705    -0.82090    -0.00039     0.00013
  Kinetic   786.40357   793.21341   857.58080   -13.64215    -0.00956     0.02875
  Fock        0.00000     0.00000     0.00000     0.00000     0.00000     0.00000
  vdW        -0.01895     0.01780     0.00340     0.01400     0.00001    -0.00001
  -------------------------------------------------------------------------------------
  Total      -0.12421    -0.11930    -0.20286    -0.02210    -0.00154     0.00162
  in kB      -0.00311    -0.00299    -0.00508    -0.00055    -0.00004     0.00004
  external pressure =       -0.00 kB  Pullay stress =        0.00 kB


 VOLUME and BASIS-vectors are now :
 -----------------------------------------------------------------------------
  energy-cutoff  :      500.00
  volume of cell :    64000.00
      direct lattice vectors                 reciprocal lattice vectors
    40.000000000  0.000000000  0.000000000     0.025000000  0.000000000  0.000000000
     0.000000000 40.000000000  0.000000000     0.000000000  0.025000000  0.000000000
     0.000000000  0.000000000 40.000000000     0.000000000  0.000000000  0.025000000

  length of vectors
    40.000000000 40.000000000 40.000000000     0.025000000  0.025000000  0.025000000


 FORCES acting on ions
    electron-ion (+dipol)            ewald-force                    non-local-force                 convergence-correction
 -----------------------------------------------------------------------------------------------
   0.294E+02 -.182E+03 -.863E-01   -.303E+02 0.183E+03 0.861E-01   0.892E+00 -.969E+00 0.763E-04   -.458E-02 -.451E-02 0.498E-04
   -.931E+02 -.183E+03 -.502E-01   0.933E+02 0.185E+03 0.509E-01   -.245E+00 -.220E+01 -.108E-02   -.750E-03 -.189E-02 -.686E-04
   -.134E+03 -.524E+00 0.140E-01   0.128E+03 0.412E+00 -.120E-01   0.552E+01 0.113E+00 -.233E-02   -.241E-02 0.944E-03 -.568E-04
   -.974E+02 0.182E+03 0.191E-01   0.976E+02 -.184E+03 -.188E-01   -.179E+00 0.224E+01 -.299E-03   0.400E-03 0.110E-02 -.114E-04
   0.222E+02 0.186E+03 0.204E-01   -.234E+02 -.187E+03 -.199E-01   0.117E+01 0.166E+01 0.118E-03   -.733E-02 0.556E-02 0.671E-04
   0.431E+02 -.529E+01 -.129E-01   -.439E+02 0.504E+01 0.129E-01   0.756E+00 0.249E+00 0.306E-03   0.432E-02 -.106E-02 0.241E-03
   0.599E+02 -.746E+02 0.544E-01   -.580E+02 0.797E+02 -.568E-01   -.194E+01 -.509E+01 0.333E-02   0.976E-03 0.643E-03 0.123E-03
   0.147E+03 -.138E+03 0.103E+00   -.149E+03 0.138E+03 -.105E+00   0.122E+01 0.132E+00 0.254E-02   -.106E-02 0.504E-03 0.122E-05
   -.354E+03 -.291E+01 0.134E+00   0.361E+03 0.298E+01 -.136E+00   -.670E+01 -.567E-01 0.336E-02   0.368E-02 -.266E-02 -.130E-03
   0.267E+03 0.301E+03 -.171E+00   -.292E+03 -.347E+03 0.196E+00   0.252E+02 0.454E+02 -.252E-01   -.276E-02 -.855E-02 -.185E-03
   0.156E+02 -.561E+02 -.558E+02   -.144E+02 0.592E+02 0.602E+02   -.114E+01 -.307E+01 -.442E+01   -.328E-04 -.139E-03 -.234E-03
   0.155E+02 -.561E+02 0.558E+02   -.144E+02 0.592E+02 -.603E+02   -.115E+01 -.307E+01 0.442E+01   -.345E-04 -.138E-03 0.223E-03
   0.848E+02 -.877E+01 0.478E-01   -.904E+02 0.759E+01 -.507E-01   0.557E+01 0.118E+01 0.264E-02   0.353E-03 -.328E-04 -.508E-05
   0.231E+02 0.854E+02 -.302E-02   -.261E+02 -.905E+02 0.320E-02   0.305E+01 0.506E+01 -.685E-03   -.954E-03 0.112E-02 -.327E-06
   -.418E+02 0.793E+02 0.146E-01   0.449E+02 -.844E+02 -.159E-01   -.302E+01 0.503E+01 0.119E-02   0.573E-03 -.696E-04 0.480E-06
   -.404E+02 -.799E+02 -.334E-01   0.433E+02 0.850E+02 0.351E-01   -.293E+01 -.510E+01 -.223E-02   0.161E-03 0.558E-04 -.172E-04
   0.235E+02 -.836E+02 -.482E-01   -.264E+02 0.887E+02 0.507E-01   0.284E+01 -.512E+01 -.275E-02   -.584E-03 -.815E-03 -.651E-05
 -----------------------------------------------------------------------------------------------
   -.289E+02 -.364E+02 0.208E-01   0.110E-12 -.284E-13 0.355E-14   0.289E+02 0.364E+02 -.214E-01   -.100E-01 -.995E-02 -.950E-05
 
 
 POSITION                                       TOTAL-FORCE (eV/Angst)
 -----------------------------------------------------------------------------------
     20.38622     20.92769     20.00061        -0.004319      0.010318      0.000049
     21.77998     20.95097     20.00040        -0.005621      0.005855     -0.000425
     22.47909     19.74132     19.99988         0.008937      0.000606     -0.000368
     21.80324     18.51486     19.99988         0.000844     -0.001085      0.000033
     20.41332     18.50934     20.00005        -0.000959     -0.011719      0.000781
     19.68321     19.71109     20.00026        -0.008406     -0.001386      0.000568
     18.18784     19.64753     20.00014         0.005275     -0.007865      0.001020
     17.40617     20.94276     19.99938        -0.002240      0.002157      0.000610
     24.21133     19.75766     19.99913         0.003568      0.008962      0.000554
     17.60628     18.55862     20.00073         0.006896      0.008288     -0.000385
     17.65027     21.55009     20.88379         0.002310     -0.007303     -0.006257
     17.65136     21.54996     19.11523         0.002419     -0.006851      0.005200
     16.33556     20.71676     19.99885        -0.000760     -0.004706     -0.000213
     19.86512     17.56691     20.00014        -0.012402      0.002766     -0.000465
     22.36660     17.58261     19.99966         0.009195     -0.003020     -0.000016
     22.32310     21.89485     20.00079         0.001769      0.005200     -0.000437
     19.85127     21.87705     20.00111        -0.006509     -0.000218     -0.000247
 -----------------------------------------------------------------------------------
    total drift:                               -0.005667      0.023257     -0.000618


--------------------------------------------------------------------------------------------------------



  FREE ENERGIE OF THE ION-ELECTRON SYSTEM (eV)
  ---------------------------------------------------
  free  energy   TOTEN  =      -106.71872052 eV

  energy  without entropy=     -106.71872052  energy(sigma->0) =     -106.71872052
 
 d Force = 0.1046974E-04[-0.810E-05, 0.290E-04]  d Energy = 0.1066099E-04-0.191E-06
 d Force =-0.7754234E-02[-0.781E-02,-0.770E-02]  d Ewald  =-0.7754228E-02-0.507E-08


--------------------------------------------------------------------------------------------------------


    --------------------------------------------
      INIT:  cpu time      0.5622: real time      0.5635
  FINALIZE:  cpu time     92.6246: real time     92.6349
    --------------------------------------------
    POTLOK:  cpu time    102.0940: real time    102.1179


--------------------------------------------------------------------------------------------------------




--------------------------------------------------------------------------------------------------------


  
 reached required accuracy - stopping structural energy minimisation
 writing wavefunctions
     LOOP+:  cpu time    466.4896: real time    468.3591
    4ORBIT:  cpu time      0.0000: real time      0.0000

 total amount of memory used by VASP MPI-rank0   703994. kBytes
=======================================================================

   base      :      30000. kBytes
   nonlr-proj:       1082. kBytes
   fftplans  :     167689. kBytes
   grid      :     474012. kBytes
   one-center:         12. kBytes
   wavefun   :      31199. kBytes
 
  
  
 General timing and accounting informations for this job:
 ========================================================
  
                  Total CPU time used (sec):    14161.025
                            User time (sec):    13458.298
                          System time (sec):      702.727
                         Elapsed time (sec):    14176.671
  
                   Maximum memory used (kb):     2338248.
                   Average memory used (kb):          N/A
  
                          Minor page faults:    129782806
                          Major page faults:            0
                 Voluntary context switches:       407744
