
                                 *****************
                                 * O   R   C   A *
                                 *****************

                                            #,                                       
                                            ###                                      
                                            ####                                     
                                            #####                                    
                                            ######                                   
                                           ########,                                 
                                     ,,################,,,,,                         
                               ,,#################################,,                 
                          ,,##########################################,,             
                       ,#########################################, ''#####,          
                    ,#############################################,,   '####,        
                  ,##################################################,,,,####,       
                ,###########''''           ''''###############################       
              ,#####''   ,,,,##########,,,,          '''####'''          '####       
            ,##' ,,,,###########################,,,                        '##       
           ' ,,###''''                  '''############,,,                           
         ,,##''                                '''############,,,,        ,,,,,,###''
      ,#''                                            '''#######################'''  
     '                                                          ''''####''''         
             ,#######,   #######,   ,#######,      ##                                
            ,#'     '#,  ##    ##  ,#'     '#,    #''#        ,####,   ,####,        
            ##       ##  ##   ,#'  ##            #'  '#       #'       #'  '#        
            ##       ##  #######   ##           ,######,      #####,   #    #        
            '#,     ,#'  ##    ##  '#,     ,#' ,#      #,     #,   #   #,  ,#        
             '#######'   ##     ##  '#######'  #'      '#     '####' # '####'        



                #########################################################
                #                        -***-                          #
                #          Department of theory and spectroscopy        #
                #                                                       #
                #                      Frank Neese                      #
                #                                                       #
                #     Directorship, Architecture, Infrastructure        #
                #                    SHARK, DRIVERS                     #
                #        Core code/Algorithms in most modules           #
                #                                                       #
                #        Max Planck Institute fuer Kohlenforschung      #
                #                Kaiser Wilhelm Platz 1                 #
                #                 D-45470 Muelheim/Ruhr                 #
                #                      Germany                          #
                #                                                       #
                #                  All rights reserved                  #
                #                        -***-                          #
                #########################################################


                         Program Version 6.0.0  -   RELEASE  -


 With contributions from (in alphabetic order):
   Daniel Aravena         : Magnetic Suceptibility
   Michael Atanasov       : Ab Initio Ligand Field Theory (pilot matlab implementation)
   Alexander A. Auer      : GIAO ZORA, VPT2 properties, NMR spectrum
   Ute Becker             : All parallelization in ORCA, NUMFREQ, NUMCALC
   Giovanni Bistoni       : ED, misc. LED, open-shell LED, HFLD
   Martin Brehm           : Molecular dynamics
   Dmytro Bykov           : pre 5.0 version of the SCF Hessian
   Marcos Casanova-Páez   : Triplet and SCS-CIS(D). UHF-(DLPNO)-IP/EA/STEOM-CCSD. UHF-CVS-IP/STEOM-CCSD
   Vijay G. Chilkuri      : MRCI spin determinant printing, contributions to CSF-ICE
   Pauline Colinet        : FMM embedding
   Dipayan Datta          : RHF DLPNO-CCSD density
   Achintya Kumar Dutta   : EOM-CC, STEOM-CC
   Nicolas Foglia         : Exact transition moments, OPA infrastructure, MCD improvements
   Dmitry Ganyushin       : Spin-Orbit,Spin-Spin,Magnetic field MRCI
   Miquel Garcia          : C-PCM and meta-GGA Hessian, CCSD/C-PCM, Gaussian charge scheme
   Tiago L. C. Gouveia    : GS-ROHF, GS-ROCIS
   Yang Guo               : DLPNO-NEVPT2, F12-NEVPT2, CIM, IAO-localization
   Andreas Hansen         : Spin unrestricted coupled pair/coupled cluster methods
   Ingolf Harden          : AUTO-CI MPn and infrastructure 
   Benjamin Helmich-Paris : MC-RPA, TRAH-(SCF,CASSCF), AVAS, COSX integrals, SCF dyn. polar.
   Lee Huntington         : MR-EOM, pCC
   Robert Izsak           : Overlap fitted RIJCOSX, COSX-SCS-MP3, EOM
   Riya Kayal             : Wick's Theorem for AUTO-CI, AUTO-CI UHF-CCSDT
   Emily Kempfer          : AUTO-CI, RHF CISDT and CCSDT
   Christian Kollmar      : KDIIS, OOCD, Brueckner-CCSD(T), CCSD density, CASPT2, CASPT2-K, improved NEVPT2
   Axel Koslowski         : Symmetry handling
   Simone Kossmann        : Meta GGA functionals, TD-DFT gradient, OOMP2, (MP2 Hessian; deprecated post 5.0)
   Lucas Lang             : DCDCAS
   Marvin Lechner         : AUTO-CI (C++ implementation), FIC-MRCC
   Spencer Leger          : CASSCF response
   Dagmar Lenk            : GEPOL surface, SMD, ORCA-2-JSON
   Dimitrios Liakos       : Extrapolation schemes; Compound Job, initial MDCI parallelization
   Dimitrios Manganas     : Further ROCIS development; embedding schemes. LFT, Crystal Embedding
   Dimitrios Pantazis     : SARC Basis sets
   Anastasios Papadopoulos: AUTO-CI, single reference methods and gradients
   Taras Petrenko         : pre 6.0 DFT Hessian and TD-DFT gradient, (ASA, deprecated), ECA, 1-Electron XAS/XES, NRVS
   Peter Pinski           : DLPNO-MP2, DLPNO-MP2 Gradient
   Christoph Reimann      : Effective Core Potentials
   Marius Retegan         : Local ZFS, SOC
   Christoph Riplinger    : Optimizer, TS searches, QM/MM, DLPNO-CCSD(T), (RO)-DLPNO pert. Triples
   Michael Roemelt        : Original ROCIS implementation
   Masaaki Saitow         : Open-shell DLPNO-CCSD energy and density
   Barbara Sandhoefer     : DKH picture change effects
   Kantharuban Sivalingam : CASSCF convergence/infrastructure, NEVPT2 and variants, FIC-MRCI
   Bernardo de Souza      : ESD, SOC TD-DFT
   Georgi Stoychev        : AutoAux, RI-MP2 NMR, DLPNO-MP2 response, X2C
   Van Anh Tran           : RI-MP2 g-tensors
   Willem Van den Heuvel  : Paramagnetic NMR
   Zikuan Wang            : NOTCH, Electric field optimization 
   Frank Wennmohs         : Technical directorship and infrastructure
   Hang Xu                : AUTO-CI-Response properties 


 We gratefully acknowledge several colleagues who have allowed us to
 interface, adapt or use parts of their codes:
   Stefan Grimme, W. Hujo, H. Kruse, P. Pracht,  : VdW corrections, initial TS optimization,
                  C. Bannwarth, S. Ehlert,         DFT functionals, gCP, sTDA/sTD-DF
                  L. Wittmann, M. Mueller
   Ed Valeev, F. Pavosevic, A. Kumar             : LibInt (2-el integral package), F12 methods
   Garnet Chan, S. Sharma, J. Yang, R. Olivares  : DMRG
   Ulf Ekstrom                                   : XCFun DFT Library
   Mihaly Kallay                                 : mrcc  (arbitrary order and MRCC methods)
   Frank Weinhold                                : gennbo (NPA and NBO analysis)
   Simon Mueller                                 : openCOSMO-RS
   Christopher J. Cramer and Donald G. Truhlar   : smd solvation model
   Lars Goerigk                                  : TD-DFT with DH, B97 family of functionals
   V. Asgeirsson, H. Jonsson                     : NEB implementation
   FAccTs GmbH                                   : IRC, NEB, NEB-TS, DLPNO-Multilevel, CI-OPT
                                                   MM, QMMM, 2- and 3-layer-ONIOM, Crystal-QMMM,
                                                   LR-CPCM, SF, NACMEs, symmetry and pop. for TD-DFT,
                                                   nearIR, NL-DFT gradient (VV10), updates on ESD,
                                                   ML-optimized integration grids, MBIS, APM,
                                                   GOAT, DOCKER, SOLVATOR, interface openCOSMO-RS
   S Lehtola, MJT Oliveira, MAL Marques          : LibXC Library
   Liviu Ungur et al                             : ANISO software


 Your calculation uses the libint2 library for the computation of 2-el integrals
 For citations please refer to: http://libint.valeyev.net

 Your ORCA version has been built with support for libXC version: 6.2.2
 For citations please refer to: https://libxc.gitlab.io

 This ORCA versions uses:
   CBLAS   interface :  Fast vector & matrix operations
   LAPACKE interface :  Fast linear algebra routines
   SCALAPACK package :  Parallel linear algebra routines
   Shared memory     :  Shared parallel matrices
   BLAS/LAPACK       :  OpenBLAS 0.3.27  USE64BITINT DYNAMIC_ARCH NO_AFFINITY Sandybridge SINGLE_THREADED
        Core in use  :  Sandybridge
   Copyright (c) 2011-2014, The OpenBLAS Project


NOTE: MaxCore=3000 MB was set to SCF,MP2,MDCI,CIPSI,MRCI and CIS
      => If you want to overwrite this, your respective input block should be placed after the MaxCore statement
Your calculation utilizes the atom-pairwise dispersion correction
with the Becke-Johnson damping scheme (D3BJ)


Your calculation utilizes the SMD solvation module
Please cite in your paper:
A.V. Marenich, C.J. Cramer, D.G. Truhlar J. Phys. Chem. B, 113, (2009), 6378 

Warning: RI is on but no J-basis has been assigned. Assigning Def2/J (nothing to worry about!)
================================================================================

----- Orbital basis set information -----
Your calculation utilizes the basis: aug-cc-pVTZ 
    H, B-Ne : Obtained from the ccRepo (grant-hill.group.shef.ac.uk/ccrepo) Feb. 2017
              R. A. Kendall, T. H. Dunning, Jr., R. J. Harrison, J. Chem. Phys. 96, 6796 (1992)
         He : Obtained from the ccRepo (grant-hill.group.shef.ac.uk/ccrepo) Feb. 2017
              D. E. Woon, T. H. Dunning, Jr., J. Chem. Phys. 100, 2975 (1994)
  Li-Be, Na : Obtained from the ccRepo (grant-hill.group.shef.ac.uk/ccrepo) Feb. 2017
              B. P. Prascher, D. E. Woon, K. A. Peterson, T. H. Dunning, Jr., A. K. Wilson, Theor. Chem. Acc. 128, 69 (2011)
         Mg : Obtained from the Peterson Research Group Website (tyr0.chem.wsu.edu/~kipeters) Feb. 2017
              B. P. Prascher, D. E. Woon, K. A. Peterson, T. H. Dunning, Jr., A. K. Wilson, Theor. Chem. Acc. 128, 69 (2011)
      Al-Ar : Obtained from the ccRepo (grant-hill.group.shef.ac.uk/ccrepo) Feb. 2017
              D. E. Woon, T. H. Dunning, Jr., J. Chem. Phys. 98, 1358 (1993)
      Sc-Zn : Obtained from the ccRepo (grant-hill.group.shef.ac.uk/ccrepo) Feb. 2017
              N. B. Balabanov, K. A. Peterson, J. Chem. Phys. 123, 064107 (2005)
              N. B. Balabanov, K. A. Peterson, J. Chem. Phys. 125, 074110 (2006)
      Ga-Kr : Obtained from the ccRepo (grant-hill.group.shef.ac.uk/ccrepo) Feb. 2017
              A. K. Wilson, D. E. Woon, K. A. Peterson, T. H. Dunning, Jr., J. Chem. Phys. 110, 7667 (1999)
     Ag, Au : Obtained from the Peterson Research Group Website (tyr0.chem.wsu.edu/~kipeters) Feb. 2017
              K. A. Peterson, C. Puzzarini, Theor. Chem. Acc. 114, 283 (2005)

----- AuxJ basis set information -----
Your calculation utilizes the auxiliary basis: def2/J
   F. Weigend, Phys. Chem. Chem. Phys. 8, 1057 (2006).

================================================================================
                                        WARNINGS
                       Please study these warnings very carefully!
================================================================================

Using LibXC functional ID 497 : Re-regularized SCAN exchange by Furness et al
[ 1]  J. W. Furness, A. D. Kaplan, J. Ning, J. P. Perdew, and J. Sun.,  J. Phys. Chem. Lett. 11, 8208-8215 (2020)
[ 2]  J. W. Furness, A. D. Kaplan, J. Ning, J. P. Perdew, and J. Sun.,  J. Phys. Chem. Lett. 11, 9248-9248 (2020)
Using LibXC functional ID 498 : Re-regularized SCAN correlation by Furness et al
[ 1]  J. W. Furness, A. D. Kaplan, J. Ning, J. P. Perdew, and J. Sun.,  J. Phys. Chem. Lett. 11, 8208-8215 (2020)
[ 2]  J. W. Furness, A. D. Kaplan, J. Ning, J. P. Perdew, and J. Sun.,  J. Phys. Chem. Lett. 11, 9248-9248 (2020)
Using LibXC functional ID 497 : Re-regularized SCAN exchange by Furness et al
[ 1]  J. W. Furness, A. D. Kaplan, J. Ning, J. P. Perdew, and J. Sun.,  J. Phys. Chem. Lett. 11, 8208-8215 (2020)
[ 2]  J. W. Furness, A. D. Kaplan, J. Ning, J. P. Perdew, and J. Sun.,  J. Phys. Chem. Lett. 11, 9248-9248 (2020)
Using LibXC functional ID 498 : Re-regularized SCAN correlation by Furness et al
[ 1]  J. W. Furness, A. D. Kaplan, J. Ning, J. P. Perdew, and J. Sun.,  J. Phys. Chem. Lett. 11, 8208-8215 (2020)
[ 2]  J. W. Furness, A. D. Kaplan, J. Ning, J. P. Perdew, and J. Sun.,  J. Phys. Chem. Lett. 11, 9248-9248 (2020)

WARNING: your system is open-shell and RHF/RKS was chosen
  ===> : WILL SWITCH to UHF/UKS


================================================================================
                                       INPUT FILE
================================================================================
NAME = cs_rporg_060_ox_solv_04.inp
|  1> !r2SCANh aug-cc-pVTZ d3 TightSCF SlowConv RIJCOSX defgrid2
|  2>  
|  3> %pal
|  4> nprocs 4
|  5> end
|  6>  
|  7> %scf
|  8> MaxIter 1500
|  9> end
| 10>  
| 11> %maxcore 3000
| 12>  
| 13> !CPCM
| 14> %cpcm smd true
| 15> SMDsolvent "MeCN"
| 16> surfacetype gepol_ses
| 17> rsolv 2.19
| 18> end 
| 19>  
| 20> * xyz 1 2
| 21> C           0.00952428511137      1.14381862948455     -0.00004241850549
| 22> C          -1.34405804782715      1.36835429039483     -0.00004501377751
| 23> C          -2.25803675623572      0.27994374569514     -0.00001444991813
| 24> C          -1.79893876317452     -1.05503699905501      0.00001836451112
| 25> C          -0.44966853213070     -1.30717096682290      0.00001901616088
| 26> C           0.47768132323041     -0.20754569072665     -0.00000570718377
| 27> O           1.72715481916077     -0.54575427099223      0.00000126933750
| 28> C           2.80134500679620      0.40109022692015     -0.00002708967268
| 29> H           2.75083060085294      1.02148240859275     -0.90936313619747
| 30> H           2.75076150937771      1.02163468660922      0.90919997962481
| 31> H           3.71874480964519     -0.20034761824646      0.00005825478275
| 32> H          -0.03837787308311     -2.31994207676691      0.00003911986652
| 33> H          -2.51564718597583     -1.88032469418672      0.00003900521605
| 34> H          -3.33291112256179      0.48384956913135     -0.00002166925602
| 35> H          -1.72762364845365      2.39229306604659     -0.00007349223884
| 36> H           0.71284737526787      1.97878939392230     -0.00006603274972
| 37> *
| 38> 
| 39>                          ****END OF INPUT****
================================================================================

                       ****************************
                       * Single Point Calculation *
                       ****************************

---------------------------------
CARTESIAN COORDINATES (ANGSTROEM)
---------------------------------
  C      0.009524    1.143819   -0.000042
  C     -1.344058    1.368354   -0.000045
  C     -2.258037    0.279944   -0.000014
  C     -1.798939   -1.055037    0.000018
  C     -0.449669   -1.307171    0.000019
  C      0.477681   -0.207546   -0.000006
  O      1.727155   -0.545754    0.000001
  C      2.801345    0.401090   -0.000027
  H      2.750831    1.021482   -0.909363
  H      2.750762    1.021635    0.909200
  H      3.718745   -0.200348    0.000058
  H     -0.038378   -2.319942    0.000039
  H     -2.515647   -1.880325    0.000039
  H     -3.332911    0.483850   -0.000022
  H     -1.727624    2.392293   -0.000073
  H      0.712847    1.978789   -0.000066

----------------------------
CARTESIAN COORDINATES (A.U.)
----------------------------
  NO LB      ZA    FRAG     MASS         X           Y           Z
   0 C     6.0000    0    12.011    0.017998    2.161504   -0.000080
   1 C     6.0000    0    12.011   -2.539902    2.585815   -0.000085
   2 C     6.0000    0    12.011   -4.267071    0.529017   -0.000027
   3 C     6.0000    0    12.011   -3.399502   -1.993731    0.000035
   4 C     6.0000    0    12.011   -0.849750   -2.470195    0.000036
   5 C     6.0000    0    12.011    0.902687   -0.392205   -0.000011
   6 O     8.0000    0    15.999    3.263850   -1.031326    0.000002
   7 C     6.0000    0    12.011    5.293775    0.757951   -0.000051
   8 H     1.0000    0     1.008    5.198316    1.930322   -1.718447
   9 H     1.0000    0     1.008    5.198186    1.930610    1.718139
  10 H     1.0000    0     1.008    7.027409   -0.378602    0.000110
  11 H     1.0000    0     1.008   -0.072524   -4.384055    0.000074
  12 H     1.0000    0     1.008   -4.753884   -3.553299    0.000074
  13 H     1.0000    0     1.008   -6.298289    0.914343   -0.000041
  14 H     1.0000    0     1.008   -3.264736    4.520779   -0.000139
  15 H     1.0000    0     1.008    1.347086    3.739370   -0.000125

--------------------------------
INTERNAL COORDINATES (ANGSTROEM)
--------------------------------
 C      0   0   0     0.000000000000     0.00000000     0.00000000
 C      1   0   0     1.372079223321     0.00000000     0.00000000
 C      2   1   0     1.421265138590   120.60282324     0.00000000
 C      3   2   1     1.411716882793   121.00055236     0.00000000
 C      4   3   2     1.372625839070   119.56263141     0.00000000
 C      1   2   3     1.430159620332   118.52637088     0.00000000
 O      6   1   2     1.294437739270   124.25369724   180.00004815
 C      7   6   1     1.431921458476   123.45951937     0.00000000
 H      8   7   6     1.101966519363   109.74883769   298.74770249
 H      8   7   6     1.101965507720   109.74956619    61.24428829
 H      8   7   6     1.096973056711   105.35701345   179.99618575
 H      5   4   3     1.093098956070   122.68689060   180.00028112
 H      4   3   2     1.093055690931   120.04979862   180.00015771
 H      3   2   1     1.094044097954   119.27993912   180.00026966
 H      2   1   3     1.093422693691   119.95446146   180.00016429
 H      1   2   3     1.091714040933   120.68992438   179.99999004

---------------------------
INTERNAL COORDINATES (A.U.)
---------------------------
 C      0   0   0     0.000000000000     0.00000000     0.00000000
 C      1   0   0     2.592853966121     0.00000000     0.00000000
 C      2   1   0     2.685801875625   120.60282324     0.00000000
 C      3   2   1     2.667758287112   121.00055236     0.00000000
 C      4   3   2     2.593886920187   119.56263141     0.00000000
 C      1   2   3     2.702610010220   118.52637088     0.00000000
 O      6   1   2     2.446132824632   124.25369724   180.00004815
 C      7   6   1     2.705939401804   123.45951937     0.00000000
 H      8   7   6     2.082414930347   109.74883769   298.74770249
 H      8   7   6     2.082413018619   109.74956619    61.24428829
 H      8   7   6     2.072978653474   105.35701345   179.99618575
 H      5   4   3     2.065657664247   122.68689060   180.00028112
 H      4   3   2     2.065575904983   120.04979862   180.00015771
 H      3   2   1     2.067443723566   119.27993912   180.00026966
 H      2   1   3     2.066269439690   119.95446146   180.00016429
 H      1   2   3     2.063040553920   120.68992438   179.99999004

---------------------
BASIS SET INFORMATION
---------------------
There are 3 groups of distinct atoms

 Group   1 Type C   : 19s6p3d2f contracted to 5s4p3d2f pattern {88111/3111/111/11}
 Group   2 Type O   : 19s6p3d2f contracted to 5s4p3d2f pattern {88111/3111/111/11}
 Group   3 Type H   : 6s3p2d contracted to 4s3p2d pattern {3111/111/11}

Atom   0C    basis set group =>   1
Atom   1C    basis set group =>   1
Atom   2C    basis set group =>   1
Atom   3C    basis set group =>   1
Atom   4C    basis set group =>   1
Atom   5C    basis set group =>   1
Atom   6O    basis set group =>   2
Atom   7C    basis set group =>   1
Atom   8H    basis set group =>   3
Atom   9H    basis set group =>   3
Atom  10H    basis set group =>   3
Atom  11H    basis set group =>   3
Atom  12H    basis set group =>   3
Atom  13H    basis set group =>   3
Atom  14H    basis set group =>   3
Atom  15H    basis set group =>   3
---------------------------------
AUXILIARY/J BASIS SET INFORMATION
---------------------------------
There are 3 groups of distinct atoms

 Group   1 Type C   : 12s5p4d2f1g contracted to 6s4p3d1f1g pattern {711111/2111/211/2/1}
 Group   2 Type O   : 12s5p4d2f1g contracted to 6s4p3d1f1g pattern {711111/2111/211/2/1}
 Group   3 Type H   : 5s2p1d contracted to 3s1p1d pattern {311/2/1}

Atom   0C    basis set group =>   1
Atom   1C    basis set group =>   1
Atom   2C    basis set group =>   1
Atom   3C    basis set group =>   1
Atom   4C    basis set group =>   1
Atom   5C    basis set group =>   1
Atom   6O    basis set group =>   2
Atom   7C    basis set group =>   1
Atom   8H    basis set group =>   3
Atom   9H    basis set group =>   3
Atom  10H    basis set group =>   3
Atom  11H    basis set group =>   3
Atom  12H    basis set group =>   3
Atom  13H    basis set group =>   3
Atom  14H    basis set group =>   3
Atom  15H    basis set group =>   3


           ************************************************************
           *        Program running with 4 parallel MPI-processes     *
           *              working on a common directory               *
           ************************************************************
------------------------------------------------------------------------------
                             ORCA STARTUP CALCULATIONS
                           -- RI-GTO INTEGRALS CHOSEN --
------------------------------------------------------------------------------
------------------------------------------------------------------------------
                   ___                                                        
                  /   \      - P O W E R E D   B Y -                         
                 /     \                                                     
                 |  |  |   _    _      __       _____    __    __             
                 |  |  |  | |  | |    /  \     |  _  \  |  |  /  |          
                  \  \/   | |  | |   /    \    | | | |  |  | /  /          
                 / \  \   | |__| |  /  /\  \   | |_| |  |  |/  /          
                |  |  |   |  __  | /  /__\  \  |    /   |      \           
                |  |  |   | |  | | |   __   |  |    \   |  |\   \          
                \     /   | |  | | |  |  |  |  | |\  \  |  | \   \       
                 \___/    |_|  |_| |__|  |__|  |_| \__\ |__|  \__/        
                                                                              
                      - O R C A' S   B I G   F R I E N D -                    
                                      &                                       
                       - I N T E G R A L  F E E D E R -                       
                                                                              
 v1 FN, 2020, v2 2021, v3 2022-2024                                           
------------------------------------------------------------------------------


----------------------
SHARK INTEGRAL PACKAGE
----------------------

Number of atoms                             ...     16
Number of basis functions                   ...    600
Number of shells                            ...    232
Maximum angular momentum                    ...      3
Integral batch strategy                     ... SHARK/LIBINT Hybrid
RI-J (if used) integral strategy            ... SPLIT-RIJ (Revised 2003 algorithm where possible)
Printlevel                                  ...      1
Contraction scheme used                     ... PARTIAL GENERAL contraction
Prescreening option                         ... SCHWARTZ
   Thresh                                   ... 2.500e-11
   Tcut                                     ... 2.500e-12
   Tpresel                                  ... 2.500e-12 
Coulomb Range Separation                    ... NOT USED
Exchange Range Separation                   ... NOT USED
Multipole approximations                    ... NOT USED
Finite Nucleus Model                        ... NOT USED
CABS basis                                  ... NOT available
Auxiliary Coulomb fitting basis             ... AVAILABLE
   # of basis functions in Aux-J            ...    480
   # of shells in Aux-J                     ...    160
   Maximum angular momentum in Aux-J        ...      4
Auxiliary J/K fitting basis                 ... NOT available
Auxiliary Correlation fitting basis         ... NOT available
Auxiliary 'external' fitting basis          ... NOT available

Checking pre-screening integrals            ... done (  0.0 sec) Dimension = 232
Save PGC pre-screening integrals            ... done (  0.1 sec) Dimension = 232
Calculate PGC overlap integrals             ... done (  0.2 sec) Dimension = 184
Calculating pre-screening integrals (ORCA)  ... done (  0.3 sec) Dimension = 184
Check shell pair data                       ... done (  0.0 sec)
Shell pair information
Shell pair cut-off parameter TPreSel        ...   2.5e-12
Total number of shell pairs                 ...     27028
Shell pairs after pre-screening             ...     23371
Total number of primitive shell pairs       ...     35028
Primitive shell pairs kept                  ...     28228
          la=0 lb=0:   5334 shell pairs
          la=1 lb=0:   5965 shell pairs
          la=1 lb=1:   1519 shell pairs
          la=2 lb=0:   4221 shell pairs
          la=2 lb=1:   2120 shell pairs
          la=2 lb=2:    777 shell pairs
          la=3 lb=0:   1803 shell pairs
          la=3 lb=1:    874 shell pairs
          la=3 lb=2:    622 shell pairs
          la=3 lb=3:    136 shell pairs

Calculating one electron integrals          ... done (  0.1 sec)
Calculating RI/J V-Matrix + Cholesky decomp.... done (  0.1 sec)
Calculating Nuclear repulsion               ... done (  0.0 sec) ENN=    345.060510763876 Eh

Diagonalization of the overlap matrix:
Smallest eigenvalue                        ... 7.202e-07
Time for diagonalization                   ...    0.075 sec
Threshold for overlap eigenvalues          ... 1.000e-07
Number of eigenvalues below threshold      ... 0

IMPORTANT:
Smallest eigenvalue of S below the DiffSThresh (1.000e-06) while
Thresh>1e-12 and/or TCut>1e-13! In order to avoid SCF convergence issues,
Thresh will be set to at least 1e-12 and TCut to at least 1e-13.
This can be turned off by adding %SCF DiffSThresh -1 END to the input.

Time for construction of square roots      ...    0.086 sec
Total time needed                          ...    0.187 sec

-------------------
DFT GRID GENERATION
-------------------

General Integration Accuracy     IntAcc      ... 4.388
Radial Grid Type                 RadialGrid  ... OptM3 with GC (2021)
Angular Grid (max. ang.)         AngularGrid ... 4 (Lebedev-302)
Angular grid pruning method      GridPruning ... 4 (adaptive)
Weight generation scheme         WeightScheme... mBecke (2022)
Basis function cutoff            BFCut       ... 1.0000e-11
Integration weight cutoff        WCut        ... 1.0000e-14
Partially contracted basis set               ... off
Rotationally invariant grid construction     ... off
Angular grids for H and He will be reduced by one unit
Diffuse basis detected: some atoms will have their outermost
                        angular grid increased by 1.

Total number of grid points                  ...    77662
Total number of batches                      ...     1222
Average number of points per batch           ...       63
Average number of grid points per atom       ...     4854

---------------------
SHARK GRID GENERATION
---------------------

General Integration Accuracy     IntAcc      ... 4.388
Radial Grid Type                 RadialGrid  ... OptM3 with GC (2021)
Angular Grid (max. ang.)         AngularGrid ... 4 (Lebedev-302)
Angular grid pruning method      GridPruning ... 4 (adaptive)
Weight generation scheme         WeightScheme... mBecke (2022)
Basis function cutoff            BFCut       ... 1.0000e-11
Integration weight cutoff        WCut        ... 1.0000e-14
Partially contracted basis set               ... off
Rotationally invariant grid construction     ... off
Angular grids for H and He will be reduced by one unit
Diffuse basis detected: some atoms will have their outermost
                        angular grid increased by 1.
Steep s-basis detected: some atoms will have their radial
                        grid points doubled.

Total number of grid points                  ...   128318
Total number of batches                      ...     2014
Average number of points per batch           ...       63
Average number of grid points per atom       ...     8020

--------------------
COSX GRID GENERATION
--------------------

GRIDX 1
-------
General Integration Accuracy     IntAcc      ... 3.816
Radial Grid Type                 RadialGrid  ... OptM3 with GC (2021)
Angular Grid (max. ang.)         AngularGrid ... 1 (Lebedev-50)
Angular grid pruning method      GridPruning ... 4 (adaptive)
Weight generation scheme         WeightScheme... mBecke (2022)
Basis function cutoff            BFCut       ... 1.0000e-11
Integration weight cutoff        WCut        ... 1.0000e-14
Partially contracted basis set               ... on
Rotationally invariant grid construction     ... off
Angular grids for H and He will be reduced by one unit
Diffuse basis detected: some atoms will have their outermost
                        angular grid increased by 1.

Total number of grid points                  ...     9747
Total number of batches                      ...       84
Average number of points per batch           ...      116
Average number of grid points per atom       ...      609
UseSFitting                                  ... on

GRIDX 2
-------
General Integration Accuracy     IntAcc      ... 4.020
Radial Grid Type                 RadialGrid  ... OptM3 with GC (2021)
Angular Grid (max. ang.)         AngularGrid ... 2 (Lebedev-110)
Angular grid pruning method      GridPruning ... 4 (adaptive)
Weight generation scheme         WeightScheme... mBecke (2022)
Basis function cutoff            BFCut       ... 1.0000e-11
Integration weight cutoff        WCut        ... 1.0000e-14
Partially contracted basis set               ... on
Rotationally invariant grid construction     ... off
Angular grids for H and He will be reduced by one unit
Diffuse basis detected: some atoms will have their outermost
                        angular grid increased by 1.

Total number of grid points                  ...    23677
Total number of batches                      ...      196
Average number of points per batch           ...      120
Average number of grid points per atom       ...     1480
UseSFitting                                  ... on

GRIDX 3
-------
General Integration Accuracy     IntAcc      ... 4.338
Radial Grid Type                 RadialGrid  ... OptM3 with GC (2021)
Angular Grid (max. ang.)         AngularGrid ... 3 (Lebedev-194)
Angular grid pruning method      GridPruning ... 4 (adaptive)
Weight generation scheme         WeightScheme... mBecke (2022)
Basis function cutoff            BFCut       ... 1.0000e-11
Integration weight cutoff        WCut        ... 1.0000e-14
Partially contracted basis set               ... on
Rotationally invariant grid construction     ... off
Angular grids for H and He will be reduced by one unit
Diffuse basis detected: some atoms will have their outermost
                        angular grid increased by 1.

Total number of grid points                  ...    52724
Total number of batches                      ...      419
Average number of points per batch           ...      125
Average number of grid points per atom       ...     3295
UseSFitting                                  ... on
Initializing property integral containers    ... done (  0.0 sec)

SHARK setup successfully completed in   7.4 seconds

Maximum memory used throughout the entire STARTUP-calculation: 63.2 MB


           ************************************************************
           *        Program running with 4 parallel MPI-processes     *
           *              working on a common directory               *
           ************************************************************
-------------------------------------------------------------------------------
                                 ORCA GUESS
                   Start orbitals & Density for SCF / CASSCF
-------------------------------------------------------------------------------

------------
SCF SETTINGS
------------
Hamiltonian:
 Density Functional     Method          .... DFT(GTOs)
  Functional kind                       .... Exchange
  Functional name                       .... Re-regularized SCAN exchange by Furness et al
  Functional family                     .... MGGA
  Functional refs                              
    [ 0] J. W. Furness, A. D. Kaplan, J. Ning, J. P. Perdew, and J. Sun.,  J. Phys. Chem. Lett. 11, 8208-8215 (2020), doi: 10.1021/acs.jpclett.0c02405
    [ 1] J. W. Furness, A. D. Kaplan, J. Ning, J. P. Perdew, and J. Sun.,  J. Phys. Chem. Lett. 11, 9248-9248 (2020), doi: 10.1021/acs.jpclett.0c03077
  Functional external parameters        .... 6
    Parameter  0 _c1        =  6.670000e-01 : c1 parameter        
    Parameter  1 _c2        =  8.000000e-01 : c2 parameter        
    Parameter  2 _d         =  1.240000e+00 : d parameter         
    Parameter  3 _k1        =  6.500000e-02 : k1 parameter        
    Parameter  4 _eta       =  1.000000e-03 : eta parameter       
    Parameter  5 _dp2       =  3.610000e-01 : dp2 parameter       
  Functional kind                       .... Correlation
  Functional name                       .... Re-regularized SCAN correlation by Furness et al
  Functional family                     .... MGGA
  Functional refs                              
    [ 0] J. W. Furness, A. D. Kaplan, J. Ning, J. P. Perdew, and J. Sun.,  J. Phys. Chem. Lett. 11, 8208-8215 (2020), doi: 10.1021/acs.jpclett.0c02405
    [ 1] J. W. Furness, A. D. Kaplan, J. Ning, J. P. Perdew, and J. Sun.,  J. Phys. Chem. Lett. 11, 9248-9248 (2020), doi: 10.1021/acs.jpclett.0c03077
  Functional external parameters        .... 1
    Parameter  0 _eta       =  1.000000e-03 : Regularization parameter
 Gradients option       PostSCFGGA      .... off
 Hybrid DFT is turned on
   Fraction HF Exchange ScalHFX         ....  0.100000
   Scaling of DF-GGA-X  ScalDFX         ....  0.900000
   Scaling of DF-GGA-C  ScalDFC         ....  1.000000
   Scaling of DF-LDA-C  ScalLDAC        ....  1.000000
   Perturbative correction              ....  0.000000
   NL short-range parameter             .... 11.900000
 RI-approximation to the Coulomb term is turned on
   Number of AuxJ basis functions       .... 480
   RIJ-COSX (HFX calculated with COS-X)).... on


General Settings:
 Integral files         IntName         .... cs_rporg_060_ox_solv_04
 Hartree-Fock type      HFTyp           .... UHF
 Total Charge           Charge          ....    1
 Multiplicity           Mult            ....    2
 Number of Electrons    NEL             ....   57
 Basis Dimension        Dim             ....  552
 Nuclear Repulsion      ENuc            ....    345.0605107639 Eh

Convergence Acceleration:
 AO-DIIS                CNVDIIS         .... on
   Start iteration      DIISMaxIt       ....     0
   Startup error        DIISStart       ....  0.200000
   # of expansion vecs  DIISMaxEq       ....     5
   Bias factor          DIISBfac        ....   1.050
   Max. coefficient     DIISMaxC        ....  10.000
 MO-DIIS                CNVKDIIS        .... off
 Trust-Rad. Augm. Hess. CNVTRAH         .... auto
   Auto Start mean grad. ratio tolernc. ....  1.125000
   Auto Start start iteration           ....    50
   Auto Start num. interpolation iter.  ....    10
   Max. Number of Micro iterations      ....    24
   Max. Number of Macro iterations      .... Maxiter - #DIIS iter
   Number of Davidson start vectors     ....     2
   Converg. threshold    (grad. norm)   ....   1.000e-05
   Grad. Scal. Fac. for Micro threshold ....   0.100
   Minimum threshold for Micro iter.    ....   1.000e-02
   NR start threshold (gradient norm)   ....   1.000e-04
   Initial trust radius                 ....   0.400
   Minimum AH scaling param. (alpha)    ....   1.000
   Maximum AH scaling param. (alpha)    .... 1000.000
   Quad. conv. algorithm                .... NR
   White noise on init. David. guess    .... on
   Maximum white noise                  ....   0.010
   Pseudo random numbers                .... off
   Inactive MOs                         .... canonical
   Orbital update algorithm             .... Taylor
   Preconditioner                       .... Diag
   Full preconditioner red. dimension   ....   250
 SOSCF                  CNVSOSCF        .... on
   Start iteration      SOSCFMaxIt      ....   150
   Startup grad/error   SOSCFStart      ....  0.001000
   Hessian update       SOSCFHessUp     .... L-BFGS
 Level Shifting         CNVShift        .... on
   Level shift para.    LevelShift      ....    0.2500
   Turn off err/grad.   ShiftErr        ....    0.0000
 Zerner damping         CNVZerner       .... off
 Static damping         CNVDamp         .... on
   Fraction old density DampFac         ....    0.8500
   Max. Damping (<1)    DampMax         ....    0.9800
   Min. Damping (>=0)   DampMin         ....    0.0000
   Turn off err/grad.   DampErr         ....    0.0300

SCF Procedure:
 Maximum # iterations   MaxIter         ....  1500
 SCF integral mode      SCFMode         .... Direct
   Integral package                     .... SHARK and LIBINT hybrid scheme
 Reset frequency        DirectResetFreq ....    20
 Integral Threshold     Thresh          ....  1.000e-12 Eh
 Primitive CutOff       TCut            ....  1.000e-13 Eh

Convergence Tolerance:
 Convergence Check Mode ConvCheckMode   .... Total+1el-Energy
 Convergence forced     ConvForced      .... 0
 Energy Change          TolE            ....  1.000e-08 Eh
 1-El. energy change                    ....  1.000e-05 Eh
 Orbital Gradient       TolG            ....  1.000e-05
 Orbital Rotation angle TolX            ....  1.000e-05
 DIIS Error             TolErr          ....  5.000e-07

------------------------------
INITIAL GUESS: MODEL POTENTIAL
------------------------------
Loading Hartree-Fock densities                     ... done
Calculating cut-offs                               ... done
Initializing the effective Hamiltonian             ... done
Setting up the integral package (SHARK)            ... done
Starting the Coulomb interaction                   ... done (   0.5 sec)
Making the grid                                    ... done (   0.4 sec)
Mapping shells                                     ... done
Starting the XC term evaluation                    ... done (   0.6 sec)
  promolecular density results
     # of electrons  =     57.996042990
     EX              =    -46.292051114
     EC              =     -1.912268808
     EX+EC           =    -48.204319922
Transforming the Hamiltonian                       ... done (   0.1 sec)
Diagonalizing the Hamiltonian                      ... done (   0.1 sec)
Back transforming the eigenvectors                 ... done (   0.1 sec)
Now organizing SCF variables                       ... done
                      ------------------
                      INITIAL GUESS DONE (   1.9 sec)
                      ------------------
             **** ENERGY FILE WAS UPDATED (cs_rporg_060_ox_solv_04.en.tmp) ****
Finished Guess after   2.7 sec
Maximum memory used throughout the entire GUESS-calculation: 43.7 MB


           ************************************************************
           *        Program running with 4 parallel MPI-processes     *
           *              working on a common directory               *
           ************************************************************

-------------------------------------------------------------------------------------------
                                      ORCA LEAN-SCF
                              memory conserving SCF solver
-------------------------------------------------------------------------------------------

--------------------
CPCM SOLVATION MODEL
--------------------
CPCM parameters:
  Epsilon                                         ...      35.6880
  Refrac                                          ...       1.3442
  Rsolv                                           ...       2.1900
  Surface type                                    ...    GEPOL SES
  Discretization scheme                           ... Constant num. charges
  Epsilon function type                           ...         CPCM
Solvent:                                          ... ACETONITRILE
SMD-CDS solvent descriptors:
  Soln                                            ...       1.3442
  Soln25                                          ...       1.3416
  Sola                                            ...       0.0700
  Solb                                            ...       0.3200
  Solg                                            ...      41.2500
  Solc                                            ...       0.0000
  Solh                                            ...       0.0000
Radii:
  Scheme                                          ... Element-dependent radii
  Radius for C  used is    3.4960 Bohr (=   1.8500 Ang.)
  Radius for O  used is    4.0969 Bohr (=   2.1680 Ang.)
  Radius for H  used is    2.2677 Bohr (=   1.2000 Ang.)
Calculating surface                               ...        done! (  0.0s)
Cavity surface points                             ...          502
Cavity Volume                                     ...     894.2026
Cavity Surface-area                               ...     524.8142
Calculating surface distance matrix               ...        done! (  0.0s)
Performing Cholesky decomposition & store         ...        done! (  0.0s)
Overall time for CPCM initialization              ...                 0.1s

----------------------------------------D-I-I-S--------------------------------------------
Iteration    Energy (Eh)           Delta-E    RMSDP     MaxDP     DIISErr   Damp  Time(sec)
-------------------------------------------------------------------------------------------
               ***  Starting incremental Fock matrix formation  ***
    1    -346.3679294474626431     0.00e+00  4.07e-04  3.07e-02  5.87e-02  0.850  25.2
Warning: op=1 Small HOMO/LUMO gap (   0.052) - skipping pre-diagonalization
         Will do a full diagonalization
    2    -346.3925042727378241    -2.46e-02  3.77e-04  2.45e-02  4.64e-02  0.850  17.1
                               ***Turning on AO-DIIS***
    3    -346.4097420762407182    -1.72e-02  2.87e-04  1.55e-02  3.51e-02  0.850  16.7
    4    -346.4214784825511515    -1.17e-02  2.37e-04  1.20e-02  2.94e-02  0.850  16.2
    5    -346.4302134742290491    -8.73e-03  1.33e-03  6.47e-02  2.46e-02  0.000  16.7
    6    -346.4726279874945476    -4.24e-02  1.08e-04  9.89e-03  3.56e-03  0.000  17.1
    7    -346.4728837875402405    -2.56e-04  2.96e-05  2.04e-03  2.95e-03  0.000  16.2
    8    -346.4730221899415028    -1.38e-04  2.83e-05  2.68e-03  1.51e-03  0.000  15.5
    9    -346.4730980294326628    -7.58e-05  2.00e-05  1.20e-03  1.16e-03  0.000  15.6
                              *** Initializing SOSCF ***
---------------------------------------S-O-S-C-F--------------------------------------
Iteration    Energy (Eh)           Delta-E    RMSDP     MaxDP     MaxGrad    Time(sec)
--------------------------------------------------------------------------------------
   10    -346.4731436121817296    -4.56e-05  1.40e-05  1.08e-03  8.84e-04    15.8
               *** Restarting incremental Fock matrix formation ***
   11    -346.4731708407413180    -2.72e-05  1.70e-05  8.09e-04  9.43e-04    25.5
   12    -346.4731857348490394    -1.49e-05  3.18e-05  1.72e-03  5.58e-04    21.5
   13    -346.4731941783973070    -8.44e-06  2.37e-05  1.56e-03  5.10e-04    21.5
   14    -346.4731995760724885    -5.40e-06  7.09e-06  6.08e-04  1.41e-04    21.0
   15    -346.4731998453423785    -2.69e-07  3.42e-06  1.97e-04  1.69e-04    20.4
   16    -346.4732002941258315    -4.49e-07  1.01e-06  6.82e-05  2.97e-05    19.6
   17    -346.4732002893135814     4.81e-09  6.16e-07  5.24e-05  3.36e-05    18.7
                 **** Energy Check signals convergence ****

               *****************************************************
               *                     SUCCESS                       *
               *           SCF CONVERGED AFTER  17 CYCLES          *
               *****************************************************

Recomputing exchange energy using gridx3       ... done (   27.313 sec)
Old exchange energy                            :     -4.705982673 Eh
New exchange energy                            :     -4.705960950 Eh
Exchange energy change after final integration :      0.000021723 Eh
Total energy after final integration           :   -346.473178566 Eh

SMD CDS free energy correction energy :                -1.18867     Kcal/mol
Total Energy after SMD CDS correction =              -346.475072832 Eh
             **** ENERGY FILE WAS UPDATED (cs_rporg_060_ox_solv_04.en.tmp) ****

----------------
TOTAL SCF ENERGY
----------------

Total Energy       :       -346.47507283156472 Eh           -9428.06605 eV

Components:
Nuclear Repulsion  :        345.06051076387598 Eh            9389.57385 eV
Electronic Energy  :       -691.44697849012005 Eh          -18815.22883 eV
One Electron Energy:      -1140.17906576388964 Eh          -31025.84970 eV
Two Electron Energy:        448.73208727376965 Eh           12210.62087 eV
CPCM Dielectric    :         -0.08673256306953 Eh              -2.36011 eV
SMD CDS (Gcds)     :         -0.00189426532328 Eh              -0.05155 eV

Virial components:
Potential Energy   :       -690.81168021290102 Eh          -18797.94149 eV
Kinetic Energy     :        344.33660738133631 Eh            9369.87544 eV
Virial Ratio       :          2.00621039240205

DFT components:
N(Alpha)           :       28.999934633436 electrons
N(Beta)            :       27.999931677919 electrons
N(Total)           :       56.999866311355 electrons
E(X)               :      -42.515710101415 Eh       
E(C)               :       -1.820468334868 Eh       
E(XC)              :      -44.336178436283 Eh       

CPCM Solvation Model Properties:
Surface-charge          :         -1.02989049437083
Corrected charge        :         -1.00000000000000
Outlying charge corr.   :          0.00006850778201 Eh               0.00186 eV
Free-energy (cav+disp)  :         -0.00189426532328 Eh              -0.05155 eV

---------------
SCF CONVERGENCE
---------------

  Last Energy change         ...   -4.8123e-09  Tolerance :   1.0000e-08
  Last MAX-Density change    ...    5.2445e-05  Tolerance :   1.0000e-07
  Last RMS-Density change    ...    6.1641e-07  Tolerance :   5.0000e-09
  Last DIIS Error            ...    8.8395e-04  Tolerance :   5.0000e-07
  Last Orbital Gradient      ...    3.3576e-05  Tolerance :   1.0000e-05
  Last Orbital Rotation      ...    1.0043e-04  Tolerance :   1.0000e-05


----------------------
UHF SPIN CONTAMINATION
----------------------

Warning: in a DFT calculation there is little theoretical justification to 
         calculate <S**2> as in Hartree-Fock theory. We will do it anyways
         but you should keep in mind that the values have only limited relevance

Expectation value of <S**2>     :     0.783340
Ideal value S*(S+1) for S=0.5   :     0.750000
Deviation                       :     0.033340

----------------
ORBITAL ENERGIES
----------------
                 SPIN UP ORBITALS
  NO   OCC          E(Eh)            E(eV) 
   0   1.0000     -19.239481      -523.5329 
   1   1.0000     -10.300914      -280.3021 
   2   1.0000     -10.229950      -278.3711 
   3   1.0000     -10.226655      -278.2814 
   4   1.0000     -10.216497      -278.0050 
   5   1.0000     -10.212628      -277.8997 
   6   1.0000     -10.208832      -277.7964 
   7   1.0000     -10.202278      -277.6181 
   8   1.0000      -1.164428       -31.6857 
   9   1.0000      -0.904194       -24.6044 
  10   1.0000      -0.809688       -22.0327 
  11   1.0000      -0.796659       -21.6782 
  12   1.0000      -0.736473       -20.0405 
  13   1.0000      -0.651409       -17.7257 
  14   1.0000      -0.626075       -17.0364 
  15   1.0000      -0.570657       -15.5284 
  16   1.0000      -0.523448       -14.2438 
  17   1.0000      -0.523361       -14.2414 
  18   1.0000      -0.520124       -14.1533 
  19   1.0000      -0.466466       -12.6932 
  20   1.0000      -0.454455       -12.3663 
  21   1.0000      -0.442020       -12.0280 
  22   1.0000      -0.420933       -11.4542 
  23   1.0000      -0.393712       -10.7135 
  24   1.0000      -0.388564       -10.5734 
  25   1.0000      -0.375057       -10.2058 
  26   1.0000      -0.354433        -9.6446 
  27   1.0000      -0.302581        -8.2336 
  28   1.0000      -0.282620        -7.6905 
  29   0.0000      -0.075385        -2.0513 
  30   0.0000      -0.061945        -1.6856 
  31   0.0000       0.007819         0.2128 
  32   0.0000       0.022283         0.6063 
  33   0.0000       0.024119         0.6563 
  34   0.0000       0.035354         0.9620 
  35   0.0000       0.036416         0.9909 
  36   0.0000       0.040849         1.1116 
  37   0.0000       0.045221         1.2305 
  38   0.0000       0.062315         1.6957 
  39   0.0000       0.066785         1.8173 

                 SPIN DOWN ORBITALS
  NO   OCC          E(Eh)            E(eV) 
   0   1.0000     -19.231132      -523.3057 
   1   1.0000     -10.298294      -280.2308 
   2   1.0000     -10.230204      -278.3780 
   3   1.0000     -10.218833      -278.0686 
   4   1.0000     -10.212407      -277.8937 
   5   1.0000     -10.210423      -277.8397 
   6   1.0000     -10.209766      -277.8218 
   7   1.0000     -10.204744      -277.6852 
   8   1.0000      -1.151282       -31.3280 
   9   1.0000      -0.894393       -24.3377 
  10   1.0000      -0.801319       -21.8050 
  11   1.0000      -0.791459       -21.5367 
  12   1.0000      -0.725882       -19.7523 
  13   1.0000      -0.646527       -17.5929 
  14   1.0000      -0.619743       -16.8641 
  15   1.0000      -0.567921       -15.4539 
  16   1.0000      -0.520516       -14.1640 
  17   1.0000      -0.515500       -14.0275 
  18   1.0000      -0.498091       -13.5537 
  19   1.0000      -0.463788       -12.6203 
  20   1.0000      -0.453221       -12.3328 
  21   1.0000      -0.439551       -11.9608 
  22   1.0000      -0.402384       -10.9494 
  23   1.0000      -0.391683       -10.6582 
  24   1.0000      -0.386250       -10.5104 
  25   1.0000      -0.350578        -9.5397 
  26   1.0000      -0.349854        -9.5200 
  27   1.0000      -0.294564        -8.0155 
  28   0.0000      -0.207897        -5.6572 
  29   0.0000      -0.049956        -1.3594 
  30   0.0000      -0.035065        -0.9542 
  31   0.0000       0.009254         0.2518 
  32   0.0000       0.023966         0.6522 
  33   0.0000       0.024732         0.6730 
  34   0.0000       0.036420         0.9910 
  35   0.0000       0.037631         1.0240 
  36   0.0000       0.043278         1.1777 
  37   0.0000       0.046253         1.2586 
  38   0.0000       0.063007         1.7145 
*Only the first 10 virtual orbitals were printed.

                    ********************************
                    * MULLIKEN POPULATION ANALYSIS *
                    ********************************

--------------------------------------------
MULLIKEN ATOMIC CHARGES AND SPIN POPULATIONS
--------------------------------------------
   0 C :   -0.308218    0.152476
   1 C :   -0.395064   -0.085615
   2 C :   -0.477503    0.445708
   3 C :   -0.286039   -0.171470
   4 C :   -0.855736    0.239166
   5 C :    1.227090    0.142386
   6 O :   -0.602379    0.243813
   7 C :   -0.654701   -0.019867
   8 H :    0.294863    0.011848
   9 H :    0.295100    0.011835
  10 H :    0.268002   -0.001387
  11 H :    0.648920    0.009216
  12 H :    0.346451   -0.008207
  13 H :    0.545376    0.017319
  14 H :    0.308745   -0.003635
  15 H :    0.645093    0.016414
Sum of atomic charges         :    1.0000000
Sum of atomic spin populations:    1.0000000

-----------------------------------------------------
MULLIKEN REDUCED ORBITAL CHARGES AND SPIN POPULATIONS
-----------------------------------------------------
CHARGE
  0 C s       :     3.869714  s :     3.869714
      pz      :     0.899591  p :     2.374787
      px      :     0.652833
      py      :     0.822363
      dz2     :     0.006115  d :     0.085091
      dxz     :    -0.001191
      dyz     :    -0.015224
      dx2y2   :     0.000608
      dxy     :     0.094783
      f0      :     0.000288  f :    -0.021375
      f+1     :    -0.000263
      f-1     :    -0.000621
      f+2     :     0.000253
      f-2     :     0.000095
      f+3     :    -0.009991
      f-3     :    -0.011137

  1 C s       :     3.692283  s :     3.692283
      pz      :     0.895373  p :     2.783075
      px      :     0.960418
      py      :     0.927284
      dz2     :    -0.015798  d :    -0.070952
      dxz     :     0.007935
      dyz     :     0.011642
      dx2y2   :    -0.009241
      dxy     :    -0.065490
      f0      :     0.001140  f :    -0.009344
      f+1     :     0.000383
      f-1     :     0.000220
      f+2     :     0.000766
      f-2     :     0.000236
      f+3     :    -0.002728
      f-3     :    -0.009360

  2 C s       :     3.717123  s :     3.717123
      pz      :     0.778400  p :     2.663246
      px      :     0.969842
      py      :     0.915005
      dz2     :     0.000495  d :     0.102294
      dxz     :     0.000186
      dyz     :     0.018307
      dx2y2   :     0.072229
      dxy     :     0.011077
      f0      :     0.001089  f :    -0.005161
      f+1     :     0.000219
      f-1     :     0.000307
      f+2     :     0.000633
      f-2     :     0.000736
      f+3     :    -0.002987
      f-3     :    -0.005158

  3 C s       :     3.538851  s :     3.538851
      pz      :     0.907276  p :     2.811348
      px      :     1.029711
      py      :     0.874360
      dz2     :    -0.015235  d :    -0.054080
      dxz     :     0.021958
      dyz     :     0.009259
      dx2y2   :    -0.018033
      dxy     :    -0.052029
      f0      :     0.000794  f :    -0.010080
      f+1     :     0.000701
      f-1     :     0.000244
      f+2     :     0.000439
      f-2     :     0.000217
      f+3     :    -0.003647
      f-3     :    -0.008828

  4 C s       :     3.991470  s :     3.991470
      pz      :     0.887915  p :     2.744097
      px      :     0.792106
      py      :     1.064076
      dz2     :     0.010761  d :     0.141235
      dxz     :     0.028688
      dyz     :     0.007118
      dx2y2   :     0.067645
      dxy     :     0.027023
      f0      :     0.000119  f :    -0.021067
      f+1     :    -0.000882
      f-1     :     0.000308
      f+2     :     0.000765
      f-2     :     0.000403
      f+3     :    -0.002521
      f-3     :    -0.019259

  5 C s       :     3.145605  s :     3.145605
      pz      :     0.784682  p :     1.836794
      px      :     0.266857
      py      :     0.785255
      dz2     :    -0.029899  d :    -0.208789
      dxz     :     0.028426
      dyz     :    -0.015530
      dx2y2   :    -0.111530
      dxy     :    -0.080256
      f0      :     0.004192  f :    -0.000700
      f+1     :     0.000178
      f-1     :     0.000999
      f+2     :     0.005685
      f-2     :     0.006520
      f+3     :     0.003183
      f-3     :    -0.021456

  6 O s       :     4.191326  s :     4.191326
      pz      :     1.584769  p :     4.324056
      px      :     1.165017
      py      :     1.574270
      dz2     :     0.000017  d :     0.080048
      dxz     :     0.025487
      dyz     :     0.007262
      dx2y2   :     0.016535
      dxy     :     0.030748
      f0      :     0.000869  f :     0.006948
      f+1     :     0.000014
      f-1     :    -0.000034
      f+2     :     0.000777
      f-2     :     0.001446
      f+3     :     0.002992
      f-3     :     0.000883

  7 C s       :     3.539771  s :     3.539771
      pz      :     1.140149  p :     2.947657
      px      :     0.861760
      py      :     0.945748
      dz2     :     0.018926  d :     0.142921
      dxz     :     0.003992
      dyz     :     0.054355
      dx2y2   :     0.037710
      dxy     :     0.027938
      f0      :     0.002626  f :     0.024351
      f+1     :     0.001570
      f-1     :     0.003130
      f+2     :     0.002817
      f-2     :     0.003029
      f+3     :     0.004253
      f-3     :     0.006927

  8 H s       :     0.666514  s :     0.666514
      pz      :     0.013308  p :     0.032844
      px      :     0.007752
      py      :     0.011783
      dz2     :     0.002823  d :     0.005779
      dxz     :     0.001240
      dyz     :     0.000848
      dx2y2   :     0.000318
      dxy     :     0.000551

  9 H s       :     0.666290  s :     0.666290
      pz      :     0.013291  p :     0.032817
      px      :     0.007731
      py      :     0.011796
      dz2     :     0.002833  d :     0.005792
      dxz     :     0.001240
      dyz     :     0.000843
      dx2y2   :     0.000320
      dxy     :     0.000557

 10 H s       :     0.688444  s :     0.688444
      pz      :     0.018494  p :     0.040701
      px      :     0.014919
      py      :     0.007288
      dz2     :    -0.000894  d :     0.002853
      dxz     :     0.001471
      dyz     :     0.002543
      dx2y2   :     0.000345
      dxy     :    -0.000612

 11 H s       :     0.406198  s :     0.406198
      pz      :     0.015700  p :    -0.061422
      px      :    -0.019884
      py      :    -0.057237
      dz2     :    -0.000038  d :     0.006303
      dxz     :     0.000963
      dyz     :     0.004224
      dx2y2   :     0.002092
      dxy     :    -0.000937

 12 H s       :     0.626526  s :     0.626526
      pz      :     0.016622  p :     0.018435
      px      :     0.003939
      py      :    -0.002126
      dz2     :    -0.000501  d :     0.008589
      dxz     :     0.002249
      dyz     :     0.003282
      dx2y2   :     0.002597
      dxy     :     0.000961

 13 H s       :     0.477581  s :     0.477581
      pz      :     0.010842  p :    -0.031673
      px      :    -0.039355
      py      :    -0.003160
      dz2     :     0.000018  d :     0.008716
      dxz     :     0.004331
      dyz     :     0.000065
      dx2y2   :     0.001858
      dxy     :     0.002443

 14 H s       :     0.654766  s :     0.654766
      pz      :     0.016199  p :     0.027784
      px      :     0.007990
      py      :     0.003595
      dz2     :    -0.000341  d :     0.008705
      dxz     :     0.000595
      dyz     :     0.004800
      dx2y2   :     0.001548
      dxy     :     0.002103

 15 H s       :     0.420927  s :     0.420927
      pz      :     0.011113  p :    -0.074574
      px      :    -0.018977
      py      :    -0.066710
      dz2     :     0.000177  d :     0.008554
      dxz     :     0.002584
      dyz     :     0.002512
      dx2y2   :     0.002762
      dxy     :     0.000520


SPIN
  0 C s       :     0.018043  s :     0.018043
      pz      :     0.146652  p :     0.128912
      px      :    -0.015336
      py      :    -0.002404
      dz2     :    -0.000877  d :     0.007273
      dxz     :    -0.003434
      dyz     :     0.002697
      dx2y2   :    -0.000778
      dxy     :     0.009666
      f0      :    -0.000534  f :    -0.001752
      f+1     :    -0.000294
      f-1     :    -0.000110
      f+2     :    -0.000123
      f-2     :    -0.000516
      f+3     :     0.000032
      f-3     :    -0.000207

  1 C s       :    -0.000101  s :    -0.000101
      pz      :    -0.064732  p :    -0.091847
      px      :    -0.024756
      py      :    -0.002358
      dz2     :     0.000546  d :     0.006812
      dxz     :     0.004348
      dyz     :    -0.001817
      dx2y2   :     0.002857
      dxy     :     0.000878
      f0      :    -0.000036  f :    -0.000479
      f+1     :    -0.000051
      f-1     :     0.000126
      f+2     :     0.000181
      f-2     :     0.000510
      f+3     :    -0.000728
      f-3     :    -0.000481

  2 C s       :    -0.010317  s :    -0.010317
      pz      :     0.414085  p :     0.449710
      px      :     0.006435
      py      :     0.029191
      dz2     :    -0.002926  d :     0.009578
      dxz     :     0.002850
      dyz     :    -0.000225
      dx2y2   :     0.006067
      dxy     :     0.003813
      f0      :    -0.000850  f :    -0.003264
      f+1     :    -0.000664
      f-1     :    -0.000511
      f+2     :     0.000232
      f-2     :    -0.000232
      f+3     :    -0.000286
      f-3     :    -0.000952

  3 C s       :    -0.017611  s :    -0.017611
      pz      :    -0.132487  p :    -0.165081
      px      :    -0.023244
      py      :    -0.009351
      dz2     :     0.000587  d :     0.011713
      dxz     :     0.001884
      dyz     :     0.001205
      dx2y2   :     0.001957
      dxy     :     0.006079
      f0      :     0.000095  f :    -0.000490
      f+1     :     0.000191
      f-1     :     0.000183
      f+2     :     0.000063
      f-2     :     0.000422
      f+3     :    -0.000704
      f-3     :    -0.000741

  4 C s       :     0.012539  s :     0.012539
      pz      :     0.221892  p :     0.221823
      px      :    -0.000774
      py      :     0.000706
      dz2     :    -0.001856  d :     0.006840
      dxz     :    -0.003850
      dyz     :     0.001311
      dx2y2   :     0.003800
      dxy     :     0.007436
      f0      :    -0.000663  f :    -0.002036
      f+1     :    -0.000403
      f-1     :    -0.000269
      f+2     :    -0.000587
      f-2     :    -0.000551
      f+3     :    -0.000139
      f-3     :     0.000577

  5 C s       :     0.011567  s :     0.011567
      pz      :     0.153098  p :     0.118242
      px      :    -0.021008
      py      :    -0.013848
      dz2     :    -0.000648  d :     0.010478
      dxz     :     0.009300
      dyz     :     0.002631
      dx2y2   :    -0.000197
      dxy     :    -0.000607
      f0      :    -0.000772  f :     0.002099
      f+1     :    -0.000164
      f-1     :    -0.000231
      f+2     :     0.001890
      f-2     :     0.001833
      f+3     :    -0.000583
      f-3     :     0.000125

  6 O s       :     0.009868  s :     0.009868
      pz      :     0.204168  p :     0.227790
      px      :     0.012417
      py      :     0.011205
      dz2     :     0.000161  d :     0.006275
      dxz     :     0.005211
      dyz     :     0.000347
      dx2y2   :     0.000570
      dxy     :    -0.000013
      f0      :    -0.000099  f :    -0.000120
      f+1     :    -0.000079
      f-1     :    -0.000028
      f+2     :     0.000014
      f-2     :     0.000066
      f+3     :    -0.000005
      f-3     :     0.000010

  7 C s       :    -0.011071  s :    -0.011071
      pz      :     0.000573  p :    -0.014206
      px      :    -0.007953
      py      :    -0.006826
      dz2     :    -0.000129  d :     0.004685
      dxz     :    -0.000374
      dyz     :     0.006702
      dx2y2   :    -0.001729
      dxy     :     0.000214
      f0      :    -0.000153  f :     0.000725
      f+1     :     0.000079
      f-1     :     0.000076
      f+2     :    -0.000065
      f-2     :     0.000735
      f+3     :    -0.000072
      f-3     :     0.000126

  8 H s       :     0.010458  s :     0.010458
      pz      :     0.000822  p :     0.001512
      px      :     0.000320
      py      :     0.000370
      dz2     :     0.000091  d :    -0.000122
      dxz     :    -0.000049
      dyz     :    -0.000058
      dx2y2   :    -0.000031
      dxy     :    -0.000076

  9 H s       :     0.010442  s :     0.010442
      pz      :     0.000824  p :     0.001515
      px      :     0.000320
      py      :     0.000372
      dz2     :     0.000091  d :    -0.000122
      dxz     :    -0.000049
      dyz     :    -0.000058
      dx2y2   :    -0.000031
      dxy     :    -0.000076

 10 H s       :    -0.001650  s :    -0.001650
      pz      :    -0.000193  p :     0.000422
      px      :     0.000172
      py      :     0.000443
      dz2     :    -0.000005  d :    -0.000159
      dxz     :    -0.000114
      dyz     :     0.000073
      dx2y2   :    -0.000081
      dxy     :    -0.000033

 11 H s       :     0.003874  s :     0.003874
      pz      :     0.003706  p :     0.004547
      px      :    -0.000545
      py      :     0.001386
      dz2     :     0.000083  d :     0.000795
      dxz     :    -0.000030
      dyz     :     0.000775
      dx2y2   :    -0.000011
      dxy     :    -0.000022

 12 H s       :    -0.006738  s :    -0.006738
      pz      :    -0.005231  p :    -0.001224
      px      :     0.000721
      py      :     0.003286
      dz2     :     0.000013  d :    -0.000245
      dxz     :    -0.000352
      dyz     :    -0.000159
      dx2y2   :     0.000037
      dxy     :     0.000216

 13 H s       :     0.005529  s :     0.005529
      pz      :     0.010090  p :     0.010112
      px      :     0.001136
      py      :    -0.001114
      dz2     :     0.000155  d :     0.001678
      dxz     :     0.001813
      dyz     :     0.000017
      dx2y2   :    -0.000129
      dxy     :    -0.000178

 14 H s       :    -0.002856  s :    -0.002856
      pz      :    -0.003723  p :    -0.000850
      px      :    -0.000715
      py      :     0.003589
      dz2     :     0.000030  d :     0.000070
      dxz     :    -0.000164
      dyz     :     0.000003
      dx2y2   :     0.000043
      dxy     :     0.000158

 15 H s       :     0.013523  s :     0.013523
      pz      :     0.002853  p :     0.002348
      px      :    -0.003129
      py      :     0.002624
      dz2     :     0.000110  d :     0.000543
      dxz     :    -0.000151
      dyz     :     0.000530
      dx2y2   :    -0.000009
      dxy     :     0.000062



                     *******************************
                     * LOEWDIN POPULATION ANALYSIS *
                     *******************************

-------------------------------------------
LOEWDIN ATOMIC CHARGES AND SPIN POPULATIONS
-------------------------------------------
   0 C :    0.280085    0.101472
   1 C :    0.266555    0.054096
   2 C :    0.285785    0.212879
   3 C :    0.256572    0.032222
   4 C :    0.278801    0.128628
   5 C :   -0.328215    0.164017
   6 O :    0.660631    0.199395
   7 C :    0.451254    0.022162
   8 H :   -0.141563    0.006556
   9 H :   -0.141600    0.006556
  10 H :   -0.152635   -0.000569
  11 H :   -0.140830    0.022734
  12 H :   -0.145156   -0.011474
  13 H :   -0.134280    0.049200
  14 H :   -0.141155   -0.004251
  15 H :   -0.154250    0.016378

----------------------------------------------------
LOEWDIN REDUCED ORBITAL CHARGES AND SPIN POPULATIONS
----------------------------------------------------
CHARGE
  0 C s       :     2.488202  s :     2.488202
      pz      :     0.585312  p :     2.263606
      px      :     0.859477
      py      :     0.818818
      dz2     :     0.069089  d :     0.646298
      dxz     :     0.076785
      dyz     :     0.056966
      dx2y2   :     0.189996
      dxy     :     0.253462
      f0      :     0.021810  f :     0.321809
      f+1     :     0.027295
      f-1     :     0.024884
      f+2     :     0.043363
      f-2     :     0.017554
      f+3     :     0.075756
      f-3     :     0.111146

  1 C s       :     2.496309  s :     2.496309
      pz      :     0.561675  p :     2.253510
      px      :     0.854301
      py      :     0.837534
      dz2     :     0.067376  d :     0.658153
      dxz     :     0.086666
      dyz     :     0.044611
      dx2y2   :     0.232407
      dxy     :     0.227092
      f0      :     0.020866  f :     0.325473
      f+1     :     0.030187
      f-1     :     0.020998
      f+2     :     0.028896
      f-2     :     0.029001
      f+3     :     0.077259
      f-3     :     0.118268

  2 C s       :     2.502919  s :     2.502919
      pz      :     0.506721  p :     2.209720
      px      :     0.848280
      py      :     0.854720
      dz2     :     0.067736  d :     0.675469
      dxz     :     0.041509
      dyz     :     0.110390
      dx2y2   :     0.268321
      dxy     :     0.187514
      f0      :     0.020321  f :     0.326106
      f+1     :     0.019911
      f-1     :     0.030158
      f+2     :     0.014335
      f-2     :     0.051268
      f+3     :     0.076308
      f-3     :     0.113805

  3 C s       :     2.496685  s :     2.496685
      pz      :     0.579166  p :     2.271674
      px      :     0.853643
      py      :     0.838865
      dz2     :     0.067597  d :     0.652707
      dxz     :     0.064969
      dyz     :     0.059406
      dx2y2   :     0.177081
      dxy     :     0.283652
      f0      :     0.020919  f :     0.322362
      f+1     :     0.026650
      f-1     :     0.024527
      f+2     :     0.043938
      f-2     :     0.011313
      f+3     :     0.078413
      f-3     :     0.116602

  4 C s       :     2.497760  s :     2.497760
      pz      :     0.564329  p :     2.246455
      px      :     0.856593
      py      :     0.825533
      dz2     :     0.068046  d :     0.646754
      dxz     :     0.098952
      dyz     :     0.042775
      dx2y2   :     0.211709
      dxy     :     0.225273
      f0      :     0.022163  f :     0.330230
      f+1     :     0.031981
      f-1     :     0.021229
      f+2     :     0.028565
      f-2     :     0.035366
      f+3     :     0.083764
      f-3     :     0.107162

  5 C s       :     2.467456  s :     2.467456
      pz      :     0.538220  p :     2.158691
      px      :     0.754392
      py      :     0.866080
      dz2     :     0.101728  d :     1.075534
      dxz     :     0.171411
      dyz     :     0.131696
      dx2y2   :     0.332145
      dxy     :     0.338554
      f0      :     0.039257  f :     0.626534
      f+1     :     0.048118
      f-1     :     0.036068
      f+2     :     0.064063
      f-2     :     0.071450
      f+3     :     0.144660
      f-3     :     0.222919

  6 O s       :     2.968623  s :     2.968623
      pz      :     1.228841  p :     3.761930
      px      :     1.193763
      py      :     1.339326
      dz2     :     0.042919  d :     0.476648
      dxz     :     0.094442
      dyz     :     0.040478
      dx2y2   :     0.150119
      dxy     :     0.148689
      f0      :     0.011531  f :     0.132168
      f+1     :     0.012426
      f-1     :     0.004175
      f+2     :     0.008890
      f-2     :     0.020666
      f+3     :     0.042218
      f-3     :     0.032263

  7 C s       :     2.469485  s :     2.469485
      pz      :     0.818804  p :     2.202809
      px      :     0.665724
      py      :     0.718281
      dz2     :     0.096712  d :     0.588618
      dxz     :     0.051629
      dyz     :     0.137337
      dx2y2   :     0.121255
      dxy     :     0.181685
      f0      :     0.030820  f :     0.287834
      f+1     :     0.026930
      f-1     :     0.031191
      f+2     :     0.014806
      f-2     :     0.045923
      f+3     :     0.077263
      f-3     :     0.060901

  8 H s       :     0.626998  s :     0.626998
      pz      :     0.131831  p :     0.297888
      px      :     0.071452
      py      :     0.094606
      dz2     :     0.076949  d :     0.216677
      dxz     :     0.035479
      dyz     :     0.049506
      dx2y2   :     0.015185
      dxy     :     0.039558

  9 H s       :     0.627021  s :     0.627021
      pz      :     0.131821  p :     0.297901
      px      :     0.071458
      py      :     0.094622
      dz2     :     0.076954  d :     0.216679
      dxz     :     0.035467
      dyz     :     0.049493
      dx2y2   :     0.015192
      dxy     :     0.039572

 10 H s       :     0.641590  s :     0.641590
      pz      :     0.087099  p :     0.292763
      px      :     0.111841
      py      :     0.093822
      dz2     :     0.016422  d :     0.218282
      dxz     :     0.049612
      dyz     :     0.041003
      dx2y2   :     0.051988
      dxy     :     0.059258

 11 H s       :     0.645714  s :     0.645714
      pz      :     0.068030  p :     0.285481
      px      :     0.083808
      py      :     0.133643
      dz2     :     0.023031  d :     0.209635
      dxz     :     0.012445
      dyz     :     0.046186
      dx2y2   :     0.061646
      dxy     :     0.066326

 12 H s       :     0.650488  s :     0.650488
      pz      :     0.071054  p :     0.286718
      px      :     0.102764
      py      :     0.112900
      dz2     :     0.022475  d :     0.207950
      dxz     :     0.028275
      dyz     :     0.031541
      dx2y2   :     0.079821
      dxy     :     0.045837

 13 H s       :     0.651579  s :     0.651579
      pz      :     0.060612  p :     0.281108
      px      :     0.143381
      py      :     0.077115
      dz2     :     0.022747  d :     0.201593
      dxz     :     0.047055
      dyz     :     0.004581
      dx2y2   :     0.050219
      dxy     :     0.076991

 14 H s       :     0.648473  s :     0.648473
      pz      :     0.068533  p :     0.285453
      px      :     0.081598
      py      :     0.135322
      dz2     :     0.022682  d :     0.207229
      dxz     :     0.010915
      dyz     :     0.047257
      dx2y2   :     0.060331
      dxy     :     0.066043

 15 H s       :     0.630275  s :     0.630275
      pz      :     0.072852  p :     0.304681
      px      :     0.118870
      py      :     0.112960
      dz2     :     0.023702  d :     0.219293
      dxz     :     0.029504
      dyz     :     0.032665
      dx2y2   :     0.081869
      dxy     :     0.051553


SPIN
  0 C s       :     0.002754  s :     0.002754
      pz      :     0.078376  p :     0.078959
      px      :     0.001490
      py      :    -0.000907
      dz2     :    -0.000893  d :     0.009592
      dxz     :     0.003059
      dyz     :     0.008512
      dx2y2   :     0.000059
      dxy     :    -0.001146
      f0      :    -0.001025  f :     0.010167
      f+1     :    -0.000183
      f-1     :    -0.000310
      f+2     :     0.012662
      f-2     :    -0.000102
      f+3     :    -0.000500
      f-3     :    -0.000375

  1 C s       :    -0.001838  s :    -0.001838
      pz      :    -0.024962  p :    -0.031672
      px      :    -0.003493
      py      :    -0.003218
      dz2     :     0.000221  d :     0.056204
      dxz     :     0.045439
      dyz     :     0.007497
      dx2y2   :     0.000987
      dxy     :     0.002060
      f0      :     0.003343  f :     0.031402
      f+1     :    -0.000283
      f-1     :    -0.000061
      f+2     :     0.006062
      f-2     :     0.020865
      f+3     :     0.000942
      f-3     :     0.000533

  2 C s       :     0.008812  s :     0.008812
      pz      :     0.222177  p :     0.230952
      px      :     0.004177
      py      :     0.004598
      dz2     :    -0.002468  d :    -0.017484
      dxz     :    -0.001167
      dyz     :    -0.011318
      dx2y2   :    -0.001473
      dxy     :    -0.001057
      f0      :    -0.004211  f :    -0.009403
      f+1     :    -0.000549
      f-1     :    -0.000293
      f+2     :     0.000034
      f-2     :    -0.003027
      f+3     :    -0.000746
      f-3     :    -0.000611

  3 C s       :    -0.003079  s :    -0.003079
      pz      :    -0.057674  p :    -0.065825
      px      :    -0.003305
      py      :    -0.004846
      dz2     :     0.000582  d :     0.064453
      dxz     :     0.035272
      dyz     :     0.025024
      dx2y2   :     0.002186
      dxy     :     0.001388
      f0      :     0.004415  f :     0.036673
      f+1     :    -0.000144
      f-1     :    -0.000102
      f+2     :     0.026170
      f-2     :     0.004583
      f+3     :     0.000964
      f-3     :     0.000788

  4 C s       :     0.004368  s :     0.004368
      pz      :     0.118629  p :     0.120902
      px      :     0.001541
      py      :     0.000732
      dz2     :    -0.001334  d :    -0.002224
      dxz     :    -0.002930
      dyz     :     0.003785
      dx2y2   :    -0.001335
      dxy     :    -0.000410
      f0      :    -0.002026  f :     0.005582
      f+1     :    -0.000158
      f-1     :    -0.000427
      f+2     :     0.001693
      f-2     :     0.007568
      f+3     :    -0.000170
      f-3     :    -0.000898

  5 C s       :     0.001969  s :     0.001969
      pz      :     0.088528  p :     0.082629
      px      :    -0.003672
      py      :    -0.002228
      dz2     :    -0.000449  d :     0.041403
      dxz     :     0.026318
      dyz     :     0.013619
      dx2y2   :     0.001119
      dxy     :     0.000796
      f0      :     0.000206  f :     0.038017
      f+1     :    -0.000055
      f-1     :    -0.000299
      f+2     :     0.022748
      f-2     :     0.013682
      f+3     :     0.000924
      f-3     :     0.000810

  6 O s       :     0.005108  s :     0.005108
      pz      :     0.166481  p :     0.175576
      px      :     0.005157
      py      :     0.003938
      dz2     :     0.000065  d :     0.013757
      dxz     :     0.010505
      dyz     :     0.004020
      dx2y2   :    -0.000095
      dxy     :    -0.000738
      f0      :     0.002708  f :     0.004954
      f+1     :    -0.000100
      f-1     :    -0.000051
      f+2     :     0.002501
      f-2     :     0.000147
      f+3     :    -0.000182
      f-3     :    -0.000070

  7 C s       :    -0.000767  s :    -0.000767
      pz      :     0.001260  p :    -0.004370
      px      :    -0.003017
      py      :    -0.002613
      dz2     :     0.000366  d :     0.016811
      dxz     :     0.001510
      dyz     :     0.015046
      dx2y2   :    -0.000342
      dxy     :     0.000232
      f0      :     0.003129  f :     0.010486
      f+1     :     0.000037
      f-1     :     0.000197
      f+2     :    -0.000022
      f-2     :     0.006778
      f+3     :     0.000117
      f-3     :     0.000250

  8 H s       :     0.006647  s :     0.006647
      pz      :     0.000240  p :    -0.000120
      px      :    -0.000101
      py      :    -0.000259
      dz2     :    -0.000029  d :     0.000029
      dxz     :    -0.000176
      dyz     :    -0.000120
      dx2y2   :     0.000282
      dxy     :     0.000071

  9 H s       :     0.006647  s :     0.006647
      pz      :     0.000240  p :    -0.000120
      px      :    -0.000101
      py      :    -0.000259
      dz2     :    -0.000029  d :     0.000029
      dxz     :    -0.000176
      dyz     :    -0.000120
      dx2y2   :     0.000282
      dxy     :     0.000071

 10 H s       :    -0.000090  s :    -0.000090
      pz      :    -0.000172  p :    -0.000789
      px      :    -0.000340
      py      :    -0.000277
      dz2     :    -0.000050  d :     0.000310
      dxz     :    -0.000204
      dyz     :     0.001056
      dx2y2   :    -0.000400
      dxy     :    -0.000093

 11 H s       :    -0.003919  s :    -0.003919
      pz      :     0.013040  p :     0.014412
      px      :    -0.000024
      py      :     0.001396
      dz2     :    -0.000073  d :     0.012241
      dxz     :     0.000141
      dyz     :     0.011616
      dx2y2   :     0.000277
      dxy     :     0.000281

 12 H s       :     0.002054  s :     0.002054
      pz      :    -0.007450  p :    -0.008897
      px      :    -0.000737
      py      :    -0.000711
      dz2     :     0.000019  d :    -0.004630
      dxz     :    -0.003034
      dyz     :    -0.000684
      dx2y2   :    -0.000580
      dxy     :    -0.000351

 13 H s       :    -0.007050  s :    -0.007050
      pz      :     0.028423  p :     0.031634
      px      :     0.003007
      py      :     0.000204
      dz2     :    -0.000118  d :     0.024615
      dxz     :     0.022918
      dyz     :     0.000210
      dx2y2   :     0.001069
      dxy     :     0.000535

 14 H s       :     0.001030  s :     0.001030
      pz      :    -0.003152  p :    -0.004088
      px      :    -0.000529
      py      :    -0.000407
      dz2     :    -0.000000  d :    -0.001193
      dxz     :    -0.000578
      dyz     :     0.000060
      dx2y2   :    -0.000342
      dxy     :    -0.000332

 15 H s       :    -0.002616  s :    -0.002616
      pz      :     0.009680  p :     0.010576
      px      :     0.000218
      py      :     0.000678
      dz2     :    -0.000052  d :     0.008418
      dxz     :     0.000650
      dyz     :     0.007492
      dx2y2   :    -0.000020
      dxy     :     0.000348



                      *****************************
                      * MAYER POPULATION ANALYSIS *
                      *****************************

  NA   - Mulliken gross atomic population
  ZA   - Total nuclear charge
  QA   - Mulliken gross atomic charge
  VA   - Mayer's total valence
  BVA  - Mayer's bonded valence
  FA   - Mayer's free valence

  ATOM       NA         ZA         QA         VA         BVA        FA
  0 C      6.3082     6.0000    -0.3082     2.4324     2.4070     0.0254
  1 C      6.3951     6.0000    -0.3951     2.5961     2.5898     0.0064
  2 C      6.4775     6.0000    -0.4775     2.9285     2.7601     0.1685
  3 C      6.2860     6.0000    -0.2860     2.7299     2.7105     0.0194
  4 C      6.8557     6.0000    -0.8557     2.9921     2.9403     0.0518
  5 C      4.7729     6.0000     1.2271     1.3854     1.3467     0.0387
  6 O      8.6024     8.0000    -0.6024     1.8805     1.8340     0.0465
  7 C      6.6547     6.0000    -0.6547     3.6359     3.6350     0.0009
  8 H      0.7051     1.0000     0.2949     0.9449     0.9448     0.0001
  9 H      0.7049     1.0000     0.2951     0.9446     0.9445     0.0001
 10 H      0.7320     1.0000     0.2680     0.9861     0.9861     0.0000
 11 H      0.3511     1.0000     0.6489     0.1831     0.1830     0.0001
 12 H      0.6535     1.0000     0.3465     0.8925     0.8926    -0.0000
 13 H      0.4546     1.0000     0.5454     0.4726     0.4724     0.0002
 14 H      0.6913     1.0000     0.3087     0.9282     0.9283    -0.0001
 15 H      0.3549     1.0000     0.6451     0.1276     0.1274     0.0002

  Mayer bond orders larger than 0.100000
B(  0-C ,  1-C ) :   1.1921 B(  0-C ,  2-C ) :   0.2603 B(  0-C ,  3-C ) :  -0.1288 
B(  0-C ,  4-C ) :   0.4492 B(  0-C ,  5-C ) :   0.7438 B(  0-C ,  6-O ) :  -0.1277 
B(  0-C , 15-H ) :   0.1257 B(  1-C ,  2-C ) :   0.9928 B(  1-C ,  3-C ) :  -0.2253 
B(  1-C ,  4-C ) :  -0.1322 B(  1-C ,  5-C ) :  -0.4331 B(  1-C , 11-H ) :   0.1017 
B(  1-C , 14-H ) :   0.9042 B(  1-C , 15-H ) :   0.1690 B(  2-C ,  3-C ) :   0.9526 
B(  2-C ,  4-C ) :   0.4324 B(  2-C ,  5-C ) :  -0.1402 B(  2-C , 13-H ) :   0.4548 
B(  2-C , 15-H ) :  -0.1116 B(  3-C ,  4-C ) :   1.3302 B(  3-C ,  5-C ) :  -0.3428 
B(  3-C , 12-H ) :   0.8625 B(  3-C , 15-H ) :   0.1581 B(  4-C ,  5-C ) :   0.5318 
B(  4-C ,  6-O ) :   0.2387 B(  4-C , 11-H ) :   0.1166 B(  4-C , 15-H ) :  -0.1105 
B(  5-C ,  6-O ) :   0.7154 B(  6-O ,  7-C ) :   1.0002 B(  6-O , 11-H ) :  -0.1007 
B(  7-C ,  8-H ) :   0.8929 B(  7-C ,  9-H ) :   0.8926 B(  7-C , 10-H ) :   0.9496 
B(  7-C , 15-H ) :  -0.1118 

-------
TIMINGS
-------

Total SCF time: 0 days 0 hours 5 min 49 sec 

Total time                  ....     349.519 sec
Sum of individual times     ....     349.115 sec  ( 99.9%)

SCF preparation             ....       0.859 sec  (  0.2%)
Fock matrix formation       ....     333.049 sec  ( 95.3%)
  Startup                   ....       1.327 sec  (  0.4% of F)
  Split-RI-J                ....      12.327 sec  (  3.7% of F)
  Chain of spheres X        ....     163.414 sec  ( 49.1% of F)
  XC integration            ....     147.185 sec  ( 44.2% of F)
    XC Preparation          ....       0.000 sec  (  0.0% of XC)
    Basis function eval.    ....       6.287 sec  (  4.3% of XC)
    Density eval.           ....      53.737 sec  ( 36.5% of XC)
    XC-Functional eval.     ....       1.409 sec  (  1.0% of XC)
    XC-Potential eval.      ....      80.089 sec  ( 54.4% of XC)
  CPCM terms                ....       5.333 sec  (  1.6% of F)
Diagonalization             ....       0.000 sec  (  0.0%)
Density matrix formation    ....       2.801 sec  (  0.8%)
Total Energy calculation    ....       1.245 sec  (  0.4%)
Population analysis         ....       0.420 sec  (  0.1%)
Orbital Transformation      ....       1.234 sec  (  0.4%)
Orbital Orthonormalization  ....       0.000 sec  (  0.0%)
DIIS solution               ....       6.525 sec  (  1.9%)
SOSCF solution              ....       2.983 sec  (  0.9%)
Finished LeanSCF after 349.8 sec

Maximum memory used throughout the entire LEANSCF-calculation: 81.9 MB


-------------------------------------------------------------------------------
                          DFT DISPERSION CORRECTION                            
                                                                               
                              DFTD3 V3.1  Rev 1                                
                          USING Becke-Johnson damping                          
-------------------------------------------------------------------------------
The R2SCANh functional is recognized
Active option DFTDOPT                   ...         4   

molecular C6(AA) [au] = 2663.685355 


            DFT-D V3
 parameters
 s6 scaling factor         :     1.0000 
 a1 scaling factor         :     0.4709 
 s8 scaling factor         :     1.1236 
 a2 scaling factor         :     5.9157 
 ad hoc parameters k1-k3   :    16.0000     1.3333    -4.0000 

 Edisp/kcal,au: -2.840789708357  -0.004527086080 
 E6   /kcal   :  -2.054016965 
 E8   /kcal   :  -0.786772744 
 % E8         :  27.695564419 

-------------------------   ----------------
Dispersion correction           -0.004527086
-------------------------   ----------------


-------------------------   --------------------
FINAL SINGLE POINT ENERGY      -346.479599917645
-------------------------   --------------------



           ************************************************************
           *        Program running with 4 parallel MPI-processes     *
           *              working on a common directory               *
           ************************************************************

------------------------------------------------------------------------------
                              ORCA PROPERTY CALCULATIONS
------------------------------------------------------------------------------

GBWName                                 ... cs_rporg_060_ox_solv_04.gbw
Number of atoms                         ...     16
Number of basis functions               ...    600
Max core memory                         ...   3000 MB

Electric properties:
Dipole moment                           ... YES
Quadrupole moment                       ...  NO
Static polarizability (Dipole/Dipole)   ...  NO
Static polarizability (Dipole/Quad.)    ...  NO
Static polarizability (Quad./Quad.)     ...  NO
Static polarizability (Velocity)        ...  NO

Atomic electric properties:
Dipole moment                           ...  NO
Quadrupole moment                       ...  NO
Static polarizability                   ...  NO

Choice of electric origin               ... Center of mass
Position of electric origin             ...    -0.014051     0.022266    -0.000023

General magnetic properties:
Magnetizability                         ...  NO

EPR properties:
g-Tensor (aka g-matrix)                 ...  NO
Zero-Field splitting spin-orbit         ...  NO
Zero-field splitting spin-spin          ...  NO
Hyperfine couplings                     ...  NO (   0 nuclei)
Quadrupole couplings                    ...  NO (   0 nuclei)
Contact density                         ...  NO (   0 nuclei)

NMR properties:
Chemical shifts                         ...  NO (   0 nuclei)
Spin-rotation constants                 ...  NO (   0 nuclei)
Spin-spin couplings                     ...  NO (   0 nuclei,    0 pairs)

Choice of magnetic origin               ... GIAO
Position of magnetic origin             ...     0.000000     0.000000     0.000000

Properties with geometric perturbations:
SCF Hessian                             ...  NO
IR spectrum                             ...  NO
VCD spectrum                            ...  NO
X-ray spectroscopy properties:
SCF XES/XAS/RIXS spectra                ...  NO


-------------
DIPOLE MOMENT
-------------

Method             : SCF
Type of density    : Electron Density
Multiplicity       :   2
Irrep              :   0
Energy             :  -346.4750728315647166 Eh
Relativity type    : 
Basis              : AO
                                X                 Y                 Z
Electronic contribution:     -2.178078142      -1.602387623       0.000065739
Nuclear contribution   :      2.256738866       2.246354274      -0.000083298
                        -----------------------------------------
Total Dipole Moment    :      0.078660723       0.643966651      -0.000017559
                        -----------------------------------------
Magnitude (a.u.)       :      0.648753079
Magnitude (Debye)      :      1.648999278



--------------------
Rotational spectrum 
--------------------
 
Rotational constants in cm-1:             0.163746             0.052523             0.040083 
Rotational constants in MHz :          4908.994994          1574.611095          1201.650329 

Dipole components along the rotational axes: 
x,y,z [a.u.] :     0.087340     0.642847    -0.000001 
x,y,z [Debye]:     0.222001     1.633987    -0.000003 

 

Dipole moment calculation done in   0.0 sec 

Maximum memory used throughout the entire PROP-calculation: 46.0 MB

--------------------------------
SUGGESTED CITATIONS FOR THIS RUN
--------------------------------

Below you find a list of papers that are relevant to this ORCA run
We neither can nor want to force you to cite these papers, but we appreciate if you do
You receive ORCA, which is the product of decades of hard work by many enthusiastic individuals, for free
The only thing we kindly ask in return is that you cite our papers,
We deeply appreciate it, if you show your appreciation for ORCA by not just citing the generic ORCA reference.

Please note that relegating all ORCA citations to the supporting information does *not* help us.
SI sections are not indexed - citations you put there will not count into any citation statistics
But we need these citations in order to attract the funding resources that allow us to do what we are doing

Therefore, if you are a happy ORCA user, please consider citing a few of the papers listed below in the main body of your paper

In addition to the list printed below, the program has created the file cs_rporg_060_ox_solv_04.bibtex that contains the list in bibtex format
You can import this file easily into all common literature databanks and citation aid programs


List of essential papers. We consider these as the minimum necessary citations

  1. Neese,F.
     Software update: the ORCA program system, version 5.0
     WIRES Comput. Molec. Sci., 2022 12(1)e1606
     doi.org/10.1002/wcms.1606

List of papers to cite with high priority. The work reported in these papers was absolutely
necessary for this run to complete.
Our perspective: the developers of density functionals and basis sets usually get cited in chemistry papers
Good! But without the algorithms to do something with them, the functionals or basis sets would not do anything.
Hence, in our opinion, the algorithm design and method developments papers are equally worthy of getting cited

  1. Neese,F.
     An improvement of the resolution of the identity approximation for the formation of the Coulomb matrix
     J. Comp. Chem., 2003 24(14)1740-1747
     doi.org/10.1002/jcc.10318
  2. Neese,F.; Wennmohs,F.; Hansen,A.; Becker,U.
     Efficient, approximate and parallel Hartree-Fock and hybrid DFT calculations. A 'chain-of-spheres' algorithm for the Hartree-Fock exchange
     Chem. Phys., 2009 356(1-3)98-109
     doi.org/10.1016/j.chemphys.2008.10.036
  3. Garcia-Rates,M.; Neese,F.
     Effect of the Solute Cavity on the Solvation Energy and its Derivatives within the Framework of the Gaussian Charge Scheme
     J. Comput. Chem., 2020 41 922-939
     doi.org/10.1002/jcc.26139
  4. Helmich-Paris,B.; de Souza,B.; Neese,F.; Izsák,R.
     An improved chain of spheres for exchange algorithm
     J. Chem. Phys., 2021 155 104109
     doi.org/doi: 10.1063/5.0058766.
  5. Neese,F.
     The SHARK Integral Generation and Digestion System
     J. Comp. Chem., 2022  1-16
     doi.org/10.1002/jcc.26942
  6. Lehtola,S.; Steigemann,C.; Oliveira,M.; Marques,M.
     Recent developments in Libxc - A comprehensive library of functionals for density functional theory
     Software X, 2018 7 
     doi.org/10.1016/j.softx.2017.11.002
  7. Grimme,S.; Antony,J.; Ehrlich,S.; Krieg,H.
     A consistent and accurate ab initio parametrization of density functional dispersion correction (DFT-D) for the 94 elements H-Pu
     J. Chem. Phys., 2010 132 154104-XXXX
     doi.org/10.1063/1.3382344
  8. Grimme,S.; Ehrlich,S.; Goerigk,L.
     Effect of the damping function in dispersion corrected density functional theory
     J. Comput. Chem., 2011 32(7)1456-1465
     doi.org/10.1002/jcc.21759
  9. Bursch,M.; Neugebauer,H.; Ehlert,S.; Grimme,S.
     Dispersion corrected r2SCAN based global hybrid functionals: r2SCANh, r2SCAN0, and r2SCAN50
     J. Phys. Chem., 2022 156(13)134105
     doi.org/10.1063/5.0086040

List of suggested additional citations. These are papers that are important in the 'surrounding' of 
of this run, or papers that preceded the highly important papers. If you like your results we are grateful for a citation.

  1. Izsak,R.; Neese,F.
     An overlap fitted chain of spheres exchange method
     J. Chem. Phys., 2011 135 144105
     doi.org/10.1063/1.3646921
  2. Izsak,R.; Hansen,A.; Neese,F.
     The resolution of identity and chain of spheres approximations for the LPNO-CCSD singles Fock term
     Molec. Phys., 2012 110 2413-2417
     doi.org/10.1080/00268976.2012.687466
  3. Neese,F.
     The ORCA program system
     WIRES Comput. Molec. Sci., 2012 2(1)73-78
     doi.org/10.1002/wcms.81
  4. Izsak,R.; Neese,F.; Klopper,W.
     Robust fitting techniques in the chain of spheres approximation to the Fock exchange: The role of the complementary space
     J. Chem. Phys., 2013 139 
     doi.org/10.1063/1.4819264
  5. Neese,F.
     Software update: the ORCA program system, version 4.0
     WIRES Comput. Molec. Sci., 2018 8(1)1-6
     doi.org/10.1002/wcms.1327
  6. Neese,F.; Wennmohs,F.; Becker,U.; Riplinger,C.
     The ORCA quantum chemistry program package
     J. Chem. Phys., 2020 152 Art. No. L224108
     doi.org/10.1063/5.0004608
  7. Wittmann,L.; Neugebauer,H.; Grimme,S.; Bursch,M.
     Dispersion-corrected r2SCAN based double-hybrid functionals
     J. Chem. Phys., 2023 159(22)224103
     doi.org/10.1063/5.0174988

List of optional additional citations

  1. Neese,F.
     Approximate second-order SCF convergence for spin unrestricted wavefunctions
     Chem. Phys. Lett., 2000 325(1-3)93-98
     doi.org/10.1016/s0009-2614(00)00662-x

Timings for individual modules:

Sum of individual times          ...      367.023 sec (=   6.117 min)
Startup calculation              ...       10.203 sec (=   0.170 min)   2.8 %
SCF iterations                   ...      355.043 sec (=   5.917 min)  96.7 %
Property calculations            ...        1.778 sec (=   0.030 min)   0.5 %
                             ****ORCA TERMINATED NORMALLY****
TOTAL RUN TIME: 0 days 0 hours 6 minutes 10 seconds 635 msec
