
                                 *****************
                                 * O   R   C   A *
                                 *****************

                                            #,                                       
                                            ###                                      
                                            ####                                     
                                            #####                                    
                                            ######                                   
                                           ########,                                 
                                     ,,################,,,,,                         
                               ,,#################################,,                 
                          ,,##########################################,,             
                       ,#########################################, ''#####,          
                    ,#############################################,,   '####,        
                  ,##################################################,,,,####,       
                ,###########''''           ''''###############################       
              ,#####''   ,,,,##########,,,,          '''####'''          '####       
            ,##' ,,,,###########################,,,                        '##       
           ' ,,###''''                  '''############,,,                           
         ,,##''                                '''############,,,,        ,,,,,,###''
      ,#''                                            '''#######################'''  
     '                                                          ''''####''''         
             ,#######,   #######,   ,#######,      ##                                
            ,#'     '#,  ##    ##  ,#'     '#,    #''#        ,####,   ,####,        
            ##       ##  ##   ,#'  ##            #'  '#       #'       #'  '#        
            ##       ##  #######   ##           ,######,      #####,   #    #        
            '#,     ,#'  ##    ##  '#,     ,#' ,#      #,     #,   #   #,  ,#        
             '#######'   ##     ##  '#######'  #'      '#     '####' # '####'        



                #########################################################
                #                        -***-                          #
                #          Department of theory and spectroscopy        #
                #                                                       #
                #                      Frank Neese                      #
                #                                                       #
                #     Directorship, Architecture, Infrastructure        #
                #                    SHARK, DRIVERS                     #
                #        Core code/Algorithms in most modules           #
                #                                                       #
                #        Max Planck Institute fuer Kohlenforschung      #
                #                Kaiser Wilhelm Platz 1                 #
                #                 D-45470 Muelheim/Ruhr                 #
                #                      Germany                          #
                #                                                       #
                #                  All rights reserved                  #
                #                        -***-                          #
                #########################################################


                         Program Version 6.0.0  -   RELEASE  -


 With contributions from (in alphabetic order):
   Daniel Aravena         : Magnetic Suceptibility
   Michael Atanasov       : Ab Initio Ligand Field Theory (pilot matlab implementation)
   Alexander A. Auer      : GIAO ZORA, VPT2 properties, NMR spectrum
   Ute Becker             : All parallelization in ORCA, NUMFREQ, NUMCALC
   Giovanni Bistoni       : ED, misc. LED, open-shell LED, HFLD
   Martin Brehm           : Molecular dynamics
   Dmytro Bykov           : pre 5.0 version of the SCF Hessian
   Marcos Casanova-Páez   : Triplet and SCS-CIS(D). UHF-(DLPNO)-IP/EA/STEOM-CCSD. UHF-CVS-IP/STEOM-CCSD
   Vijay G. Chilkuri      : MRCI spin determinant printing, contributions to CSF-ICE
   Pauline Colinet        : FMM embedding
   Dipayan Datta          : RHF DLPNO-CCSD density
   Achintya Kumar Dutta   : EOM-CC, STEOM-CC
   Nicolas Foglia         : Exact transition moments, OPA infrastructure, MCD improvements
   Dmitry Ganyushin       : Spin-Orbit,Spin-Spin,Magnetic field MRCI
   Miquel Garcia          : C-PCM and meta-GGA Hessian, CCSD/C-PCM, Gaussian charge scheme
   Tiago L. C. Gouveia    : GS-ROHF, GS-ROCIS
   Yang Guo               : DLPNO-NEVPT2, F12-NEVPT2, CIM, IAO-localization
   Andreas Hansen         : Spin unrestricted coupled pair/coupled cluster methods
   Ingolf Harden          : AUTO-CI MPn and infrastructure 
   Benjamin Helmich-Paris : MC-RPA, TRAH-(SCF,CASSCF), AVAS, COSX integrals, SCF dyn. polar.
   Lee Huntington         : MR-EOM, pCC
   Robert Izsak           : Overlap fitted RIJCOSX, COSX-SCS-MP3, EOM
   Riya Kayal             : Wick's Theorem for AUTO-CI, AUTO-CI UHF-CCSDT
   Emily Kempfer          : AUTO-CI, RHF CISDT and CCSDT
   Christian Kollmar      : KDIIS, OOCD, Brueckner-CCSD(T), CCSD density, CASPT2, CASPT2-K, improved NEVPT2
   Axel Koslowski         : Symmetry handling
   Simone Kossmann        : Meta GGA functionals, TD-DFT gradient, OOMP2, (MP2 Hessian; deprecated post 5.0)
   Lucas Lang             : DCDCAS
   Marvin Lechner         : AUTO-CI (C++ implementation), FIC-MRCC
   Spencer Leger          : CASSCF response
   Dagmar Lenk            : GEPOL surface, SMD, ORCA-2-JSON
   Dimitrios Liakos       : Extrapolation schemes; Compound Job, initial MDCI parallelization
   Dimitrios Manganas     : Further ROCIS development; embedding schemes. LFT, Crystal Embedding
   Dimitrios Pantazis     : SARC Basis sets
   Anastasios Papadopoulos: AUTO-CI, single reference methods and gradients
   Taras Petrenko         : pre 6.0 DFT Hessian and TD-DFT gradient, (ASA, deprecated), ECA, 1-Electron XAS/XES, NRVS
   Peter Pinski           : DLPNO-MP2, DLPNO-MP2 Gradient
   Christoph Reimann      : Effective Core Potentials
   Marius Retegan         : Local ZFS, SOC
   Christoph Riplinger    : Optimizer, TS searches, QM/MM, DLPNO-CCSD(T), (RO)-DLPNO pert. Triples
   Michael Roemelt        : Original ROCIS implementation
   Masaaki Saitow         : Open-shell DLPNO-CCSD energy and density
   Barbara Sandhoefer     : DKH picture change effects
   Kantharuban Sivalingam : CASSCF convergence/infrastructure, NEVPT2 and variants, FIC-MRCI
   Bernardo de Souza      : ESD, SOC TD-DFT
   Georgi Stoychev        : AutoAux, RI-MP2 NMR, DLPNO-MP2 response, X2C
   Van Anh Tran           : RI-MP2 g-tensors
   Willem Van den Heuvel  : Paramagnetic NMR
   Zikuan Wang            : NOTCH, Electric field optimization 
   Frank Wennmohs         : Technical directorship and infrastructure
   Hang Xu                : AUTO-CI-Response properties 


 We gratefully acknowledge several colleagues who have allowed us to
 interface, adapt or use parts of their codes:
   Stefan Grimme, W. Hujo, H. Kruse, P. Pracht,  : VdW corrections, initial TS optimization,
                  C. Bannwarth, S. Ehlert,         DFT functionals, gCP, sTDA/sTD-DF
                  L. Wittmann, M. Mueller
   Ed Valeev, F. Pavosevic, A. Kumar             : LibInt (2-el integral package), F12 methods
   Garnet Chan, S. Sharma, J. Yang, R. Olivares  : DMRG
   Ulf Ekstrom                                   : XCFun DFT Library
   Mihaly Kallay                                 : mrcc  (arbitrary order and MRCC methods)
   Frank Weinhold                                : gennbo (NPA and NBO analysis)
   Simon Mueller                                 : openCOSMO-RS
   Christopher J. Cramer and Donald G. Truhlar   : smd solvation model
   Lars Goerigk                                  : TD-DFT with DH, B97 family of functionals
   V. Asgeirsson, H. Jonsson                     : NEB implementation
   FAccTs GmbH                                   : IRC, NEB, NEB-TS, DLPNO-Multilevel, CI-OPT
                                                   MM, QMMM, 2- and 3-layer-ONIOM, Crystal-QMMM,
                                                   LR-CPCM, SF, NACMEs, symmetry and pop. for TD-DFT,
                                                   nearIR, NL-DFT gradient (VV10), updates on ESD,
                                                   ML-optimized integration grids, MBIS, APM,
                                                   GOAT, DOCKER, SOLVATOR, interface openCOSMO-RS
   S Lehtola, MJT Oliveira, MAL Marques          : LibXC Library
   Liviu Ungur et al                             : ANISO software


 Your calculation uses the libint2 library for the computation of 2-el integrals
 For citations please refer to: http://libint.valeyev.net

 Your ORCA version has been built with support for libXC version: 6.2.2
 For citations please refer to: https://libxc.gitlab.io

 This ORCA versions uses:
   CBLAS   interface :  Fast vector & matrix operations
   LAPACKE interface :  Fast linear algebra routines
   SCALAPACK package :  Parallel linear algebra routines
   Shared memory     :  Shared parallel matrices
   BLAS/LAPACK       :  OpenBLAS 0.3.27  USE64BITINT DYNAMIC_ARCH NO_AFFINITY SkylakeX SINGLE_THREADED
        Core in use  :  SkylakeX
   Copyright (c) 2011-2014, The OpenBLAS Project


NOTE: MaxCore=3000 MB was set to SCF,MP2,MDCI,CIPSI,MRCI and CIS
      => If you want to overwrite this, your respective input block should be placed after the MaxCore statement
Your calculation utilizes the atom-pairwise dispersion correction
with the Becke-Johnson damping scheme (D3BJ)


Warning: RI is on but no J-basis has been assigned. Assigning Def2/J (nothing to worry about!)
================================================================================

----- Orbital basis set information -----
Your calculation utilizes the basis: def2-SV(P)
   F. Weigend and R. Ahlrichs, Phys. Chem. Chem. Phys. 7, 3297 (2005).

----- AuxJ basis set information -----
Your calculation utilizes the auxiliary basis: def2/J
   F. Weigend, Phys. Chem. Chem. Phys. 8, 1057 (2006).

================================================================================
                                        WARNINGS
                       Please study these warnings very carefully!
================================================================================


WARNING: your system is open-shell and RHF/RKS was chosen
  ===> : WILL SWITCH to UHF/UKS


WARNING: Geometry Optimization
  ===> : Switching off AutoStart
         For restart on a previous wavefunction, please use MOREAD

================================================================================
                                       INPUT FILE
================================================================================
NAME = cs_rporg_076_ox_opt_01.inp
|  1> !PBE0 def2-SV(p) Opt Freq d3 TightSCF SlowConv RIJCOSX defgrid2
|  2>  
|  3> %pal
|  4> nprocs 4
|  5> end
|  6>  
|  7> %scf
|  8> MaxIter 1500
|  9> end
| 10>  
| 11> %maxcore 3000
| 12>  
| 13> 
| 14>  
| 15> * xyz 1 2
| 16> C    -1.9598752   -1.0958377   -0.3876622 
| 17> C    -1.2466290    0.2788443   -0.2013813 
| 18> N     0.0160231    0.0609648    0.3902936 
| 19> H     0.0608423    0.0460395    1.4069850 
| 20> C     1.2215921   -0.1317520   -0.3172571 
| 21> C     1.8991807    1.2549730   -0.5469378 
| 22> H     2.1565514    1.7035146    0.4085905 
| 23> H     1.2325678    1.9171429   -1.0925711 
| 24> H     2.8042420    1.0988236   -1.1261559 
| 25> C     2.1729749   -1.0469771    0.4436056 
| 26> H     1.7189896   -2.0248087    0.5918228 
| 27> H     3.0908832   -1.1719513   -0.1237902 
| 28> H     2.4325394   -0.6322405    1.4157353 
| 29> H     0.9884824   -0.5339757   -1.3123313 
| 30> C    -2.1127551    1.1911007    0.6593103 
| 31> H    -1.6219493    2.1511612    0.8056773 
| 32> H    -2.3121507    0.7490593    1.6335208 
| 33> H    -3.0661748    1.3591338    0.1658685 
| 34> H    -1.1007888    0.6958709   -1.2067572 
| 35> H    -1.3592933   -1.7530460   -1.0102187 
| 36> H    -2.1254639   -1.5617639    0.5798158 
| 37> H    -2.9169019   -0.9189535   -0.8696698
| 38> *
| 39> 
| 40>                          ****END OF INPUT****
================================================================================

                       *****************************
                       * Geometry Optimization Run *
                       *****************************

Geometry optimization settings:
Update method            Update   .... BFGS
Choice of coordinates    CoordSys .... (2022) Redundant Internals
Initial Hessian          InHess   .... Almloef's Model
Max. no of cycles        MaxIter  .... 66

Convergence Tolerances:
Energy Change            TolE     ....  5.0000e-06 Eh
Max. Gradient            TolMAXG  ....  3.0000e-04 Eh/bohr
RMS Gradient             TolRMSG  ....  1.0000e-04 Eh/bohr
Max. Displacement        TolMAXD  ....  4.0000e-03 bohr
RMS Displacement         TolRMSD  ....  2.0000e-03 bohr
Strict Convergence                .... False

------------------------------------------------------------------------------
                        ORCA OPTIMIZATION COORDINATE SETUP
------------------------------------------------------------------------------

The optimization will be done in redundant internal coordinates (2022)
Making redundant internal coordinates   ...  (2022 redundants) done
Evaluating the initial hessian          ...  (Almloef) done
Evaluating the coordinates              ...  done
Calculating the B-matrix                .... done
Calculating the G-matrix                .... done
Diagonalizing the G-matrix              .... done
Small eigenvalue found = 2.567e-02
The first mode is                       ....   34
The number of degrees of freedom        ....   60

    -----------------------------------------------------------------
                    Redundant Internal Coordinates


    -----------------------------------------------------------------
         Definition                    Initial Value    Approx d2E/dq
    -----------------------------------------------------------------
      1. B(C   1,C   0)                  1.5599         0.334760   
      2. B(N   2,C   1)                  1.4113         0.517430   
      3. B(H   3,N   2)                  1.0178         0.420503   
      4. B(C   4,N   2)                  1.4111         0.517885   
      5. B(C   5,C   4)                  1.5604         0.334085   
      6. B(H   6,C   5)                  1.0865         0.364771   
      7. B(H   7,C   5)                  1.0865         0.364714   
      8. B(H   8,C   5)                  1.0858         0.365668   
      9. B(C   9,C   4)                  1.5237         0.382314   
     10. B(H  10,C   9)                  1.0882         0.362461   
     11. B(H  11,C   9)                  1.0863         0.364988   
     12. B(H  12,C   9)                  1.0883         0.362344   
     13. B(H  13,C   4)                  1.0983         0.349266   
     14. B(C  14,C   1)                  1.5242         0.381624   
     15. B(H  15,C  14)                  1.0881         0.362581   
     16. B(H  16,C  14)                  1.0882         0.362449   
     17. B(H  17,C  14)                  1.0866         0.364608   
     18. B(H  18,C   1)                  1.0982         0.349462   
     19. B(H  19,C   0)                  1.0864         0.364935   
     20. B(H  20,C   0)                  1.0865         0.364736   
     21. B(H  21,C   0)                  1.0861         0.365354   
     22. A(H  20,C   0,H  21)          109.3134         0.292089   
     23. A(C   1,C   0,H  19)          110.4135         0.319242   
     24. A(H  19,C   0,H  21)          109.3507         0.292115   
     25. A(C   1,C   0,H  20)          109.9540         0.319213   
     26. A(H  19,C   0,H  20)          109.5792         0.292037   
     27. A(C   1,C   0,H  21)          108.2035         0.319302   
     28. A(C   0,C   1,H  18)          106.6222         0.316995   
     29. A(C   0,C   1,C  14)          109.5765         0.357918   
     30. A(N   2,C   1,C  14)          111.3493         0.383330   
     31. A(C   0,C   1,N   2)          108.8502         0.374730   
     32. A(C  14,C   1,H  18)          111.4170         0.323858   
     33. A(N   2,C   1,H  18)          108.8822         0.338541   
     34. A(C   1,N   2,C   4)          125.1154         0.401794   
     35. A(H   3,N   2,C   4)          117.4683         0.346234   
     36. A(C   1,N   2,H   3)          117.4157         0.346182   
     37. A(C   5,C   4,C   9)          109.6436         0.357905   
     38. A(N   2,C   4,C   9)          111.4136         0.383509   
     39. A(C   9,C   4,H  13)          111.4052         0.323924   
     40. A(C   5,C   4,H  13)          106.5148         0.316862   
     41. A(N   2,C   4,H  13)          108.8429         0.338559   
     42. A(N   2,C   4,C   5)          108.8703         0.374657   
     43. A(C   4,C   5,H   7)          110.4323         0.319105   
     44. A(C   4,C   5,H   6)          109.8949         0.319113   
     45. A(H   7,C   5,H   8)          109.3384         0.292126   
     46. A(H   6,C   5,H   8)          109.3331         0.292133   
     47. A(C   4,C   5,H   8)          108.2199         0.319241   
     48. A(H   6,C   5,H   7)          109.5959         0.292013   
     49. A(C   4,C   9,H  11)          109.6256         0.326277   
     50. A(C   4,C   9,H  10)          110.3196         0.325904   
     51. A(H  11,C   9,H  12)          107.9907         0.291741   
     52. A(H  10,C   9,H  12)          108.6789         0.291423   
     53. A(C   4,C   9,H  12)          111.4729         0.325886   
     54. A(H  10,C   9,H  11)          108.6792         0.291756   
     55. A(H  16,C  14,H  17)          107.9734         0.291707   
     56. A(H  15,C  14,H  17)          108.6877         0.291723   
     57. A(C   1,C  14,H  17)          109.5556         0.326124   
     58. A(H  15,C  14,H  16)          108.7005         0.291451   
     59. A(C   1,C  14,H  16)          111.5013         0.325805   
     60. A(C   1,C  14,H  15)          110.3478         0.325825   
     61. D(C  14,C   1,C   0,H  20)    -59.6788         0.009100   
     62. D(N   2,C   1,C   0,H  19)    -58.7259         0.009100   
     63. D(N   2,C   1,C   0,H  20)     62.3062         0.009100   
     64. D(N   2,C   1,C   0,H  21)   -178.3671         0.009100   
     65. D(C  14,C   1,C   0,H  19)    179.2890         0.009100   
     66. D(C  14,C   1,C   0,H  21)     59.6479         0.009100   
     67. D(H   3,N   2,C   1,C   0)    -88.4815         0.023029   
     68. D(C   4,N   2,C   1,C   0)     91.8181         0.023029   
     69. D(C   4,N   2,C   1,C  14)   -147.2788         0.023029   
     70. D(H   3,N   2,C   1,C  14)     32.4216         0.023029   
     71. D(H   3,N   2,C   1,H  18)    155.6546         0.023029   
     72. D(C   9,C   4,N   2,C   1)   -148.6968         0.023071   
     73. D(C   5,C   4,N   2,H   3)    -89.4377         0.023071   
     74. D(C   9,C   4,N   2,H   3)     31.6029         0.023071   
     75. D(C   5,C   4,N   2,C   1)     90.2625         0.023071   
     76. D(H  13,C   4,N   2,C   1)    -25.4632         0.023071   
     77. D(H   7,C   5,C   4,H  13)     59.1104         0.009067   
     78. D(H   7,C   5,C   4,C   9)    179.7755         0.009067   
     79. D(H   7,C   5,C   4,N   2)    -58.1056         0.009067   
     80. D(H   6,C   5,C   4,H  13)   -179.8630         0.009067   
     81. D(H   6,C   5,C   4,C   9)    -59.1979         0.009067   
     82. D(H   6,C   5,C   4,N   2)     62.9210         0.009067   
     83. D(H  11,C   9,C   4,H  13)     58.4706         0.011642   
     84. D(H  11,C   9,C   4,C   5)    -59.1822         0.011642   
     85. D(H  11,C   9,C   4,N   2)   -179.7699         0.011642   
     86. D(H  10,C   9,C   4,H  13)    -61.1747         0.011642   
     87. D(H  10,C   9,C   4,C   5)   -178.8275         0.011642   
     88. D(H  10,C   9,C   4,N   2)     60.5848         0.011642   
     89. D(H  15,C  14,C   1,H  18)    -62.8149         0.011602   
     90. D(H  15,C  14,C   1,N   2)     58.9581         0.011602   
     91. D(H  15,C  14,C   1,C   0)    179.4348         0.011602   
     92. D(H  16,C  14,C   1,H  18)    176.2791         0.011602   
     93. D(H  16,C  14,C   1,N   2)    -61.9478         0.011602   
     94. D(H  16,C  14,C   1,C   0)     58.5288         0.011602   
    -----------------------------------------------------------------

Number of atoms                         .... 22
Number of degrees of freedom            .... 94


         *************************************************************
         *                GEOMETRY OPTIMIZATION CYCLE   1            *
         *************************************************************
---------------------------------
CARTESIAN COORDINATES (ANGSTROEM)
---------------------------------
  C     -1.959875   -1.095838   -0.387662
  C     -1.246629    0.278844   -0.201381
  N      0.016023    0.060965    0.390294
  H      0.060842    0.046039    1.406985
  C      1.221592   -0.131752   -0.317257
  C      1.899181    1.254973   -0.546938
  H      2.156551    1.703515    0.408591
  H      1.232568    1.917143   -1.092571
  H      2.804242    1.098824   -1.126156
  C      2.172975   -1.046977    0.443606
  H      1.718990   -2.024809    0.591823
  H      3.090883   -1.171951   -0.123790
  H      2.432539   -0.632240    1.415735
  H      0.988482   -0.533976   -1.312331
  C     -2.112755    1.191101    0.659310
  H     -1.621949    2.151161    0.805677
  H     -2.312151    0.749059    1.633521
  H     -3.066175    1.359134    0.165869
  H     -1.100789    0.695871   -1.206757
  H     -1.359293   -1.753046   -1.010219
  H     -2.125464   -1.561764    0.579816
  H     -2.916902   -0.918953   -0.869670

----------------------------
CARTESIAN COORDINATES (A.U.)
----------------------------
  NO LB      ZA    FRAG     MASS         X           Y           Z
   0 C     6.0000    0    12.011   -3.703627   -2.070833   -0.732575
   1 C     6.0000    0    12.011   -2.355787    0.526939   -0.380556
   2 N     7.0000    0    14.007    0.030279    0.115207    0.737548
   3 H     1.0000    0     1.008    0.114975    0.087002    2.658816
   4 C     6.0000    0    12.011    2.308475   -0.248975   -0.599529
   5 C     6.0000    0    12.011    3.588931    2.371555   -1.033563
   6 H     1.0000    0     1.008    4.075292    3.219176    0.772124
   7 H     1.0000    0     1.008    2.329216    3.622875   -2.064660
   8 H     1.0000    0     1.008    5.299249    2.076476   -2.128126
   9 C     6.0000    0    12.011    4.106327   -1.978500    0.838293
  10 H     1.0000    0     1.008    3.248420   -3.826334    1.118383
  11 H     1.0000    0     1.008    5.840923   -2.214667   -0.233930
  12 H     1.0000    0     1.008    4.596833   -1.194761    2.675352
  13 H     1.0000    0     1.008    1.867961   -1.009068   -2.479947
  14 C     6.0000    0    12.011   -3.992529    2.250854    1.245916
  15 H     1.0000    0     1.008   -3.065040    4.065106    1.522509
  16 H     1.0000    0     1.008   -4.369332    1.415517    3.086907
  17 H     1.0000    0     1.008   -5.794231    2.568391    0.313446
  18 H     1.0000    0     1.008   -2.080189    1.315005   -2.280441
  19 H     1.0000    0     1.008   -2.568692   -3.312777   -1.909037
  20 H     1.0000    0     1.008   -4.016545   -2.951306    1.095693
  21 H     1.0000    0     1.008   -5.512146   -1.736570   -1.643438

--------------------------------
INTERNAL COORDINATES (ANGSTROEM)
--------------------------------
 C      0   0   0     0.000000000000     0.00000000     0.00000000
 C      1   0   0     1.559862595437     0.00000000     0.00000000
 N      2   1   0     1.411325968529   108.85017589     0.00000000
 H      3   2   1     1.017788253078   117.41565948   271.51850537
 C      3   2   1     1.411086238270   125.11543165    91.81813166
 C      5   3   2     1.560412048283   108.87028069    90.26249927
 H      6   5   3     1.086491406432   109.89490209    62.92103060
 H      6   5   3     1.086534598152   110.43231310   301.89440246
 H      6   5   3     1.085823281775   108.21990690   182.24704847
 C      5   3   2     1.523705438744   111.41355957   211.30316051
 H     10   5   3     1.088221314325   110.31957155    60.58480383
 H     10   5   3     1.086329688323   109.62558928   180.23008594
 H     10   5   3     1.088308931628   111.47289118   299.74425116
 H      5   3   2     1.098315392126   108.84287744   334.53681910
 C      2   1   3     1.524196900257   109.57654249   238.01498839
 H     15   2   1     1.088131331992   110.34776379   179.43475106
 H     15   2   1     1.088230353796   111.50126803    58.52877431
 H     15   2   1     1.086613573001   109.55558989   299.06404027
 H      2   1   3     1.098162669801   106.62224546   117.30959926
 H      1   2   3     1.086369165564   110.41351077   301.27405962
 H      1   2   3     1.086517612328   109.95400200    62.30622785
 H      1   2   3     1.086056836073   108.20350795   181.63290969

---------------------------
INTERNAL COORDINATES (A.U.)
---------------------------
 C      0   0   0     0.000000000000     0.00000000     0.00000000
 C      1   0   0     2.947713111923     0.00000000     0.00000000
 N      2   1   0     2.667019566211   108.85017589     0.00000000
 H      3   2   1     1.923341060639   117.41565948   271.51850537
 C      3   2   1     2.666566541675   125.11543165    91.81813166
 C      5   3   2     2.948751427326   108.87028069    90.26249927
 H      6   5   3     2.053171205015   109.89490209    62.92103060
 H      6   5   3     2.053252825537   110.43231310   301.89440246
 H      6   5   3     2.051908632391   108.21990690   182.24704847
 C      5   3   2     2.879385987992   111.41355957   211.30316051
 H     10   5   3     2.056440257169   110.31957155    60.58480383
 H     10   5   3     2.052865602079   109.62558928   180.23008594
 H     10   5   3     2.056605829878   111.47289118   299.74425116
 H      5   3   2     2.075515299789   108.84287744   334.53681910
 C      2   1   3     2.880314715657   109.57654249   238.01498839
 H     15   2   1     2.056270215204   110.34776379   179.43475106
 H     15   2   1     2.056457339295   111.50126803    58.52877431
 H     15   2   1     2.053402066374   109.55558989   299.06404027
 H      2   1   3     2.075226696420   106.62224546   117.30959926
 H      1   2   3     2.052940203253   110.41351077   301.27405962
 H      1   2   3     2.053220726981   109.95400200    62.30622785
 H      1   2   3     2.052349986050   108.20350795   181.63290969

---------------------
BASIS SET INFORMATION
---------------------
There are 3 groups of distinct atoms

 Group   1 Type C   : 7s4p1d contracted to 3s2p1d pattern {511/31/1}
 Group   2 Type N   : 7s4p1d contracted to 3s2p1d pattern {511/31/1}
 Group   3 Type H   : 4s contracted to 2s pattern {31}

Atom   0C    basis set group =>   1
Atom   1C    basis set group =>   1
Atom   2N    basis set group =>   2
Atom   3H    basis set group =>   3
Atom   4C    basis set group =>   1
Atom   5C    basis set group =>   1
Atom   6H    basis set group =>   3
Atom   7H    basis set group =>   3
Atom   8H    basis set group =>   3
Atom   9C    basis set group =>   1
Atom  10H    basis set group =>   3
Atom  11H    basis set group =>   3
Atom  12H    basis set group =>   3
Atom  13H    basis set group =>   3
Atom  14C    basis set group =>   1
Atom  15H    basis set group =>   3
Atom  16H    basis set group =>   3
Atom  17H    basis set group =>   3
Atom  18H    basis set group =>   3
Atom  19H    basis set group =>   3
Atom  20H    basis set group =>   3
Atom  21H    basis set group =>   3
---------------------------------
AUXILIARY/J BASIS SET INFORMATION
---------------------------------
There are 3 groups of distinct atoms

 Group   1 Type C   : 12s5p4d2f1g contracted to 6s4p3d1f1g pattern {711111/2111/211/2/1}
 Group   2 Type N   : 12s5p4d2f1g contracted to 6s4p3d1f1g pattern {711111/2111/211/2/1}
 Group   3 Type H   : 5s2p1d contracted to 3s1p1d pattern {311/2/1}

Atom   0C    basis set group =>   1
Atom   1C    basis set group =>   1
Atom   2N    basis set group =>   2
Atom   3H    basis set group =>   3
Atom   4C    basis set group =>   1
Atom   5C    basis set group =>   1
Atom   6H    basis set group =>   3
Atom   7H    basis set group =>   3
Atom   8H    basis set group =>   3
Atom   9C    basis set group =>   1
Atom  10H    basis set group =>   3
Atom  11H    basis set group =>   3
Atom  12H    basis set group =>   3
Atom  13H    basis set group =>   3
Atom  14C    basis set group =>   1
Atom  15H    basis set group =>   3
Atom  16H    basis set group =>   3
Atom  17H    basis set group =>   3
Atom  18H    basis set group =>   3
Atom  19H    basis set group =>   3
Atom  20H    basis set group =>   3
Atom  21H    basis set group =>   3


           ************************************************************
           *        Program running with 4 parallel MPI-processes     *
           *              working on a common directory               *
           ************************************************************
------------------------------------------------------------------------------
                             ORCA STARTUP CALCULATIONS
                           -- RI-GTO INTEGRALS CHOSEN --
------------------------------------------------------------------------------
------------------------------------------------------------------------------
                   ___                                                        
                  /   \      - P O W E R E D   B Y -                         
                 /     \                                                     
                 |  |  |   _    _      __       _____    __    __             
                 |  |  |  | |  | |    /  \     |  _  \  |  |  /  |          
                  \  \/   | |  | |   /    \    | | | |  |  | /  /          
                 / \  \   | |__| |  /  /\  \   | |_| |  |  |/  /          
                |  |  |   |  __  | /  /__\  \  |    /   |      \           
                |  |  |   | |  | | |   __   |  |    \   |  |\   \          
                \     /   | |  | | |  |  |  |  | |\  \  |  | \   \       
                 \___/    |_|  |_| |__|  |__|  |_| \__\ |__|  \__/        
                                                                              
                      - O R C A' S   B I G   F R I E N D -                    
                                      &                                       
                       - I N T E G R A L  F E E D E R -                       
                                                                              
 v1 FN, 2020, v2 2021, v3 2022-2024                                           
------------------------------------------------------------------------------


----------------------
SHARK INTEGRAL PACKAGE
----------------------

Number of atoms                             ...     22
Number of basis functions                   ...    128
Number of shells                            ...     72
Maximum angular momentum                    ...      2
Integral batch strategy                     ... SHARK/LIBINT Hybrid
RI-J (if used) integral strategy            ... SPLIT-RIJ (Revised 2003 algorithm where possible)
Printlevel                                  ...      1
Contraction scheme used                     ... SEGMENTED contraction
Prescreening option                         ... SCHWARTZ
   Thresh                                   ... 2.500e-11
   Tcut                                     ... 2.500e-12
   Tpresel                                  ... 2.500e-12 
Coulomb Range Separation                    ... NOT USED
Exchange Range Separation                   ... NOT USED
Multipole approximations                    ... NOT USED
Finite Nucleus Model                        ... NOT USED
CABS basis                                  ... NOT available
Auxiliary Coulomb fitting basis             ... AVAILABLE
   # of basis functions in Aux-J            ...    508
   # of shells in Aux-J                     ...    180
   Maximum angular momentum in Aux-J        ...      4
Auxiliary J/K fitting basis                 ... NOT available
Auxiliary Correlation fitting basis         ... NOT available
Auxiliary 'external' fitting basis          ... NOT available

Checking pre-screening integrals            ... done (  0.0 sec) Dimension = 72
Check shell pair data                       ... done (  0.0 sec)
Shell pair information
Shell pair cut-off parameter TPreSel        ...   2.5e-12
Total number of shell pairs                 ...      2628
Shell pairs after pre-screening             ...      2548
Total number of primitive shell pairs       ...     10576
Primitive shell pairs kept                  ...      7440
          la=0 lb=0:   1271 shell pairs
          la=1 lb=0:    704 shell pairs
          la=1 lb=1:    105 shell pairs
          la=2 lb=0:    343 shell pairs
          la=2 lb=1:     98 shell pairs
          la=2 lb=2:     27 shell pairs

Calculating one electron integrals          ... done (  0.0 sec)
Calculating RI/J V-Matrix + Cholesky decomp.... done (  0.1 sec)
Calculating Nuclear repulsion               ... done (  0.0 sec) ENN=    335.697269706458 Eh

Diagonalization of the overlap matrix:
Smallest eigenvalue                        ... 1.957e-03
Time for diagonalization                   ...    0.003 sec
Threshold for overlap eigenvalues          ... 1.000e-07
Number of eigenvalues below threshold      ... 0
Time for construction of square roots      ...    0.015 sec
Total time needed                          ...    0.050 sec

-------------------
DFT GRID GENERATION
-------------------

General Integration Accuracy     IntAcc      ... 4.388
Radial Grid Type                 RadialGrid  ... OptM3 with GC (2021)
Angular Grid (max. ang.)         AngularGrid ... 4 (Lebedev-302)
Angular grid pruning method      GridPruning ... 4 (adaptive)
Weight generation scheme         WeightScheme... mBecke (2022)
Basis function cutoff            BFCut       ... 1.0000e-11
Integration weight cutoff        WCut        ... 1.0000e-14
Partially contracted basis set               ... off
Rotationally invariant grid construction     ... off
Angular grids for H and He will be reduced by one unit

Total number of grid points                  ...    90014
Total number of batches                      ...     1418
Average number of points per batch           ...       63
Average number of grid points per atom       ...     4092

--------------------
COSX GRID GENERATION
--------------------

GRIDX 1
-------
General Integration Accuracy     IntAcc      ... 3.816
Radial Grid Type                 RadialGrid  ... OptM3 with GC (2021)
Angular Grid (max. ang.)         AngularGrid ... 1 (Lebedev-50)
Angular grid pruning method      GridPruning ... 4 (adaptive)
Weight generation scheme         WeightScheme... mBecke (2022)
Basis function cutoff            BFCut       ... 1.0000e-11
Integration weight cutoff        WCut        ... 1.0000e-14
Partially contracted basis set               ... on
Rotationally invariant grid construction     ... off
Angular grids for H and He will be reduced by one unit

Total number of grid points                  ...    11568
Total number of batches                      ...      104
Average number of points per batch           ...      111
Average number of grid points per atom       ...      526
UseSFitting                                  ... on

GRIDX 2
-------
General Integration Accuracy     IntAcc      ... 4.020
Radial Grid Type                 RadialGrid  ... OptM3 with GC (2021)
Angular Grid (max. ang.)         AngularGrid ... 2 (Lebedev-110)
Angular grid pruning method      GridPruning ... 4 (adaptive)
Weight generation scheme         WeightScheme... mBecke (2022)
Basis function cutoff            BFCut       ... 1.0000e-11
Integration weight cutoff        WCut        ... 1.0000e-14
Partially contracted basis set               ... on
Rotationally invariant grid construction     ... off
Angular grids for H and He will be reduced by one unit

Total number of grid points                  ...    23747
Total number of batches                      ...      198
Average number of points per batch           ...      119
Average number of grid points per atom       ...     1079
UseSFitting                                  ... on

GRIDX 3
-------
General Integration Accuracy     IntAcc      ... 4.338
Radial Grid Type                 RadialGrid  ... OptM3 with GC (2021)
Angular Grid (max. ang.)         AngularGrid ... 3 (Lebedev-194)
Angular grid pruning method      GridPruning ... 4 (adaptive)
Weight generation scheme         WeightScheme... mBecke (2022)
Basis function cutoff            BFCut       ... 1.0000e-11
Integration weight cutoff        WCut        ... 1.0000e-14
Partially contracted basis set               ... on
Rotationally invariant grid construction     ... off
Angular grids for H and He will be reduced by one unit

Total number of grid points                  ...    51724
Total number of batches                      ...      416
Average number of points per batch           ...      124
Average number of grid points per atom       ...     2351
UseSFitting                                  ... on
Initializing property integral containers    ... done (  0.1 sec)

SHARK setup successfully completed in   2.4 seconds

Maximum memory used throughout the entire STARTUP-calculation: 23.8 MB


           ************************************************************
           *        Program running with 4 parallel MPI-processes     *
           *              working on a common directory               *
           ************************************************************
-------------------------------------------------------------------------------
                                 ORCA GUESS
                   Start orbitals & Density for SCF / CASSCF
-------------------------------------------------------------------------------

------------
SCF SETTINGS
------------
Hamiltonian:
 Density Functional     Method          .... DFT(GTOs)
 Exchange Functional    Exchange        .... PBE
   PBE kappa parameter   XKappa         ....  0.804000
   PBE mue parameter    XMuePBE         ....  0.219520
 Correlation Functional Correlation     .... PBE
   PBE beta parameter  CBetaPBE         ....  0.066725
 LDA part of GGA corr.  LDAOpt          .... PW91-LDA
 Gradients option       PostSCFGGA      .... off
 Hybrid DFT is turned on
   Fraction HF Exchange ScalHFX         ....  0.250000
   Scaling of DF-GGA-X  ScalDFX         ....  0.750000
   Scaling of DF-GGA-C  ScalDFC         ....  1.000000
   Scaling of DF-LDA-C  ScalLDAC        ....  1.000000
   Perturbative correction              ....  0.000000
   NL short-range parameter             ....  6.900000
 RI-approximation to the Coulomb term is turned on
   Number of AuxJ basis functions       .... 508
   RIJ-COSX (HFX calculated with COS-X)).... on


General Settings:
 Integral files         IntName         .... cs_rporg_076_ox_opt_01
 Hartree-Fock type      HFTyp           .... UHF
 Total Charge           Charge          ....    1
 Multiplicity           Mult            ....    2
 Number of Electrons    NEL             ....   57
 Basis Dimension        Dim             ....  128
 Nuclear Repulsion      ENuc            ....    335.6972697065 Eh

Convergence Acceleration:
 AO-DIIS                CNVDIIS         .... on
   Start iteration      DIISMaxIt       ....     0
   Startup error        DIISStart       ....  0.200000
   # of expansion vecs  DIISMaxEq       ....     5
   Bias factor          DIISBfac        ....   1.050
   Max. coefficient     DIISMaxC        ....  10.000
 MO-DIIS                CNVKDIIS        .... off
 Trust-Rad. Augm. Hess. CNVTRAH         .... auto
   Auto Start mean grad. ratio tolernc. ....  1.125000
   Auto Start start iteration           ....    50
   Auto Start num. interpolation iter.  ....    10
   Max. Number of Micro iterations      ....    24
   Max. Number of Macro iterations      .... Maxiter - #DIIS iter
   Number of Davidson start vectors     ....     2
   Converg. threshold    (grad. norm)   ....   1.000e-05
   Grad. Scal. Fac. for Micro threshold ....   0.100
   Minimum threshold for Micro iter.    ....   1.000e-02
   NR start threshold (gradient norm)   ....   1.000e-04
   Initial trust radius                 ....   0.400
   Minimum AH scaling param. (alpha)    ....   1.000
   Maximum AH scaling param. (alpha)    .... 1000.000
   Quad. conv. algorithm                .... NR
   White noise on init. David. guess    .... on
   Maximum white noise                  ....   0.010
   Pseudo random numbers                .... off
   Inactive MOs                         .... canonical
   Orbital update algorithm             .... Taylor
   Preconditioner                       .... Diag
   Full preconditioner red. dimension   ....   250
 SOSCF                  CNVSOSCF        .... on
   Start iteration      SOSCFMaxIt      ....   150
   Startup grad/error   SOSCFStart      ....  0.001000
   Hessian update       SOSCFHessUp     .... L-BFGS
 Level Shifting         CNVShift        .... on
   Level shift para.    LevelShift      ....    0.2500
   Turn off err/grad.   ShiftErr        ....    0.0000
 Zerner damping         CNVZerner       .... off
 Static damping         CNVDamp         .... on
   Fraction old density DampFac         ....    0.8500
   Max. Damping (<1)    DampMax         ....    0.9800
   Min. Damping (>=0)   DampMin         ....    0.0000
   Turn off err/grad.   DampErr         ....    0.0300

SCF Procedure:
 Maximum # iterations   MaxIter         ....  1500
 SCF integral mode      SCFMode         .... Direct
   Integral package                     .... SHARK and LIBINT hybrid scheme
 Reset frequency        DirectResetFreq ....    20
 Integral Threshold     Thresh          ....  2.500e-11 Eh
 Primitive CutOff       TCut            ....  2.500e-12 Eh

Convergence Tolerance:
 Convergence Check Mode ConvCheckMode   .... Total+1el-Energy
 Convergence forced     ConvForced      .... 0
 Energy Change          TolE            ....  1.000e-08 Eh
 1-El. energy change                    ....  1.000e-05 Eh
 Orbital Gradient       TolG            ....  1.000e-05
 Orbital Rotation angle TolX            ....  1.000e-05
 DIIS Error             TolErr          ....  5.000e-07

------------------------------
INITIAL GUESS: MODEL POTENTIAL
------------------------------
Loading Hartree-Fock densities                     ... done
Calculating cut-offs                               ... done
Initializing the effective Hamiltonian             ... done
Setting up the integral package (SHARK)            ... done
Starting the Coulomb interaction                   ... done (   0.1 sec)
Making the grid                                    ... done (   0.2 sec)
Mapping shells                                     ... done
Starting the XC term evaluation                    ... done (   0.1 sec)
  promolecular density results
     # of electrons  =     57.994416558
     EX              =    -41.684999683
     EC              =     -1.886231418
     EX+EC           =    -43.571231101
Transforming the Hamiltonian                       ... done (   0.0 sec)
Diagonalizing the Hamiltonian                      ... done (   0.0 sec)
Back transforming the eigenvectors                 ... done (   0.1 sec)
Now organizing SCF variables                       ... done
                      ------------------
                      INITIAL GUESS DONE (   0.7 sec)
                      ------------------
             **** ENERGY FILE WAS UPDATED (cs_rporg_076_ox_opt_01.en.tmp) ****
Finished Guess after   1.5 sec
Maximum memory used throughout the entire GUESS-calculation: 12.2 MB


           ************************************************************
           *        Program running with 4 parallel MPI-processes     *
           *              working on a common directory               *
           ************************************************************

-------------------------------------------------------------------------------------------
                                      ORCA LEAN-SCF
                              memory conserving SCF solver
-------------------------------------------------------------------------------------------

----------------------------------------D-I-I-S--------------------------------------------
Iteration    Energy (Eh)           Delta-E    RMSDP     MaxDP     DIISErr   Damp  Time(sec)
-------------------------------------------------------------------------------------------
               ***  Starting incremental Fock matrix formation  ***
    1    -291.3717060413907234     0.00e+00  9.22e-04  1.92e-02  6.99e-02  0.850   2.8
    2    -291.4130031638375726    -4.13e-02  8.88e-04  1.71e-02  5.37e-02  0.850   2.7
                               ***Turning on AO-DIIS***
    3    -291.4414147814511011    -2.84e-02  5.68e-04  9.26e-03  3.83e-02  0.850   2.5
    4    -291.4603056864038422    -1.89e-02  4.28e-04  7.23e-03  3.04e-02  0.850   2.4
    5    -291.4740912771114267    -1.38e-02  3.46e-04  5.75e-03  2.52e-02  0.850   2.3
    6    -291.4848906234823858    -1.08e-02  1.93e-03  3.11e-02  2.13e-02  0.000   2.4
    7    -291.5374582537891115    -5.26e-02  7.85e-05  2.10e-03  1.74e-03  0.000   2.2
                              *** Initializing SOSCF ***
---------------------------------------S-O-S-C-F--------------------------------------
Iteration    Energy (Eh)           Delta-E    RMSDP     MaxDP     MaxGrad    Time(sec)
--------------------------------------------------------------------------------------
    8    -291.5375360169627470    -7.78e-05  4.60e-05  1.54e-03  9.84e-04     2.6
               *** Restarting incremental Fock matrix formation ***
    9    -291.5374412186931181     9.48e-05  3.73e-05  1.68e-03  8.85e-04     2.7
   10    -291.5374510428360395    -9.82e-06  4.16e-05  1.31e-03  3.01e-04     2.4
   11    -291.5374534362652525    -2.39e-06  1.42e-05  4.02e-04  1.78e-04     2.4
   12    -291.5374546024642655    -1.17e-06  3.89e-06  6.48e-05  2.25e-05     2.1
   13    -291.5374546126369637    -1.02e-08  1.72e-06  2.98e-05  2.21e-05     2.9
   14    -291.5374546406473542    -2.80e-08  3.26e-07  7.86e-06  2.76e-06     2.4
   15    -291.5374546386646557     1.98e-09  1.24e-07  2.50e-06  1.07e-06     1.7
                 **** Energy Check signals convergence ****

               *****************************************************
               *                     SUCCESS                       *
               *           SCF CONVERGED AFTER  15 CYCLES          *
               *****************************************************

Recomputing exchange energy using gridx3       ... done (    2.005 sec)
Old exchange energy                            :    -10.687113270 Eh
New exchange energy                            :    -10.687104065 Eh
Exchange energy change after final integration :      0.000009205 Eh
Total energy after final integration           :   -291.537445433 Eh
             **** ENERGY FILE WAS UPDATED (cs_rporg_076_ox_opt_01.en.tmp) ****

----------------
TOTAL SCF ENERGY
----------------

Total Energy       :       -291.53744543331021 Eh           -7933.13720 eV

Components:
Nuclear Repulsion  :        335.69726970645792 Eh            9134.78711 eV
Electronic Energy  :       -627.23472434512246 Eh          -17067.92457 eV
One Electron Energy:      -1045.50557454030559 Eh          -28449.65304 eV
Two Electron Energy:        418.27085019518307 Eh           11381.72847 eV

Virial components:
Potential Energy   :       -580.42943528648561 Eh          -15794.28790 eV
Kinetic Energy     :        288.89198985317546 Eh            7861.15070 eV
Virial Ratio       :          2.00915724794405

DFT components:
N(Alpha)           :       28.999979700924 electrons
N(Beta)            :       27.999966610154 electrons
N(Total)           :       56.999946311078 electrons
E(X)               :      -31.880000861224 Eh       
E(C)               :       -1.862116557115 Eh       
E(XC)              :      -33.742117418339 Eh       

---------------
SCF CONVERGENCE
---------------

  Last Energy change         ...   -1.9827e-09  Tolerance :   1.0000e-08
  Last MAX-Density change    ...    2.5005e-06  Tolerance :   1.0000e-07
  Last RMS-Density change    ...    1.2384e-07  Tolerance :   5.0000e-09
  Last DIIS Error            ...    9.8376e-04  Tolerance :   5.0000e-07
  Last Orbital Gradient      ...    1.0747e-06  Tolerance :   1.0000e-05
  Last Orbital Rotation      ...    3.4075e-06  Tolerance :   1.0000e-05


----------------------
UHF SPIN CONTAMINATION
----------------------

Warning: in a DFT calculation there is little theoretical justification to 
         calculate <S**2> as in Hartree-Fock theory. We will do it anyways
         but you should keep in mind that the values have only limited relevance

Expectation value of <S**2>     :     0.754785
Ideal value S*(S+1) for S=0.5   :     0.750000
Deviation                       :     0.004785

----------------
ORBITAL ENERGIES
----------------
                 SPIN UP ORBITALS
  NO   OCC          E(Eh)            E(eV) 
   0   1.0000     -14.694823      -399.8665 
   1   1.0000     -10.470192      -284.9084 
   2   1.0000     -10.470099      -284.9059 
   3   1.0000     -10.399477      -282.9842 
   4   1.0000     -10.399259      -282.9782 
   5   1.0000     -10.388963      -282.6981 
   6   1.0000     -10.388766      -282.6927 
   7   1.0000      -1.219931       -33.1960 
   8   1.0000      -1.021623       -27.7998 
   9   1.0000      -0.951680       -25.8965 
  10   1.0000      -0.888042       -24.1649 
  11   1.0000      -0.884243       -24.0615 
  12   1.0000      -0.837661       -22.7939 
  13   1.0000      -0.821734       -22.3605 
  14   1.0000      -0.724474       -19.7139 
  15   1.0000      -0.695964       -18.9381 
  16   1.0000      -0.678265       -18.4565 
  17   1.0000      -0.647065       -17.6075 
  18   1.0000      -0.627487       -17.0748 
  19   1.0000      -0.601137       -16.3578 
  20   1.0000      -0.590866       -16.0783 
  21   1.0000      -0.578355       -15.7378 
  22   1.0000      -0.572623       -15.5819 
  23   1.0000      -0.564587       -15.3632 
  24   1.0000      -0.555165       -15.1068 
  25   1.0000      -0.544383       -14.8134 
  26   1.0000      -0.542204       -14.7541 
  27   1.0000      -0.535421       -14.5695 
  28   1.0000      -0.487013       -13.2523 
  29   0.0000      -0.115853        -3.1525 
  30   0.0000      -0.098311        -2.6752 
  31   0.0000      -0.066084        -1.7982 
  32   0.0000      -0.057607        -1.5676 
  33   0.0000      -0.047597        -1.2952 
  34   0.0000      -0.029813        -0.8112 
  35   0.0000      -0.024881        -0.6771 
  36   0.0000      -0.013808        -0.3757 
  37   0.0000      -0.011491        -0.3127 
  38   0.0000       0.000363         0.0099 
  39   0.0000       0.000891         0.0243 

                 SPIN DOWN ORBITALS
  NO   OCC          E(Eh)            E(eV) 
   0   1.0000     -14.676433      -399.3661 
   1   1.0000     -10.470550      -284.9181 
   2   1.0000     -10.470454      -284.9155 
   3   1.0000     -10.397060      -282.9184 
   4   1.0000     -10.396865      -282.9131 
   5   1.0000     -10.388429      -282.6835 
   6   1.0000     -10.388271      -282.6792 
   7   1.0000      -1.186221       -32.2787 
   8   1.0000      -1.016259       -27.6538 
   9   1.0000      -0.939023       -25.5521 
  10   1.0000      -0.880977       -23.9726 
  11   1.0000      -0.880278       -23.9536 
  12   1.0000      -0.829539       -22.5729 
  13   1.0000      -0.817224       -22.2378 
  14   1.0000      -0.714313       -19.4374 
  15   1.0000      -0.689232       -18.7550 
  16   1.0000      -0.643145       -17.5009 
  17   1.0000      -0.641204       -17.4480 
  18   1.0000      -0.620799       -16.8928 
  19   1.0000      -0.597542       -16.2599 
  20   1.0000      -0.584715       -15.9109 
  21   1.0000      -0.575097       -15.6492 
  22   1.0000      -0.570394       -15.5212 
  23   1.0000      -0.559908       -15.2359 
  24   1.0000      -0.543071       -14.7777 
  25   1.0000      -0.542323       -14.7574 
  26   1.0000      -0.540121       -14.6974 
  27   1.0000      -0.527330       -14.3494 
  28   0.0000      -0.338628        -9.2145 
  29   0.0000      -0.110935        -3.0187 
  30   0.0000      -0.096982        -2.6390 
  31   0.0000      -0.065016        -1.7692 
  32   0.0000      -0.055797        -1.5183 
  33   0.0000      -0.041906        -1.1403 
  34   0.0000      -0.028347        -0.7714 
  35   0.0000      -0.023075        -0.6279 
  36   0.0000      -0.012188        -0.3316 
  37   0.0000      -0.009773        -0.2659 
  38   0.0000       0.001467         0.0399 
*Only the first 10 virtual orbitals were printed.

                    ********************************
                    * MULLIKEN POPULATION ANALYSIS *
                    ********************************

--------------------------------------------
MULLIKEN ATOMIC CHARGES AND SPIN POPULATIONS
--------------------------------------------
   0 C :   -0.293302    0.095335
   1 C :   -0.221638   -0.038171
   2 N :   -0.126689    0.813429
   3 H :    0.310945   -0.032966
   4 C :   -0.221402   -0.038383
   5 C :   -0.294749    0.096481
   6 H :    0.165295   -0.001769
   7 H :    0.172331   -0.003713
   8 H :    0.194843    0.012650
   9 C :   -0.323026    0.018555
  10 H :    0.175437    0.002037
  11 H :    0.188885    0.002036
  12 H :    0.162388   -0.000233
  13 H :    0.188009    0.022535
  14 C :   -0.323405    0.019991
  15 H :    0.174748    0.001886
  16 H :    0.162930   -0.000376
  17 H :    0.189328    0.002489
  18 H :    0.187510    0.020953
  19 H :    0.172198   -0.003591
  20 H :    0.164828   -0.001852
  21 H :    0.194535    0.012678
Sum of atomic charges         :    1.0000000
Sum of atomic spin populations:    1.0000000

-----------------------------------------------------
MULLIKEN REDUCED ORBITAL CHARGES AND SPIN POPULATIONS
-----------------------------------------------------
CHARGE
  0 C s       :     3.164226  s :     3.164226
      pz      :     1.099098  p :     3.098170
      px      :     1.062864
      py      :     0.936208
      dz2     :     0.005182  d :     0.030906
      dxz     :     0.006018
      dyz     :     0.007851
      dx2y2   :     0.005232
      dxy     :     0.006623

  1 C s       :     3.163399  s :     3.163399
      pz      :     1.083866  p :     2.998104
      px      :     0.844392
      py      :     1.069847
      dz2     :     0.011170  d :     0.060135
      dxz     :     0.012192
      dyz     :     0.009990
      dx2y2   :     0.015307
      dxy     :     0.011476

  2 N s       :     3.472969  s :     3.472969
      pz      :     1.205754  p :     3.625940
      px      :     1.190983
      py      :     1.229203
      dz2     :     0.010822  d :     0.027780
      dxz     :     0.005843
      dyz     :     0.001586
      dx2y2   :     0.004123
      dxy     :     0.005406

  3 H s       :     0.689055  s :     0.689055

  4 C s       :     3.162857  s :     3.162857
      pz      :     1.057216  p :     2.998394
      px      :     0.870962
      py      :     1.070216
      dz2     :     0.010117  d :     0.060151
      dxz     :     0.014548
      dyz     :     0.009787
      dx2y2   :     0.014374
      dxy     :     0.011325

  5 C s       :     3.165370  s :     3.165370
      pz      :     1.098466  p :     3.098479
      px      :     1.067956
      py      :     0.932057
      dz2     :     0.004739  d :     0.030900
      dxz     :     0.007272
      dyz     :     0.007033
      dx2y2   :     0.004753
      dxy     :     0.007104

  6 H s       :     0.834705  s :     0.834705

  7 H s       :     0.827669  s :     0.827669

  8 H s       :     0.805157  s :     0.805157

  9 C s       :     3.155376  s :     3.155376
      pz      :     1.063222  p :     3.136734
      px      :     1.052424
      py      :     1.021089
      dz2     :     0.006261  d :     0.030915
      dxz     :     0.007101
      dyz     :     0.005076
      dx2y2   :     0.006114
      dxy     :     0.006363

 10 H s       :     0.824563  s :     0.824563

 11 H s       :     0.811115  s :     0.811115

 12 H s       :     0.837612  s :     0.837612

 13 H s       :     0.811991  s :     0.811991

 14 C s       :     3.156113  s :     3.156113
      pz      :     1.048623  p :     3.136375
      px      :     1.067725
      py      :     1.020028
      dz2     :     0.006574  d :     0.030918
      dxz     :     0.006158
      dyz     :     0.005845
      dx2y2   :     0.005956
      dxy     :     0.006386

 15 H s       :     0.825252  s :     0.825252

 16 H s       :     0.837070  s :     0.837070

 17 H s       :     0.810672  s :     0.810672

 18 H s       :     0.812490  s :     0.812490

 19 H s       :     0.827802  s :     0.827802

 20 H s       :     0.835172  s :     0.835172

 21 H s       :     0.805465  s :     0.805465


SPIN
  0 C s       :     0.007656  s :     0.007656
      pz      :     0.007563  p :     0.087227
      px      :     0.026702
      py      :     0.052962
      dz2     :     0.000118  d :     0.000452
      dxz     :     0.000022
      dyz     :    -0.000146
      dx2y2   :     0.000276
      dxy     :     0.000183

  1 C s       :    -0.014180  s :    -0.014180
      pz      :    -0.013115  p :    -0.030121
      px      :    -0.021156
      py      :     0.004151
      dz2     :     0.000576  d :     0.006130
      dxz     :     0.000068
      dyz     :     0.000922
      dx2y2   :     0.000028
      dxy     :     0.004537

  2 N s       :     0.050046  s :     0.050046
      pz      :     0.028001  p :     0.765071
      px      :     0.050698
      py      :     0.686372
      dz2     :    -0.000569  d :    -0.001687
      dxz     :    -0.000084
      dyz     :     0.000227
      dx2y2   :    -0.001050
      dxy     :    -0.000211

  3 H s       :    -0.032966  s :    -0.032966

  4 C s       :    -0.014220  s :    -0.014220
      pz      :    -0.014629  p :    -0.030355
      px      :    -0.019752
      py      :     0.004027
      dz2     :     0.000595  d :     0.006191
      dxz     :     0.000090
      dyz     :     0.001295
      dx2y2   :     0.000026
      dxy     :     0.004186

  5 C s       :     0.007673  s :     0.007673
      pz      :     0.008622  p :     0.088358
      px      :     0.024434
      py      :     0.055301
      dz2     :     0.000147  d :     0.000450
      dxz     :     0.000002
      dyz     :    -0.000120
      dx2y2   :     0.000293
      dxy     :     0.000128

  6 H s       :    -0.001769  s :    -0.001769

  7 H s       :    -0.003713  s :    -0.003713

  8 H s       :     0.012650  s :     0.012650

  9 C s       :     0.001890  s :     0.001890
      pz      :     0.001509  p :     0.016503
      px      :     0.009004
      py      :     0.005990
      dz2     :     0.000072  d :     0.000162
      dxz     :     0.000209
      dyz     :     0.000006
      dx2y2   :    -0.000146
      dxy     :     0.000020

 10 H s       :     0.002037  s :     0.002037

 11 H s       :     0.002036  s :     0.002036

 12 H s       :    -0.000233  s :    -0.000233

 13 H s       :     0.022535  s :     0.022535

 14 C s       :     0.002049  s :     0.002049
      pz      :     0.002513  p :     0.017776
      px      :     0.008860
      py      :     0.006403
      dz2     :     0.000107  d :     0.000166
      dxz     :     0.000186
      dyz     :     0.000005
      dx2y2   :    -0.000145
      dxy     :     0.000012

 15 H s       :     0.001886  s :     0.001886

 16 H s       :    -0.000376  s :    -0.000376

 17 H s       :     0.002489  s :     0.002489

 18 H s       :     0.020953  s :     0.020953

 19 H s       :    -0.003591  s :    -0.003591

 20 H s       :    -0.001852  s :    -0.001852

 21 H s       :     0.012678  s :     0.012678



                     *******************************
                     * LOEWDIN POPULATION ANALYSIS *
                     *******************************

-------------------------------------------
LOEWDIN ATOMIC CHARGES AND SPIN POPULATIONS
-------------------------------------------
   0 C :   -0.312438    0.090639
   1 C :   -0.109209    0.009268
   2 N :    0.116298    0.733421
   3 H :    0.275913   -0.020373
   4 C :   -0.109153    0.009240
   5 C :   -0.312394    0.091672
   6 H :    0.145470   -0.001821
   7 H :    0.142804   -0.002874
   8 H :    0.164084    0.008674
   9 C :   -0.336865    0.018153
  10 H :    0.145654    0.001069
  11 H :    0.162162    0.001533
  12 H :    0.144158    0.000126
  13 H :    0.158191    0.018056
  14 C :   -0.336666    0.019521
  15 H :    0.145149    0.000940
  16 H :    0.144416    0.000028
  17 H :    0.162483    0.001876
  18 H :    0.157659    0.016776
  19 H :    0.142981   -0.002809
  20 H :    0.145260   -0.001833
  21 H :    0.164043    0.008719

----------------------------------------------------
LOEWDIN REDUCED ORBITAL CHARGES AND SPIN POPULATIONS
----------------------------------------------------
CHARGE
  0 C s       :     2.964437  s :     2.964437
      pz      :     1.145809  p :     3.278493
      px      :     1.110557
      py      :     1.022127
      dz2     :     0.011507  d :     0.069508
      dxz     :     0.012910
      dyz     :     0.017008
      dx2y2   :     0.012411
      dxy     :     0.015671

  1 C s       :     2.878338  s :     2.878338
      pz      :     1.088525  p :     3.093552
      px      :     0.933817
      py      :     1.071209
      dz2     :     0.024349  d :     0.137320
      dxz     :     0.029257
      dyz     :     0.021613
      dx2y2   :     0.034033
      dxy     :     0.028068

  2 N s       :     3.154459  s :     3.154459
      pz      :     1.247712  p :     3.670135
      px      :     1.224490
      py      :     1.197933
      dz2     :     0.021937  d :     0.059108
      dxz     :     0.014904
      dyz     :     0.003058
      dx2y2   :     0.009288
      dxy     :     0.009922

  3 H s       :     0.724087  s :     0.724087

  4 C s       :     2.878300  s :     2.878300
      pz      :     1.071437  p :     3.093490
      px      :     0.950334
      py      :     1.071720
      dz2     :     0.022029  d :     0.137362
      dxz     :     0.035156
      dyz     :     0.021064
      dx2y2   :     0.031492
      dxy     :     0.027620

  5 C s       :     2.964621  s :     2.964621
      pz      :     1.145273  p :     3.278304
      px      :     1.113942
      py      :     1.019089
      dz2     :     0.010471  d :     0.069470
      dxz     :     0.015726
      dyz     :     0.015250
      dx2y2   :     0.011400
      dxy     :     0.016623

  6 H s       :     0.854530  s :     0.854530

  7 H s       :     0.857196  s :     0.857196

  8 H s       :     0.835916  s :     0.835916

  9 C s       :     2.951847  s :     2.951847
      pz      :     1.118956  p :     3.313785
      px      :     1.101963
      py      :     1.092866
      dz2     :     0.013585  d :     0.071233
      dxz     :     0.016498
      dyz     :     0.011966
      dx2y2   :     0.013901
      dxy     :     0.015283

 10 H s       :     0.854346  s :     0.854346

 11 H s       :     0.837838  s :     0.837838

 12 H s       :     0.855842  s :     0.855842

 13 H s       :     0.841809  s :     0.841809

 14 C s       :     2.952115  s :     2.952115
      pz      :     1.109629  p :     3.313339
      px      :     1.111092
      py      :     1.092618
      dz2     :     0.014241  d :     0.071213
      dxz     :     0.014428
      dyz     :     0.013980
      dx2y2   :     0.013491
      dxy     :     0.015073

 15 H s       :     0.854851  s :     0.854851

 16 H s       :     0.855584  s :     0.855584

 17 H s       :     0.837517  s :     0.837517

 18 H s       :     0.842341  s :     0.842341

 19 H s       :     0.857019  s :     0.857019

 20 H s       :     0.854740  s :     0.854740

 21 H s       :     0.835957  s :     0.835957


SPIN
  0 C s       :     0.011362  s :     0.011362
      pz      :     0.006173  p :     0.079125
      px      :     0.025559
      py      :     0.047393
      dz2     :    -0.000003  d :     0.000151
      dxz     :     0.000120
      dyz     :    -0.000258
      dx2y2   :     0.000315
      dxy     :    -0.000022

  1 C s       :    -0.004338  s :    -0.004338
      pz      :    -0.006733  p :    -0.003582
      px      :    -0.014250
      py      :     0.017401
      dz2     :     0.001554  d :     0.017188
      dxz     :     0.000868
      dyz     :     0.002371
      dx2y2   :     0.000705
      dxy     :     0.011690

  2 N s       :     0.026315  s :     0.026315
      pz      :     0.017086  p :     0.709259
      px      :     0.038372
      py      :     0.653801
      dz2     :    -0.001082  d :    -0.002153
      dxz     :    -0.000432
      dyz     :     0.000642
      dx2y2   :    -0.000910
      dxy     :    -0.000371

  3 H s       :    -0.020373  s :    -0.020373

  4 C s       :    -0.004373  s :    -0.004373
      pz      :    -0.007788  p :    -0.003727
      px      :    -0.013209
      py      :     0.017270
      dz2     :     0.001553  d :     0.017340
      dxz     :     0.001058
      dyz     :     0.003358
      dx2y2   :     0.000622
      dxy     :     0.010749

  5 C s       :     0.011465  s :     0.011465
      pz      :     0.007334  p :     0.080070
      px      :     0.023293
      py      :     0.049443
      dz2     :     0.000044  d :     0.000137
      dxz     :     0.000116
      dyz     :    -0.000231
      dx2y2   :     0.000299
      dxy     :    -0.000092

  6 H s       :    -0.001821  s :    -0.001821

  7 H s       :    -0.002874  s :    -0.002874

  8 H s       :     0.008674  s :     0.008674

  9 C s       :     0.002234  s :     0.002234
      pz      :     0.001652  p :     0.015688
      px      :     0.008812
      py      :     0.005224
      dz2     :     0.000166  d :     0.000232
      dxz     :     0.000412
      dyz     :    -0.000022
      dx2y2   :    -0.000291
      dxy     :    -0.000033

 10 H s       :     0.001069  s :     0.001069

 11 H s       :     0.001533  s :     0.001533

 12 H s       :     0.000126  s :     0.000126

 13 H s       :     0.018056  s :     0.018056

 14 C s       :     0.002426  s :     0.002426
      pz      :     0.002537  p :     0.016863
      px      :     0.008734
      py      :     0.005592
      dz2     :     0.000248  d :     0.000232
      dxz     :     0.000354
      dyz     :    -0.000035
      dx2y2   :    -0.000292
      dxy     :    -0.000043

 15 H s       :     0.000940  s :     0.000940

 16 H s       :     0.000028  s :     0.000028

 17 H s       :     0.001876  s :     0.001876

 18 H s       :     0.016776  s :     0.016776

 19 H s       :    -0.002809  s :    -0.002809

 20 H s       :    -0.001833  s :    -0.001833

 21 H s       :     0.008719  s :     0.008719



                      *****************************
                      * MAYER POPULATION ANALYSIS *
                      *****************************

  NA   - Mulliken gross atomic population
  ZA   - Total nuclear charge
  QA   - Mulliken gross atomic charge
  VA   - Mayer's total valence
  BVA  - Mayer's bonded valence
  FA   - Mayer's free valence

  ATOM       NA         ZA         QA         VA         BVA        FA
  0 C      6.2933     6.0000    -0.2933     3.8473     3.8388     0.0085
  1 C      6.2216     6.0000    -0.2216     4.0677     4.0650     0.0027
  2 N      7.1267     7.0000    -0.1267     3.4167     2.8960     0.5207
  3 H      0.6891     1.0000     0.3109     0.8862     0.8851     0.0011
  4 C      6.2214     6.0000    -0.2214     4.0685     4.0657     0.0027
  5 C      6.2947     6.0000    -0.2947     3.8470     3.8383     0.0087
  6 H      0.8347     1.0000     0.1653     0.9523     0.9523     0.0000
  7 H      0.8277     1.0000     0.1723     0.9473     0.9473     0.0000
  8 H      0.8052     1.0000     0.1948     0.9447     0.9446     0.0002
  9 C      6.3230     6.0000    -0.3230     3.8685     3.8681     0.0004
 10 H      0.8246     1.0000     0.1754     0.9408     0.9408     0.0000
 11 H      0.8111     1.0000     0.1889     0.9488     0.9488     0.0000
 12 H      0.8376     1.0000     0.1624     0.9520     0.9520    -0.0000
 13 H      0.8120     1.0000     0.1880     0.9297     0.9292     0.0005
 14 C      6.3234     6.0000    -0.3234     3.8682     3.8678     0.0004
 15 H      0.8253     1.0000     0.1747     0.9412     0.9412     0.0000
 16 H      0.8371     1.0000     0.1629     0.9519     0.9519    -0.0000
 17 H      0.8107     1.0000     0.1893     0.9484     0.9483     0.0000
 18 H      0.8125     1.0000     0.1875     0.9301     0.9297     0.0004
 19 H      0.8278     1.0000     0.1722     0.9470     0.9470     0.0000
 20 H      0.8352     1.0000     0.1648     0.9526     0.9526     0.0000
 21 H      0.8055     1.0000     0.1945     0.9449     0.9447     0.0002

  Mayer bond orders larger than 0.100000
B(  0-C ,  1-C ) :   1.0205 B(  0-C , 19-H ) :   0.9382 B(  0-C , 20-H ) :   0.9338 
B(  0-C , 21-H ) :   0.9303 B(  1-C ,  2-N ) :   0.9788 B(  1-C , 14-C ) :   1.0704 
B(  1-C , 18-H ) :   0.8886 B(  2-N ,  3-H ) :   0.8296 B(  2-N ,  4-C ) :   0.9803 
B(  4-C ,  5-C ) :   1.0196 B(  4-C ,  9-C ) :   1.0713 B(  4-C , 13-H ) :   0.8879 
B(  5-C ,  6-H ) :   0.9340 B(  5-C ,  7-H ) :   0.9381 B(  5-C ,  8-H ) :   0.9300 
B(  9-C , 10-H ) :   0.9412 B(  9-C , 11-H ) :   0.9348 B(  9-C , 12-H ) :   0.9315 
B( 14-C , 15-H ) :   0.9417 B( 14-C , 16-H ) :   0.9316 B( 14-C , 17-H ) :   0.9341 


-------
TIMINGS
-------

Total SCF time: 0 days 0 hours 0 min 40 sec 

Total time                  ....      40.324 sec
Sum of individual times     ....      39.444 sec  ( 97.8%)

SCF preparation             ....       0.851 sec  (  2.1%)
Fock matrix formation       ....      30.299 sec  ( 75.1%)
  Startup                   ....       1.969 sec  (  6.5% of F)
  Split-RI-J                ....       3.351 sec  ( 11.1% of F)
  Chain of spheres X        ....      13.710 sec  ( 45.2% of F)
  XC integration            ....       7.519 sec  ( 24.8% of F)
    XC Preparation          ....       0.000 sec  (  0.0% of XC)
    Basis function eval.    ....       1.719 sec  ( 22.9% of XC)
    Density eval.           ....       1.102 sec  ( 14.7% of XC)
    XC-Functional eval.     ....       0.598 sec  (  8.0% of XC)
    XC-Potential eval.      ....       1.646 sec  ( 21.9% of XC)
Diagonalization             ....       0.000 sec  (  0.0%)
Density matrix formation    ....       2.873 sec  (  7.1%)
Total Energy calculation    ....       1.033 sec  (  2.6%)
Population analysis         ....       0.269 sec  (  0.7%)
Orbital Transformation      ....       0.361 sec  (  0.9%)
Orbital Orthonormalization  ....       0.000 sec  (  0.0%)
DIIS solution               ....       2.528 sec  (  6.3%)
SOSCF solution              ....       1.230 sec  (  3.0%)
Finished LeanSCF after  40.5 sec

Maximum memory used throughout the entire LEANSCF-calculation: 17.3 MB


           ************************************************************
           *        Program running with 4 parallel MPI-processes     *
           *              working on a common directory               *
           ************************************************************

------------------------------------------------------------------------------
                         ORCA PROPERTY INTEGRAL CALCULATIONS
------------------------------------------------------------------------------

GBWName                                   ... cs_rporg_076_ox_opt_01.gbw
Number of atoms                           ...     22
Number of basis functions                 ...    128
Max core memory                           ...   3000 MB

Dipole integrals                          ... YES
Quadrupole integrals                      ...  NO
Linear momentum integrals                 ...  NO
Angular momentum integrals                ...  NO
Higher moments length integrals           ...  NO
Higher moments velocity integrals         ...  NO
Kinetic energy integrals                  ...  NO
GIAO right hand sides                     ...  NO
GIAO dipole derivative integrals          ...  NO
SOC integrals                             ...  NO
EPR diamagnetic integrals (GIAO)          ...  NO
EPR gauge integrals                       ...  NO
Field gradient integrals                  ...  NO (   0 nuclei)
Spin-dipole/Fermi contact integrals       ...  NO (   0 nuclei)
Contact density integrals                 ...  NO (   0 nuclei)
Nucleus-orbit integrals                   ...  NO (   0 nuclei)
Geometric perturbations                   ...  NO (  22 nuclei)

Choice of electric origin   ... Center of mass
Position of electric origin ... ( -0.0019,  0.1381,  0.0285) 
Choice of magnetic origin   ... GIAO
Position of magnetic origin ... (  0.0000,  0.0000,  0.0000) 

Calculating integrals                     ... Electric Dipole (Length)     done (  0.0 sec)

Property integrals calculated in   0.0 sec

Maximum memory used throughout the entire PROPINT-calculation: 9.2 MB


-------------------------------------------------------------------------------
                          DFT DISPERSION CORRECTION                            
                                                                               
                              DFTD3 V3.1  Rev 1                                
                          USING Becke-Johnson damping                          
-------------------------------------------------------------------------------
The PBE0 functional is recognized
Active option DFTDOPT                   ...         4   

molecular C6(AA) [au] = 3119.231420 


            DFT-D V3
 parameters
 s6 scaling factor         :     1.0000 
 a1 scaling factor         :     0.4145 
 s8 scaling factor         :     1.2177 
 a2 scaling factor         :     4.8593 
 ad hoc parameters k1-k3   :    16.0000     1.3333    -4.0000 

 Edisp/kcal,au: -9.856985486799  -0.015708104567 
 E6   /kcal   :  -6.497065364 
 E8   /kcal   :  -3.359920123 
 % E8         :  34.086690369 

-------------------------   ----------------
Dispersion correction           -0.015708105
-------------------------   ----------------


-------------------------   --------------------
FINAL SINGLE POINT ENERGY      -291.553153537877
-------------------------   --------------------



           ************************************************************
           *        Program running with 4 parallel MPI-processes     *
           *              working on a common directory               *
           ************************************************************
------------------------------------------------------------------------------
                         ORCA SCF GRADIENT CALCULATION
------------------------------------------------------------------------------

Nuc. rep. gradient        (SHARK) ... done (  0.0 sec)
HCore & Overlap gradient  (SHARK) ... done (  0.1 sec)
Split-RIJ-J gradient      (SHARK) ... done (  0.5 sec)
COSX-gradient                     ... done (  7.4 sec)
XC gradient                       ... done (  2.7 sec)
Dispersion correction             ... done (  0.1 sec)

-------------------
DISPERSION GRADIENT
-------------------

   1   C   :   -0.000244079   -0.000162105   -0.000069163
   2   C   :   -0.000246652    0.000015894   -0.000016804
   3   N   :    0.000002564   -0.000002233    0.000055183
   4   H   :    0.000007042   -0.000003169    0.000156269
   5   C   :    0.000244743   -0.000016629   -0.000039678
   6   C   :    0.000236852    0.000163733   -0.000089873
   7   H   :    0.000118076    0.000129191    0.000017923
   8   H   :    0.000093452    0.000145009   -0.000096667
   9   H   :    0.000109130    0.000079350   -0.000073523
  10   C   :    0.000240616   -0.000148348    0.000072499
  11   H   :    0.000107944   -0.000145790    0.000052232
  12   H   :    0.000118966   -0.000087456    0.000000955
  13   H   :    0.000104443   -0.000062498    0.000097966
  14   H   :    0.000080918   -0.000040863   -0.000116812
  15   C   :   -0.000233842    0.000147450    0.000097488
  16   H   :   -0.000102802    0.000145439    0.000067145
  17   H   :   -0.000095513    0.000060270    0.000107216
  18   H   :   -0.000117668    0.000089884    0.000012670
  19   H   :   -0.000090505    0.000042100   -0.000108391
  20   H   :   -0.000102545   -0.000143103   -0.000089567
  21   H   :   -0.000115372   -0.000128959    0.000026692
  22   H   :   -0.000115767   -0.000077168   -0.000063762

Difference to translation invariance:
           :   -0.0000000000    0.0000000000   -0.0000000000

Difference to rotation invariance:
           :   -0.0000000000    0.0000000000    0.0000000000

Norm of the Dispersion gradient    ...    0.0009476905
RMS gradient                       ...    0.0001166526
MAX gradient                       ...    0.0002466518

------------------
CARTESIAN GRADIENT
------------------

   1   C   :   -0.012117869   -0.008218807   -0.001972156
   2   C   :    0.024570694    0.004327479    0.000151775
   3   N   :    0.000087531   -0.000097736    0.001621381
   4   H   :   -0.000353954    0.000172187   -0.007785703
   5   C   :   -0.024503060   -0.004559318    0.002525425
   6   C   :    0.011997026    0.008310781   -0.003218041
   7   H   :   -0.003371795   -0.005258919   -0.008897622
   8   H   :    0.005270903   -0.007562695    0.005769385
   9   H   :   -0.008661501    0.002556278    0.005880804
  10   C   :    0.011834171   -0.001088328    0.004424452
  11   H   :    0.002188374    0.010091625   -0.001353528
  12   H   :   -0.008168354    0.001332182    0.005529742
  13   H   :   -0.002860153   -0.004953733   -0.009249761
  14   H   :    0.004563071    0.002399591    0.002231750
  15   C   :   -0.011257990    0.001301610    0.005507558
  16   H   :   -0.002513309   -0.010101549   -0.001404039
  17   H   :    0.002194861    0.005174936   -0.009331473
  18   H   :    0.008412171   -0.001716058    0.004777442
  19   H   :   -0.004293259   -0.002378743    0.002535641
  20   H   :   -0.004644261    0.007583300    0.006455574
  21   H   :    0.002552365    0.005359250   -0.009068107
  22   H   :    0.009074339   -0.002673336    0.004869503

Difference to translation invariance:
           :    0.0000000000    0.0000000000   -0.0000000000

Difference to rotation invariance:
           :    0.0000988664   -0.0002738606    0.0000953123

Norm of the Cartesian gradient     ...    0.0590940826
RMS gradient                       ...    0.0072739787
MAX gradient                       ...    0.0245706943

-------
TIMINGS
-------

Total SCF gradient time     ....       10.830 sec

Densities                   ....       0.000 sec  (  0.0%)
One electron gradient       ....       0.115 sec  (  1.1%)
RI-J Coulomb gradient       ....       0.507 sec  (  4.7%)
COSX gradient               ....       7.426 sec  ( 68.6%)
XC gradient                 ....       2.715 sec  ( 25.1%)

Maximum memory used throughout the entire SCFGRAD-calculation: 29.0 MB
[...]
     56       0.039719  -0.008632  -0.010572   0.034964  -0.051220   0.016640
     57       0.055894  -0.062994   0.009023  -0.223376   0.383793   0.000171
     58      -0.064615   0.070383  -0.009935   0.251378  -0.431881   0.000541
     59      -0.059416   0.060997  -0.007262   0.211896  -0.364600   0.000054
     60      -0.050092   0.013179   0.014474  -0.044917   0.073877  -0.000748
     61      -0.109230   0.025187   0.032840  -0.114009   0.188730  -0.000261
     62       0.261266  -0.061868  -0.078107   0.266248  -0.441128  -0.001078
     63       0.341688  -0.159641  -0.062144  -0.067052   0.130445  -0.001071
     64      -0.046490   0.020286   0.008818   0.008552  -0.016839   0.001179
     65       0.177360  -0.084712  -0.031705  -0.042099   0.080061  -0.000486


-----------
IR SPECTRUM
-----------

 Mode   freq       eps      Int      T**2         TX        TY        TZ
       cm**-1   L/(mol*cm) km/mol    a.u.
----------------------------------------------------------------------------
  6:     31.99   0.000143    0.72  0.001390  ( 0.003848  0.037084  0.000411)
  7:     48.64   0.000001    0.00  0.000003  (-0.000180 -0.001581  0.000944)
  8:    185.36   0.000133    0.67  0.000224  (-0.000871  0.000078 -0.014935)
  9:    224.44   0.000005    0.03  0.000008  ( 0.000047 -0.002310 -0.001496)
 10:    225.56   0.000011    0.06  0.000015  ( 0.000445 -0.003742  0.001004)
 11:    251.17   0.000002    0.01  0.000003  (-0.000163 -0.000099 -0.001584)
 12:    258.29   0.000050    0.25  0.000060  (-0.005210 -0.005738  0.000274)
 13:    291.64   0.000055    0.28  0.000059  ( 0.000426 -0.000078  0.007677)
 14:    342.61   0.000086    0.43  0.000078  ( 0.000544  0.000103  0.008813)
 15:    362.91   0.002681   13.55  0.002305  ( 0.025834  0.040462 -0.000671)
 16:    373.36   0.000874    4.42  0.000730  (-0.015869 -0.021873  0.000418)
 17:    469.40   0.000353    1.78  0.000235  ( 0.013820  0.006594 -0.000515)
 18:    488.33   0.000104    0.53  0.000067  ( 0.000156 -0.000156  0.008155)
 19:    676.47   0.007886   39.85  0.003638  (-0.013596 -0.058762 -0.000052)
 20:    841.75   0.000881    4.45  0.000326  ( 0.001150 -0.000103  0.018031)
 21:    857.06   0.002660   13.44  0.000969  ( 0.030174  0.007478 -0.001514)
 22:    908.46   0.000187    0.95  0.000064  (-0.000437  0.000060 -0.008012)
 23:    943.60   0.002904   14.67  0.000960  (-0.026380 -0.016225  0.001073)
 24:    948.88   0.000101    0.51  0.000033  ( 0.000080 -0.000106  0.005763)
 25:    962.84   0.000003    0.02  0.000001  (-0.000222  0.000348 -0.000921)
 26:    965.95   0.001441    7.28  0.000466  (-0.019079  0.010026  0.001069)
 27:    994.47   0.014532   73.44  0.004560  (-0.067411  0.002295  0.003250)
 28:   1094.63   0.000404    2.04  0.000115  (-0.000526  0.000061 -0.010718)
 29:   1103.92   0.000095    0.48  0.000027  (-0.005170 -0.000010  0.000410)
 30:   1149.30   0.000661    3.34  0.000180  ( 0.007423 -0.011146 -0.000493)
 31:   1158.50   0.000966    4.88  0.000260  ( 0.005554 -0.015138 -0.000475)
 32:   1162.61   0.000110    0.56  0.000030  (-0.000382  0.000225 -0.005413)
 33:   1209.00   0.000124    0.63  0.000032  (-0.000568  0.000138 -0.005636)
 34:   1308.31   0.000650    3.29  0.000155  (-0.000441  0.000017  0.012445)
 35:   1311.95   0.002188   11.06  0.000520  ( 0.022686 -0.002310 -0.000622)
 36:   1324.28   0.000571    2.89  0.000135  ( 0.010321  0.005272 -0.000457)
 37:   1379.03   0.000010    0.05  0.000002  (-0.000184  0.000235 -0.001458)
 38:   1382.07   0.001932    9.76  0.000436  ( 0.010039 -0.018305 -0.000619)
 39:   1408.67   0.000056    0.28  0.000012  (-0.000096  0.000016 -0.003523)
 40:   1410.07   0.002276   11.50  0.000504  ( 0.020058 -0.009956 -0.001488)
 41:   1417.45   0.001703    8.61  0.000375  (-0.001543  0.000473 -0.019298)
 42:   1456.17   0.002791   14.10  0.000598  (-0.012390  0.021084 -0.000151)
 43:   1457.53   0.002844   14.37  0.000609  ( 0.000890  0.000748  0.024648)
 44:   1463.20   0.001794    9.06  0.000383  ( 0.014766  0.012811 -0.000612)
 45:   1464.13   0.000068    0.34  0.000014  ( 0.001268  0.000712 -0.003516)
 46:   1472.06   0.007786   39.35  0.001651  ( 0.038396  0.013133 -0.001964)
 47:   1476.18   0.003542   17.90  0.000749  (-0.001648 -0.000065 -0.027314)
 48:   1484.93   0.003167   16.00  0.000666  ( 0.015285 -0.020749 -0.001180)
 49:   1491.80   0.005921   29.92  0.001239  (-0.001708  0.000591 -0.035149)
 50:   1512.19   0.000519    2.62  0.000107  ( 0.001606  0.010220 -0.000033)
 51:   3052.12   0.000402    2.03  0.000041  (-0.000674 -0.000629 -0.006345)
 52:   3052.16   0.000098    0.49  0.000010  (-0.001023 -0.002066  0.002159)
 53:   3055.39   0.000261    1.32  0.000027  (-0.001787  0.004776  0.000823)
 54:   3055.50   0.000106    0.53  0.000011  ( 0.000553 -0.001150  0.003030)
 55:   3086.25   0.000160    0.81  0.000016  (-0.003678  0.000748 -0.001432)
 56:   3086.98   0.000258    1.30  0.000026  (-0.004804  0.000976  0.001440)
 57:   3151.02   0.000179    0.90  0.000018  (-0.000865 -0.000856 -0.004028)
 58:   3151.19   0.000209    1.05  0.000021  (-0.002815 -0.003389  0.001116)
 59:   3163.95   0.000247    1.25  0.000024  (-0.003496 -0.002267 -0.002654)
 60:   3164.16   0.002298   11.61  0.000227  ( 0.012505  0.008254 -0.001456)
 61:   3166.00   0.000465    2.35  0.000046  (-0.005570  0.003818 -0.000499)
 62:   3166.36   0.000288    1.46  0.000028  ( 0.004362 -0.002832 -0.001155)
 63:   3167.83   0.000425    2.15  0.000042  (-0.001470  0.001162 -0.006197)
 64:   3167.85   0.000344    1.74  0.000034  (-0.002721  0.004755  0.001978)
 65:   3451.05   0.010111   51.10  0.000914  ( 0.001403 -0.000427  0.030202)

* The epsilon (eps) is given for a Dirac delta lineshape.
** The dipole moment derivative (T) already includes vibrational overlap.

The first frequency considered to be a vibration is 6
The total number of vibrations considered is 60


--------------------------
THERMOCHEMISTRY AT 298.15K
--------------------------

Temperature         ...   298.15 K
Pressure            ...     1.00 atm
Total Mass          ...   101.19 AMU
Quasi RRHO          ...     True
Cut-Off Frequency   ...     1.00 cm^-1

Throughout the following assumptions are being made:
  (1) The electronic state is orbitally nondegenerate
      but the spin degeneracy is treated
  (2) There are no thermally accessible electronically excited states
  (3) Hindered rotations indicated by low frequency modes are not
      treated as such but are treated as vibrations and this may
      cause some error
  (4) All equations used are the standard statistical mechanics
      equations for an ideal gas
  (5) All vibrations are strictly harmonic

freq.      31.99  E(vib)   ...       0.55 
freq.      48.64  E(vib)   ...       0.53 
freq.     185.36  E(vib)   ...       0.37 
freq.     224.44  E(vib)   ...       0.33 
freq.     225.56  E(vib)   ...       0.33 
freq.     251.17  E(vib)   ...       0.30 
freq.     258.29  E(vib)   ...       0.30 
freq.     291.64  E(vib)   ...       0.27 
freq.     342.61  E(vib)   ...       0.23 
freq.     362.91  E(vib)   ...       0.22 
freq.     373.36  E(vib)   ...       0.21 
freq.     469.40  E(vib)   ...       0.16 
freq.     488.33  E(vib)   ...       0.15 
freq.     676.47  E(vib)   ...       0.08 
freq.     841.75  E(vib)   ...       0.04 
freq.     857.06  E(vib)   ...       0.04 
freq.     908.46  E(vib)   ...       0.03 
freq.     943.60  E(vib)   ...       0.03 
freq.     948.88  E(vib)   ...       0.03 
freq.     962.84  E(vib)   ...       0.03 
freq.     965.95  E(vib)   ...       0.03 
freq.     994.47  E(vib)   ...       0.02 
freq.    1094.63  E(vib)   ...       0.02 
freq.    1103.92  E(vib)   ...       0.02 
freq.    1149.30  E(vib)   ...       0.01 
freq.    1158.50  E(vib)   ...       0.01 
freq.    1162.61  E(vib)   ...       0.01 
freq.    1209.00  E(vib)   ...       0.01 
freq.    1308.31  E(vib)   ...       0.01 
freq.    1311.95  E(vib)   ...       0.01 
freq.    1324.28  E(vib)   ...       0.01 
freq.    1379.03  E(vib)   ...       0.01 
freq.    1382.07  E(vib)   ...       0.01 
freq.    1408.67  E(vib)   ...       0.00 
freq.    1410.07  E(vib)   ...       0.00 
freq.    1417.45  E(vib)   ...       0.00 
freq.    1456.17  E(vib)   ...       0.00 
freq.    1457.53  E(vib)   ...       0.00 
freq.    1463.20  E(vib)   ...       0.00 
freq.    1464.13  E(vib)   ...       0.00 
freq.    1472.06  E(vib)   ...       0.00 
freq.    1476.18  E(vib)   ...       0.00 
freq.    1484.93  E(vib)   ...       0.00 
freq.    1491.80  E(vib)   ...       0.00 
freq.    1512.19  E(vib)   ...       0.00 
freq.    3052.12  E(vib)   ...       0.00 
freq.    3052.16  E(vib)   ...       0.00 
freq.    3055.39  E(vib)   ...       0.00 
freq.    3055.50  E(vib)   ...       0.00 
freq.    3086.25  E(vib)   ...       0.00 
freq.    3086.98  E(vib)   ...       0.00 
freq.    3151.02  E(vib)   ...       0.00 
freq.    3151.19  E(vib)   ...       0.00 
freq.    3163.95  E(vib)   ...       0.00 
freq.    3164.16  E(vib)   ...       0.00 
freq.    3166.00  E(vib)   ...       0.00 
freq.    3166.36  E(vib)   ...       0.00 
freq.    3167.83  E(vib)   ...       0.00 
freq.    3167.85  E(vib)   ...       0.00 
freq.    3451.05  E(vib)   ...       0.00 

------------
INNER ENERGY
------------

The inner energy is: U= E(el) + E(ZPE) + E(vib) + E(rot) + E(trans)
    E(el)   - is the total energy from the electronic structure calculation
              = E(kin-el) + E(nuc-el) + E(el-el) + E(nuc-nuc)
    E(ZPE)  - the the zero temperature vibrational energy from the frequency calculation
    E(vib)  - the the finite temperature correction to E(ZPE) due to population
              of excited vibrational states
    E(rot)  - is the rotational thermal energy
    E(trans)- is the translational thermal energy

Summary of contributions to the inner energy U:
Electronic energy                ...   -291.55719939 Eh
Zero point energy                ...      0.20478222 Eh     128.50 kcal/mol
Thermal vibrational correction   ...      0.00702672 Eh       4.41 kcal/mol
Thermal rotational correction    ...      0.00141627 Eh       0.89 kcal/mol
Thermal translational correction ...      0.00141627 Eh       0.89 kcal/mol
-----------------------------------------------------------------------
Total thermal energy                   -291.34255792 Eh


Summary of corrections to the electronic energy:
(perhaps to be used in another calculation)
Total thermal correction                  0.00985926 Eh       6.19 kcal/mol
Non-thermal (ZPE) correction              0.20478222 Eh     128.50 kcal/mol
-----------------------------------------------------------------------
Total correction                          0.21464148 Eh     134.69 kcal/mol


--------
ENTHALPY
--------

The enthalpy is H = U + kB*T
                kB is Boltzmann's constant
Total thermal energy              ...   -291.34255792 Eh 
Thermal Enthalpy correction       ...      0.00094421 Eh       0.59 kcal/mol
-----------------------------------------------------------------------
Total Enthalpy                    ...   -291.34161371 Eh


Note: Only C1 symmetry has been detected, increase convergence thresholds 
      if your molecule has a higher symmetry. Symmetry factor of 1.0 is   
      used for the rotational entropy correction. 
 

Note: Rotational entropy computed according to Herzberg 
Infrared and Raman Spectra, Chapter V,1, Van Nostrand Reinhold, 1945 
Point Group:  C1, Symmetry Number:   1  
Rotational constants in cm-1:     0.132886     0.050590     0.041714 

Vibrational entropy computed according to the QRRHO of S. Grimme
Chem.Eur.J. 2012 18 9955 using a reference frequency of 100.0 cm-1


-------
ENTROPY
-------

The entropy contributions are T*S = T*(S(el)+S(vib)+S(rot)+S(trans))
     S(el)   - electronic entropy
     S(vib)  - vibrational entropy
     S(rot)  - rotational entropy
     S(trans)- translational entropy
The entropies will be listed as multiplied by the temperature to get
units of energy

Electronic entropy                ...      0.00065446 Eh      0.41 kcal/mol
Vibrational entropy               ...      0.01207052 Eh      7.57 kcal/mol
Rotational entropy                ...      0.01337214 Eh      8.39 kcal/mol
Translational entropy             ...      0.01888804 Eh     11.85 kcal/mol
-----------------------------------------------------------------------
Final entropy term                ...      0.04498515 Eh     28.23 kcal/mol

In case the symmetry of your molecule has not been determined correctly
or in case you have a reason to use a different symmetry number we print 
out the resulting rotational entropy values for sn=1,12:

 non-linear molecules -----------------------------------
|  sn= 1 | S(rot)=       0.01337214 Eh      8.39 kcal/mol|
|  sn= 2 | S(rot)=       0.01271768 Eh      7.98 kcal/mol|
|  sn= 3 | S(rot)=       0.01233485 Eh      7.74 kcal/mol|
|  sn= 4 | S(rot)=       0.01206322 Eh      7.57 kcal/mol|
|  sn= 5 | S(rot)=       0.01185254 Eh      7.44 kcal/mol|
|  sn= 6 | S(rot)=       0.01168039 Eh      7.33 kcal/mol|
|  sn= 7 | S(rot)=       0.01153485 Eh      7.24 kcal/mol|
|  sn= 8 | S(rot)=       0.01140877 Eh      7.16 kcal/mol|
|  sn= 9 | S(rot)=       0.01129756 Eh      7.09 kcal/mol|
|  sn=10 | S(rot)=       0.01119808 Eh      7.03 kcal/mol|
|  sn=11 | S(rot)=       0.01110809 Eh      6.97 kcal/mol|
|  sn=12 | S(rot)=       0.01102593 Eh      6.92 kcal/mol|
 linear molecules ---------------------------------------
|  Dinfh | S(rot)=       0.00832540 Eh      5.22 kcal/mol|
|  Cinfv | S(rot)=       0.00897986 Eh      5.63 kcal/mol|
 --------------------------------------------------------


-------------------
GIBBS FREE ENERGY
-------------------

The Gibbs free energy is G = H - T*S

Total enthalpy                    ...   -291.34161371 Eh 
Total entropy correction          ...     -0.04498515 Eh    -28.23 kcal/mol
-----------------------------------------------------------------------
Final Gibbs free energy         ...   -291.38659885 Eh

For completeness - the Gibbs free energy minus the electronic energy
G-E(el)                           ...      0.17060054 Eh    107.05 kcal/mol


Maximum memory used throughout the entire PROP-calculation: 85.3 MB

--------------------------------
SUGGESTED CITATIONS FOR THIS RUN
--------------------------------

Below you find a list of papers that are relevant to this ORCA run
We neither can nor want to force you to cite these papers, but we appreciate if you do
You receive ORCA, which is the product of decades of hard work by many enthusiastic individuals, for free
The only thing we kindly ask in return is that you cite our papers,
We deeply appreciate it, if you show your appreciation for ORCA by not just citing the generic ORCA reference.

Please note that relegating all ORCA citations to the supporting information does *not* help us.
SI sections are not indexed - citations you put there will not count into any citation statistics
But we need these citations in order to attract the funding resources that allow us to do what we are doing

Therefore, if you are a happy ORCA user, please consider citing a few of the papers listed below in the main body of your paper

In addition to the list printed below, the program has created the file cs_rporg_076_ox_opt_01.bibtex that contains the list in bibtex format
You can import this file easily into all common literature databanks and citation aid programs


List of essential papers. We consider these as the minimum necessary citations

  1. Neese,F.
     Software update: the ORCA program system, version 5.0
     WIRES Comput. Molec. Sci., 2022 12(1)e1606
     doi.org/10.1002/wcms.1606

List of papers to cite with high priority. The work reported in these papers was absolutely
necessary for this run to complete.
Our perspective: the developers of density functionals and basis sets usually get cited in chemistry papers
Good! But without the algorithms to do something with them, the functionals or basis sets would not do anything.
Hence, in our opinion, the algorithm design and method developments papers are equally worthy of getting cited

  1. Neese,F.
     An improvement of the resolution of the identity approximation for the formation of the Coulomb matrix
     J. Comp. Chem., 2003 24(14)1740-1747
     doi.org/10.1002/jcc.10318
  2. Neese,F.; Wennmohs,F.; Hansen,A.; Becker,U.
     Efficient, approximate and parallel Hartree-Fock and hybrid DFT calculations. A 'chain-of-spheres' algorithm for the Hartree-Fock exchange
     Chem. Phys., 2009 356(1-3)98-109
     doi.org/10.1016/j.chemphys.2008.10.036
  3. Bykov,D.; Petrenko,T.; Izsak,R.; Kossmann,S.; Becker,U.; Valeev,E.; Neese,F.
     Efficient implementation of the analytic second derivatives of Hartree-Fock and hybrid DFT energies: a detailed analysis of different approximations
     Molec. Phys., 2015 113 1961-1977
     doi.org/10.1080/00268976.2015.1025114
  4. Helmich-Paris,B.; de Souza,B.; Neese,F.; Izsák,R.
     An improved chain of spheres for exchange algorithm
     J. Chem. Phys., 2021 155 104109
     doi.org/doi: 10.1063/5.0058766.
  5. Neese,F.
     The SHARK Integral Generation and Digestion System
     J. Comp. Chem., 2022  1-16
     doi.org/10.1002/jcc.26942
  6. Grimme,S.; Antony,J.; Ehrlich,S.; Krieg,H.
     A consistent and accurate ab initio parametrization of density functional dispersion correction (DFT-D) for the 94 elements H-Pu
     J. Chem. Phys., 2010 132 154104-XXXX
     doi.org/10.1063/1.3382344
  7. Grimme,S.; Ehrlich,S.; Goerigk,L.
     Effect of the damping function in dispersion corrected density functional theory
     J. Comput. Chem., 2011 32(7)1456-1465
     doi.org/10.1002/jcc.21759

List of suggested additional citations. These are papers that are important in the 'surrounding' of 
of this run, or papers that preceded the highly important papers. If you like your results we are grateful for a citation.

  1. Izsak,R.; Neese,F.
     An overlap fitted chain of spheres exchange method
     J. Chem. Phys., 2011 135 144105
     doi.org/10.1063/1.3646921
  2. Izsak,R.; Hansen,A.; Neese,F.
     The resolution of identity and chain of spheres approximations for the LPNO-CCSD singles Fock term
     Molec. Phys., 2012 110 2413-2417
     doi.org/10.1080/00268976.2012.687466
  3. Neese,F.
     The ORCA program system
     WIRES Comput. Molec. Sci., 2012 2(1)73-78
     doi.org/10.1002/wcms.81
  4. Izsak,R.; Neese,F.; Klopper,W.
     Robust fitting techniques in the chain of spheres approximation to the Fock exchange: The role of the complementary space
     J. Chem. Phys., 2013 139 
     doi.org/10.1063/1.4819264
  5. Neese,F.
     Software update: the ORCA program system, version 4.0
     WIRES Comput. Molec. Sci., 2018 8(1)1-6
     doi.org/10.1002/wcms.1327
  6. Neese,F.; Wennmohs,F.; Becker,U.; Riplinger,C.
     The ORCA quantum chemistry program package
     J. Chem. Phys., 2020 152 Art. No. L224108
     doi.org/10.1063/5.0004608

List of optional additional citations

  1. Neese,F.
     Approximate second-order SCF convergence for spin unrestricted wavefunctions
     Chem. Phys. Lett., 2000 325(1-3)93-98
     doi.org/10.1016/s0009-2614(00)00662-x

Timings for individual modules:

Sum of individual times          ...      705.055 sec (=  11.751 min)
Startup calculation              ...       40.036 sec (=   0.667 min)   5.7 %
SCF iterations                   ...      266.667 sec (=   4.444 min)  37.8 %
Property integrals               ...       78.399 sec (=   1.307 min)  11.1 %
SCF Response                     ...      100.141 sec (=   1.669 min)  14.2 %
Property calculations            ...      103.725 sec (=   1.729 min)  14.7 %
SCF Gradient evaluation          ...      115.328 sec (=   1.922 min)  16.4 %
Geometry relaxation              ...        0.759 sec (=   0.013 min)   0.1 %
                             ****ORCA TERMINATED NORMALLY****
TOTAL RUN TIME: 0 days 0 hours 12 minutes 16 seconds 493 msec
