 vasp.6.3.2 27Jun22 (build Oct 25 2024 11:36:28) complex                        
  
 executed on             LinuxIFC date 2024.12.19  10:06:46
 running on   80 total cores
 distrk:  each k-point on   80 cores,    1 groups
 distr:  one band on NCORE=  10 cores,    8 groups


--------------------------------------------------------------------------------------------------------


 INCAR:
   SYSTEM = 011_red
   ISTART = 1
   ICHARG = 2
   INIWAV = 1
   NELM = 100
   ALGO = fast   	
   ISPIN = 2
   EDIFF = 1E-05
   ISMEAR = 0
   SIGMA = 0.05
   PREC = accurate
   ENCUT = 500
   LREAL = auto  	
   LWAVE = .TRUE.
   LCHARG = .FALSE.
   LAECHG = .FALSE.
   LVHAR = .FALSE.
   LVTOT = .FALSE.
   EDIFFG = -0.02
   IBRION = 2
   NSW = 500
   ISIF = 2
   POTIM = 0.5
   IVDW = 11
   LPLANE = .TRUE.
   NCORE = 10
   LSCALU = .FALSE.
   NSIM = 4
   LSOL = .TRUE.
   ISOL = 2
   R_SOLV = 2.1900
   EPSILON_INF = 1.8069
   N_MOL = 0.0115
   P_MOL = 0.82
   EB_K = 35.6880

 POTCAR:    PAW_PBE C 08Apr2002                   
 POTCAR:    PAW_PBE O 08Apr2002                   
 POTCAR:    PAW_PBE H 15Jun2001                   
 -----------------------------------------------------------------------------
|                                                                             |
|           W    W    AA    RRRRR   N    N  II  N    N   GGGG   !!!           |
|           W    W   A  A   R    R  NN   N  II  NN   N  G    G  !!!           |
|           W    W  A    A  R    R  N N  N  II  N N  N  G       !!!           |
|           W WW W  AAAAAA  RRRRR   N  N N  II  N  N N  G  GGG   !            |
|           WW  WW  A    A  R   R   N   NN  II  N   NN  G    G                |
|           W    W  A    A  R    R  N    N  II  N    N   GGGG   !!!           |
|                                                                             |
|     You use a magnetic or noncollinear calculation, but did not specify     |
|     the initial magnetic moment with the MAGMOM tag. Note that a            |
|     default of 1 will be used for all atoms. This ferromagnetic setup       |
|     may break the symmetry of the crystal, in particular it may rule        |
|     out finding an antiferromagnetic solution. Thence, we recommend         |
|     setting the initial magnetic moment manually or verifying carefully     |
|     that this magnetic setup is desired.                                    |
|                                                                             |
 -----------------------------------------------------------------------------

 POTCAR:    PAW_PBE C 08Apr2002                   
   SHA256 =  253f7b50bb8d59471dbedb8285d89021f4a42ed1a2c5d38a03a736e69125dd95 C/POTCAR              
   COPYR  = (c) Copyright 08Apr2002 Georg Kresse                                                    
   COPYR  = This file is part of the software VASP. Any use, copying, and all other rights are regul
   COPYR  = If you do not have a valid VASP license, you may not use, copy or distribute this file. 
   VRHFIN =C: s2p2                                                                                  
   LEXCH  = PE                                                                                      
   EATOM  =   147.1560 eV,   10.8157 Ry                                                             
                                                                                                    
   TITEL  = PAW_PBE C 08Apr2002                                                                     
   LULTRA =        F    use ultrasoft PP ?                                                          
   IUNSCR =        1    unscreen: 0-lin 1-nonlin 2-no                                               
   RPACOR =    1.200    partial core radius                                                         
   POMASS =   12.011; ZVAL   =    4.000    mass and valenz                                          
   RCORE  =    1.500    outmost cutoff radius                                                       
   RWIGS  =    1.630; RWIGS  =    0.863    wigner-seitz radius (au A)                               
   ENMAX  =  400.000; ENMIN  =  300.000 eV                                                          
   ICORE  =        2    local potential                                                             
   LCOR   =        T    correct aug charges                                                         
   LPAW   =        T    paw PP                                                                      
   EAUG   =  644.873                                                                                
   DEXC   =    0.000                                                                                
   RMAX   =    1.529    core radius for proj-oper                                                   
   RAUG   =    1.300    factor for augmentation sphere                                              
   RDEP   =    1.501    radius for radial grids                                                     
   RDEPT  =    1.300    core radius for aug-charge                                                  
                                                                                                    
   Atomic configuration                                                                             
    4 entries                                                                                       
     n  l   j            E        occ.                                                              
     1  0  0.50      -273.3789   2.0000                                                             
     2  0  0.50       -13.7508   2.0000                                                             
     2  1  0.50        -5.2854   2.0000                                                             
     3  2  1.50        -5.4423   0.0000                                                             
   Description                                                                                      
     l       E           TYP  RCUT    TYP  RCUT                                                     
     0    -13.7508458     23  1.200                                                                 
     0     -8.2022199     23  1.200                                                                 
     1     -5.2854383     23  1.500                                                                 
     1     34.0145650     23  1.500                                                                 
     2     -5.4423304      7  1.500                                                                 
  local pseudopotential read in
  partial core-charges read in
  partial kinetic energy density read in
  atomic valenz-charges read in
  non local Contribution for L=           0  read in
    real space projection operators read in
  non local Contribution for L=           0  read in
    real space projection operators read in
  non local Contribution for L=           1  read in
    real space projection operators read in
  non local Contribution for L=           1  read in
    real space projection operators read in
    PAW grid and wavefunctions read in
 
   number of l-projection  operators is LMAX  =           4
   number of lm-projection operators is LMMAX =           8
 
 POTCAR:    PAW_PBE O 08Apr2002                   
   SHA256 =  818f92134a0a090dccd8ba1447fa70422a3b330e708bb4f08108d8ae51209ddf O/POTCAR              
   COPYR  = (c) Copyright 08Apr2002 Georg Kresse                                                    
   COPYR  = This file is part of the software VASP. Any use, copying, and all other rights are regul
   COPYR  = If you do not have a valid VASP license, you may not use, copy or distribute this file. 
   VRHFIN =O: s2p4                                                                                  
   LEXCH  = PE                                                                                      
   EATOM  =   432.3788 eV,   31.7789 Ry                                                             
                                                                                                    
   TITEL  = PAW_PBE O 08Apr2002                                                                     
   LULTRA =        F    use ultrasoft PP ?                                                          
   IUNSCR =        1    unscreen: 0-lin 1-nonlin 2-no                                               
   RPACOR =    1.200    partial core radius                                                         
   POMASS =   16.000; ZVAL   =    6.000    mass and valenz                                          
   RCORE  =    1.520    outmost cutoff radius                                                       
   RWIGS  =    1.550; RWIGS  =    0.820    wigner-seitz radius (au A)                               
   ENMAX  =  400.000; ENMIN  =  300.000 eV                                                          
   ICORE  =        2    local potential                                                             
   LCOR   =        T    correct aug charges                                                         
   LPAW   =        T    paw PP                                                                      
   EAUG   =  605.392                                                                                
   DEXC   =    0.000                                                                                
   RMAX   =    1.553    core radius for proj-oper                                                   
   RAUG   =    1.300    factor for augmentation sphere                                              
   RDEP   =    1.550    radius for radial grids                                                     
   RDEPT  =    1.329    core radius for aug-charge                                                  
                                                                                                    
   Atomic configuration                                                                             
    4 entries                                                                                       
     n  l   j            E        occ.                                                              
     1  0  0.50      -514.6923   2.0000                                                             
     2  0  0.50       -23.9615   2.0000                                                             
     2  1  0.50        -9.0305   4.0000                                                             
     3  2  1.50        -9.5241   0.0000                                                             
   Description                                                                                      
     l       E           TYP  RCUT    TYP  RCUT                                                     
     0    -23.9615318     23  1.200                                                                 
     0     -9.5240782     23  1.200                                                                 
     1     -9.0304911     23  1.520                                                                 
     1      8.1634956     23  1.520                                                                 
     2     -9.5240782      7  1.500                                                                 
  local pseudopotential read in
  partial core-charges read in
  partial kinetic energy density read in
  kinetic energy density of atom read in
  atomic valenz-charges read in
  non local Contribution for L=           0  read in
    real space projection operators read in
  non local Contribution for L=           0  read in
    real space projection operators read in
  non local Contribution for L=           1  read in
    real space projection operators read in
  non local Contribution for L=           1  read in
    real space projection operators read in
    PAW grid and wavefunctions read in
 
   number of l-projection  operators is LMAX  =           4
   number of lm-projection operators is LMMAX =           8
 
 POTCAR:    PAW_PBE H 15Jun2001                   
   SHA256 =  030f79b5d3ab3cf0e668861823c8fb652ff669f3e15e46930bd03bfd63a607b6 H/POTCAR              
   COPYR  = (c) Copyright 15Jun2001 Georg Kresse                                                    
   COPYR  = This file is part of the software VASP. Any use, copying, and all other rights are regul
   COPYR  = If you do not have a valid VASP license, you may not use, copy or distribute this file. 
   VRHFIN =H: ultrasoft test                                                                        
   LEXCH  = PE                                                                                      
   EATOM  =    12.4884 eV,    0.9179 Ry                                                             
                                                                                                    
   TITEL  = PAW_PBE H 15Jun2001                                                                     
   LULTRA =        F    use ultrasoft PP ?                                                          
   IUNSCR =        0    unscreen: 0-lin 1-nonlin 2-no                                               
   RPACOR =    0.000    partial core radius                                                         
   POMASS =    1.000; ZVAL   =    1.000    mass and valenz                                          
   RCORE  =    1.100    outmost cutoff radius                                                       
   RWIGS  =    0.700; RWIGS  =    0.370    wigner-seitz radius (au A)                               
   ENMAX  =  250.000; ENMIN  =  200.000 eV                                                          
   RCLOC  =    0.701    cutoff for local pot                                                        
   LCOR   =        T    correct aug charges                                                         
   LPAW   =        T    paw PP                                                                      
   EAUG   =  400.000                                                                                
   RMAX   =    1.123    core radius for proj-oper                                                   
   RAUG   =    1.200    factor for augmentation sphere                                              
   RDEP   =    1.112    radius for radial grids                                                     
   RDEPT  =    0.926    core radius for aug-charge                                                  
                                                                                                    
   Atomic configuration                                                                             
    2 entries                                                                                       
     n  l   j            E        occ.                                                              
     1  0  0.50        -6.4927   1.0000                                                             
     2  1  0.50        -3.4015   0.0000                                                             
   Description                                                                                      
     l       E           TYP  RCUT    TYP  RCUT                                                     
     0     -6.4927494     23  1.100                                                                 
     0      6.8029130     23  1.100                                                                 
     1     -4.0817478     23  1.100                                                                 
  local pseudopotential read in
  atomic valenz-charges read in
  non local Contribution for L=           0  read in
    real space projection operators read in
  non local Contribution for L=           0  read in
    real space projection operators read in
  non local Contribution for L=           1  read in
    real space projection operators read in
    PAW grid and wavefunctions read in
 
   number of l-projection  operators is LMAX  =           3
   number of lm-projection operators is LMMAX =           5
 
 Optimization of the real space projectors (new method)

 maximal supplied QI-value         = 25.13
 optimisation between [QCUT,QGAM] = [ 11.31, 22.87] = [ 35.82,146.48] Ry 
 Optimized for a Real-space Cutoff    1.03 Angstroem

   l    n(q)    QCUT    max X(q) W(low)/X(q) W(high)/X(q)  e(spline) 
   0      7    11.310   115.676    0.20E-03    0.90E-03    0.20E-06
   0      7    11.310    87.132    0.20E-03    0.89E-03    0.19E-06
   1      6    11.310     4.429    0.16E-03    0.28E-03    0.12E-06
   1      6    11.310     2.733    0.12E-03    0.21E-03    0.99E-07
 Optimization of the real space projectors (new method)

 maximal supplied QI-value         = 24.76
 optimisation between [QCUT,QGAM] = [ 11.39, 22.77] = [ 36.31,145.25] Ry 
 Optimized for a Real-space Cutoff    1.10 Angstroem

   l    n(q)    QCUT    max X(q) W(low)/X(q) W(high)/X(q)  e(spline) 
   0      7    11.387    20.381    0.22E-03    0.48E-03    0.18E-06
   0      7    11.387    15.268    0.22E-03    0.52E-03    0.19E-06
   1      7    11.387     5.964    0.22E-03    0.73E-03    0.24E-06
   1      7    11.387     5.382    0.19E-03    0.60E-03    0.21E-06
 Optimization of the real space projectors (new method)

 maximal supplied QI-value         = 34.20
 optimisation between [QCUT,QGAM] = [ 11.29, 22.57] = [ 35.68,142.71] Ry 
 Optimized for a Real-space Cutoff    1.20 Angstroem

   l    n(q)    QCUT    max X(q) W(low)/X(q) W(high)/X(q)  e(spline) 
   0      8    11.287    19.460    0.22E-03    0.50E-03    0.19E-06
   0      8    11.287    12.209    0.21E-03    0.48E-03    0.18E-06
   1      8    11.287     4.655    0.21E-03    0.11E-04    0.26E-06
  PAW_PBE C 08Apr2002                   :
 energy of atom  1       EATOM= -147.1560
 kinetic energy error for atom=    0.0076 (will be added to EATOM!!)
  PAW_PBE O 08Apr2002                   :
 energy of atom  2       EATOM= -432.3788
 kinetic energy error for atom=    0.0224 (will be added to EATOM!!)
  PAW_PBE H 15Jun2001                   :
 energy of atom  3       EATOM=  -12.4884
 kinetic energy error for atom=    0.0020 (will be added to EATOM!!)
 
 
 POSCAR: C O H
  positions in direct lattice
  velocities in cartesian coordinates
 exchange correlation table for  LEXCH =        8
   RHO(1)=    0.500       N(1)  =     2000
   RHO(2)=  100.500       N(2)  =     4000
 
 POSCAR: C O H
  positions in direct lattice
  velocities in cartesian coordinates
 
 POSCAR: C O H
  positions in direct lattice
  velocities in cartesian coordinates
 


--------------------------------------------------------------------------------------------------------


 ion  position               nearest neighbor table
   1  0.503  0.530  0.500-  23 1.09   2 1.39   6 1.41
   2  0.469  0.536  0.500-  22 1.09   1 1.39   3 1.41
   3  0.446  0.509  0.500-  11 1.37   4 1.40   2 1.41
   4  0.458  0.476  0.500-  18 1.09   5 1.40   3 1.40
   5  0.493  0.471  0.500-  17 1.09   4 1.40   6 1.41
   6  0.516  0.497  0.500-   5 1.41   1 1.41   7 1.47
   7  0.552  0.490  0.500-  16 1.10   8 1.35   6 1.47
   8  0.578  0.512  0.500-  15 1.10   7 1.35   9 1.50
   9  0.614  0.502  0.500-  14 1.10  12 1.10  13 1.10   8 1.50
  10  0.389  0.491  0.500-  21 1.09  19 1.10  20 1.10  11 1.44
  11  0.413  0.518  0.500-   3 1.37  10 1.44
  12  0.627  0.512  0.522-   9 1.10
  13  0.627  0.512  0.478-   9 1.10
  14  0.617  0.475  0.500-   9 1.10
  15  0.572  0.539  0.500-   8 1.10
  16  0.558  0.463  0.500-   7 1.10
  17  0.502  0.445  0.500-   5 1.09
  18  0.441  0.455  0.500-   4 1.09
  19  0.391  0.475  0.523-  10 1.10
  20  0.391  0.475  0.477-  10 1.10
  21  0.364  0.503  0.500-  10 1.09
  22  0.459  0.562  0.500-   2 1.09
  23  0.520  0.552  0.500-   1 1.09
 
  LATTYP: Found a simple cubic cell.
 ALAT       =    40.0000000000
  
  Lattice vectors:
  
 A1 = (  40.0000000000,   0.0000000000,   0.0000000000)
 A2 = (   0.0000000000,  40.0000000000,   0.0000000000)
 A3 = (   0.0000000000,   0.0000000000,  40.0000000000)


Analysis of symmetry for initial positions (statically):
=====================================================================
 Subroutine PRICEL returns:
 Original cell was already a primitive cell.
 

 Routine SETGRP: Setting up the symmetry group for a 
 simple cubic supercell.


 Subroutine GETGRP returns: Found  1 space group operations
 (whereof  1 operations were pure point group operations)
 out of a pool of 48 trial point group operations.


The static configuration has the point symmetry C_1 .


Analysis of symmetry for dynamics (positions and initial velocities):
=====================================================================
 Subroutine PRICEL returns:
 Original cell was already a primitive cell.
 

 Routine SETGRP: Setting up the symmetry group for a 
 simple cubic supercell.


 Subroutine GETGRP returns: Found  1 space group operations
 (whereof  1 operations were pure point group operations)
 out of a pool of 48 trial point group operations.


The dynamic configuration has the point symmetry C_1 .


Analysis of constrained symmetry for selective dynamics:
=====================================================================
 Subroutine PRICEL returns:
 Original cell was already a primitive cell.
 

 Routine SETGRP: Setting up the symmetry group for a 
 simple cubic supercell.


 Subroutine GETGRP returns: Found  1 space group operations
 (whereof  1 operations were pure point group operations)
 out of a pool of 48 trial point group operations.


The constrained configuration has the point symmetry C_1 .


Analysis of structural, dynamic, and magnetic symmetry:
=====================================================================
 Subroutine PRICEL returns:
 Original cell was already a primitive cell.
 

 Routine SETGRP: Setting up the symmetry group for a 
 simple cubic supercell.


 Subroutine GETGRP returns: Found  1 space group operations
 (whereof  1 operations were pure point group operations)
 out of a pool of 48 trial point group operations.


The overall configuration has the point symmetry C_1 .


 Subroutine INISYM returns: Found  1 space group operations
 (whereof  1 operations are pure point group operations),
 and found     1 'primitive' translations


----------------------------------------------------------------------------------------

                                     Primitive cell                                     

  volume of cell :   64000.0000

  direct lattice vectors                    reciprocal lattice vectors
    40.000000000  0.000000000  0.000000000     0.025000000  0.000000000  0.000000000
     0.000000000 40.000000000  0.000000000     0.000000000  0.025000000  0.000000000
     0.000000000  0.000000000 40.000000000     0.000000000  0.000000000  0.025000000

  length of vectors
    40.000000000 40.000000000 40.000000000     0.025000000  0.025000000  0.025000000

  position of ions in fractional coordinates (direct lattice)
     0.502981542  0.530147479  0.499999741
     0.468810537  0.536069717  0.499998271
     0.446072129  0.509191627  0.499999110
     0.458279444  0.476351557  0.500001970
     0.492829256  0.470889106  0.500003133
     0.516035886  0.497304225  0.500001447
     0.551910601  0.489762053  0.500003096
     0.577507287  0.511675883  0.499999797
     0.613626758  0.501978432  0.500000998
     0.388876751  0.491026279  0.499997154
     0.412904285  0.517718125  0.499997055
     0.626677751  0.512195098  0.522026685
     0.626678310  0.512187341  0.477971134
     0.616798716  0.474682129  0.500005595
     0.572327412  0.538571919  0.499995094
     0.558019339  0.463027303  0.500006455
     0.502053718  0.445177930  0.500004970
     0.441400353  0.454996215  0.500002136
     0.391444881  0.475389195  0.522503090
     0.391448824  0.475388369  0.477491117
     0.364348572  0.503164404  0.499994124
     0.459080950  0.561551462  0.499997321
     0.519888699  0.551554153  0.499999506

  ion indices of the primitive-cell ions
   primitive index   ion index
                 1           1
                 2           2
                 3           3
                 4           4
                 5           5
                 6           6
                 7           7
                 8           8
                 9           9
                10          10
                11          11
                12          12
                13          13
                14          14
                15          15
                16          16
                17          17
                18          18
                19          19
                20          20
                21          21
                22          22
                23          23

----------------------------------------------------------------------------------------

 
 
 KPOINTS: K-Point Grid                            

Automatic generation of k-mesh.
 Grid dimensions read from file:
 generate k-points for:    1    1    1

 Generating k-lattice:

  Cartesian coordinates                     Fractional coordinates (reciprocal lattice)
     0.025000000  0.000000000  0.000000000     1.000000000  0.000000000  0.000000000
     0.000000000  0.025000000  0.000000000     0.000000000  1.000000000  0.000000000
     0.000000000  0.000000000  0.025000000     0.000000000  0.000000000  1.000000000

  Length of vectors
     0.025000000  0.025000000  0.025000000

  Shift w.r.t. Gamma in fractional coordinates (k-lattice)
     0.000000000  0.000000000  0.000000000

 
 Subroutine IBZKPT returns following result:
 ===========================================
 
 Found      1 irreducible k-points:
 
 Following reciprocal coordinates:
            Coordinates               Weight
  0.000000  0.000000  0.000000      1.000000
 
 Following cartesian coordinates:
            Coordinates               Weight
  0.000000  0.000000  0.000000      1.000000
 


--------------------------------------------------------------------------------------------------------




 Dimension of arrays:
   k-points           NKPTS =      1   k-points in BZ     NKDIM =      1   number of bands    NBANDS=     56
   number of dos      NEDOS =    301   number of ions     NIONS =     23
   non local maximal  LDIM  =      4   non local SUM 2l+1 LMDIM =      8
   total plane-waves  NPLWV = ******
   max r-space proj   IRMAX =   2915   max aug-charges    IRDMAX=   5350
   dimension x,y,z NGX =   294 NGY =  294 NGZ =  294
   dimension x,y,z NGXF=   588 NGYF=  588 NGZF=  588
   support grid    NGXF=   588 NGYF=  588 NGZF=  588
   ions per type =              10   1  12
   NGX,Y,Z   is equivalent  to a cutoff of  12.22, 12.22, 12.22 a.u.
   NGXF,Y,Z  is equivalent  to a cutoff of  24.44, 24.44, 24.44 a.u.

 SYSTEM =  011_red                                 
 POSCAR =  C O H                                   

 Startparameter for this run:
   NWRITE =      2    write-flag & timer
   PREC   = accura    normal or accurate (medium, high low for compatibility)
   ISTART =      1    job   : 0-new  1-cont  2-samecut
   ICHARG =      2    charge: 1-file 2-atom 10-const
   ISPIN  =      2    spin polarized calculation?
   LNONCOLLINEAR =      F non collinear calculations
   LSORBIT =      F    spin-orbit coupling
   INIWAV =      1    electr: 0-lowe 1-rand  2-diag
   LASPH  =      F    aspherical Exc in radial PAW
 Electronic Relaxation 1
   ENCUT  =  500.0 eV  36.75 Ry    6.06 a.u.  72.93 72.93 72.93*2*pi/ulx,y,z
   ENINI  =  500.0     initial cutoff
   ENAUG  =  644.9 eV  augmentation charge cutoff
   NELM   =    100;   NELMIN=  2; NELMDL=  0     # of ELM steps 
   EDIFF  = 0.1E-04   stopping-criterion for ELM
   LREAL  =      T    real-space projection
   NLSPLINE    = F    spline interpolate recip. space projectors
   LCOMPAT=      F    compatible to vasp.4.4
   GGA_COMPAT  = T    GGA compatible to vasp.4.4-vasp.4.6
   LMAXPAW     = -100 max onsite density
   LMAXMIX     =    2 max onsite mixed and CHGCAR
   VOSKOWN=      0    Vosko Wilk Nusair interpolation
   ROPT   =   -0.00025  -0.00025  -0.00025
 Ionic relaxation
   EDIFFG = -.2E-01   stopping-criterion for IOM
   NSW    =    500    number of steps for IOM
   NBLOCK =      1;   KBLOCK =    500    inner block; outer block 
   IBRION =      2    ionic relax: 0-MD 1-quasi-New 2-CG
   NFREE  =      1    steps in history (QN), initial steepest desc. (CG)
   ISIF   =      2    stress and relaxation
   IWAVPR =     11    prediction:  0-non 1-charg 2-wave 3-comb
   ISYM   =      2    0-nonsym 1-usesym 2-fastsym
   LCORR  =      T    Harris-Foulkes like correction to forces

   POTIM  = 0.5000    time-step for ionic-motion
   TEIN   =    0.0    initial temperature
   TEBEG  =    0.0;   TEEND  =   0.0 temperature during run
   SMASS  =  -3.00    Nose mass-parameter (am)
   estimated Nose-frequenzy (Omega)   =  0.10E-29 period in steps = 0.13E+47 mass=  -0.366E-25a.u.
   SCALEE = 1.0000    scale energy and forces
   NPACO  =    256;   APACO  = 10.0  distance and # of slots for P.C.
   PSTRESS=    0.0 pullay stress

  Mass of Ions in am
   POMASS =  12.01 16.00  1.00
  Ionic Valenz
   ZVAL   =   4.00  6.00  1.00
  Atomic Wigner-Seitz radii
   RWIGS  =  -1.00 -1.00 -1.00
  virtual crystal weights 
   VCA    =   1.00  1.00  1.00
   NELECT =      58.0000    total number of electrons
   NUPDOWN=      -1.0000    fix difference up-down

 DOS related values:
   EMIN   =  10.00;   EMAX   =-10.00  energy-range for DOS
   EFERMI =   0.00
   ISMEAR =     0;   SIGMA  =   0.05  broadening in eV -4-tet -1-fermi 0-gaus

 Electronic relaxation 2 (details)
   IALGO  =     68    algorithm
   LDIAG  =      T    sub-space diagonalisation (order eigenvalues)
   LSUBROT=      F    optimize rotation matrix (better conditioning)
   TURBO    =      0    0=normal 1=particle mesh
   IRESTART =      0    0=no restart 2=restart with 2 vectors
   NREBOOT  =      0    no. of reboots
   NMIN     =      0    reboot dimension
   EREF     =   0.00    reference energy to select bands
   IMIX   =      4    mixing-type and parameters
     AMIX     =   0.40;   BMIX     =  1.00
     AMIX_MAG =   1.60;   BMIX_MAG =  1.00
     AMIN     =   0.10
     WC   =   100.;   INIMIX=   1;  MIXPRE=   1;  MAXMIX= -45

 Intra band minimization:
   WEIMIN = 0.0010     energy-eigenvalue tresh-hold
   EBREAK =  0.45E-07  absolut break condition
   DEPER  =   0.30     relativ break condition  

   TIME   =   0.40     timestep for ELM

  volume/ion in A,a.u.               =    2782.61     18777.97
  Fermi-wavevector in a.u.,A,eV,Ry     =   0.158425  0.299380  0.341486  0.025099
  Thomas-Fermi vector in A             =   0.848723
 
 Write flags
   LWAVE        =      T    write WAVECAR
   LDOWNSAMPLE  =      F    k-point downsampling of WAVECAR
   LCHARG       =      F    write CHGCAR
   LVTOT        =      F    write LOCPOT, total local potential
   LVHAR        =      F    write LOCPOT, Hartree potential only
   LELF         =      F    write electronic localiz. function (ELF)
   LORBIT       =      0    0 simple, 1 ext, 2 COOP (PROOUT), +10 PAW based schemes


 Dipole corrections
   LMONO  =      F    monopole corrections only (constant potential shift)
   LDIPOL =      F    correct potential (dipole corrections)
   IDIPOL =      0    1-x, 2-y, 3-z, 4-all directions 
   EPSILON=  1.0000000 bulk dielectric constant

 Exchange correlation treatment:
   GGA     =    --    GGA type
   LEXCH   =     8    internal setting for exchange type
   LIBXC   =     F    Libxc                    
   VOSKOWN =     0    Vosko Wilk Nusair interpolation
   LHFCALC =     F    Hartree Fock is set to
   LHFONE  =     F    Hartree Fock one center treatment
   AEXX    =    0.0000 exact exchange contribution

 Linear response parameters
   LEPSILON=     F    determine dielectric tensor
   LRPA    =     F    only Hartree local field effects (RPA)
   LNABLA  =     F    use nabla operator in PAW spheres
   LVEL    =     F    velocity operator in full k-point grid
   CSHIFT  =0.1000    complex shift for real part using Kramers Kronig
   OMEGAMAX=  -1.0    maximum frequency
   DEG_THRESHOLD= 0.2000000E-02 threshold for treating states as degnerate
   RTIME   =   -0.100 relaxation time in fs
  (WPLASMAI=    0.000 imaginary part of plasma frequency in eV, 0.658/RTIME)
   DFIELD  = 0.0000000 0.0000000 0.0000000 field for delta impulse in time
 
  Optional k-point grid parameters
   LKPOINTS_OPT  =     F    use optional k-point grid
   KPOINTS_OPT_MODE=     1    mode for optional k-point grid
 
 Orbital magnetization related:
   ORBITALMAG=     F  switch on orbital magnetization
   LCHIMAG   =     F  perturbation theory with respect to B field
   DQ        =  0.001000  dq finite difference perturbation B field
   LLRAUG    =     F  two centre corrections for induced B field

 Solvation model:
   LSOL             =     T         switch on solvation model
   LSOL_SCF         =     T         include solvation in SCF
   ISOL             =     2         solvation model type
   EFERMI_ref       =  0.000000         reference Fermi level
   capacitance_init =  1.000000         initial capacitance
 Nonlinear solvation model:
   LNLDIEL     =     T         switch on non-linear dielectric mode
   LNLION      =     T         switch on non-linear ionic mode
   LNLTEST     =     F         test non-linear model in linear regime
   I_NLOC_SOL  =     1         type of nonlocal dielectric response
   NC_K        =  0.015000     cutoff charge density for cavities (1/Angstrom**3)
   TAU         =  0.000879     cavity formation energy (eV/Angstrom**2)
   SIGMA_K     =  0.600000     cavity width
   A_K         =  0.125000     smoothing length (Angstrom)
   R_SOLV      =  2.190000     solvent radius (Angstrom)
   R_CAV       =  0.000000     cavity radius (Angstrom)
   R_DIEL      =  1.000000     dielectric radius (Angstrom)
   R_ION       =  0.000000     ionic radius (Angstrom)
   R_B         =  0.000000     bound charge radius (Angstrom)
   SOLTEMP     =298.000000     solvent temperature (K)
   EB_K        = 35.688000     relative permittivity of the bulk solvent
   EPSILON_INF =  1.806900     optical relative permittivity of bulk solvent
   N_MOL       =  0.011500     molar density of solvent (1/Angstrom**3)
   P_MOL       =  0.820000     solvent dipole moment (e*Angstrom)
   C_MOLAR     =  0.000000     electrolyte concentration (mol/L)
   LAMBDA_D_K  =  0.000000     Debye length (Angstrom)
   ZION        =  1.000000     charge of ions in electrolyte (e)
   D_ION       = -1.000000     minimum ion packing diameter (Angstrom)



--------------------------------------------------------------------------------------------------------


 conjugate gradient relaxation of ions
   using selective dynamics as specified on POSCAR
 charge density and potential will be updated during run
 spin polarized calculation
 RMM-DIIS sequential band-by-band and
  variant of blocked Davidson during initial phase
 perform sub-space diagonalisation
    before iterative eigenvector-optimisation
 modified Broyden-mixing scheme, WC =      100.0
 initial mixing is a Kerker type mixing with AMIX =  0.4000 and BMIX =      1.0000
 Hartree-type preconditioning will be used
 using additional bands           27
 real space projection scheme for non local part
 use partial core corrections
 calculate Harris-corrections to forces 
   (improved forces if not selfconsistent)
 use gradient corrections 
 use of overlap-Matrix (Vanderbilt PP)
 Gauss-broadening in eV      SIGMA  =   0.05


--------------------------------------------------------------------------------------------------------


  energy-cutoff  :      500.00
  volume of cell :    64000.00
      direct lattice vectors                 reciprocal lattice vectors
    40.000000000  0.000000000  0.000000000     0.025000000  0.000000000  0.000000000
     0.000000000 40.000000000  0.000000000     0.000000000  0.025000000  0.000000000
     0.000000000  0.000000000 40.000000000     0.000000000  0.000000000  0.025000000

  length of vectors
    40.000000000 40.000000000 40.000000000     0.025000000  0.025000000  0.025000000


 
 old parameters found on file WAVECAR:
  energy-cutoff  :      500.00
  volume of cell :    64000.00
      direct lattice vectors                 reciprocal lattice vectors
    40.000000000  0.000000000  0.000000000     0.025000000  0.000000000  0.000000000
     0.000000000 40.000000000  0.000000000     0.000000000  0.025000000  0.000000000
     0.000000000  0.000000000 40.000000000     0.000000000  0.000000000  0.025000000

  length of vectors

 
 k-points in units of 2pi/SCALE and weight: K-Point Grid                            
   0.00000000  0.00000000  0.00000000       1.000
 
 k-points in reciprocal lattice and weights: K-Point Grid                            
   0.00000000  0.00000000  0.00000000       1.000
 
 position of ions in fractional coordinates (direct lattice) 
   0.50298154  0.53014748  0.49999974
   0.46881054  0.53606972  0.49999827
   0.44607213  0.50919163  0.49999911
   0.45827944  0.47635156  0.50000197
   0.49282926  0.47088911  0.50000313
   0.51603589  0.49730423  0.50000145
   0.55191060  0.48976205  0.50000310
   0.57750729  0.51167588  0.49999980
   0.61362676  0.50197843  0.50000100
   0.38887675  0.49102628  0.49999715
   0.41290428  0.51771812  0.49999706
   0.62667775  0.51219510  0.52202669
   0.62667831  0.51218734  0.47797113
   0.61679872  0.47468213  0.50000560
   0.57232741  0.53857192  0.49999509
   0.55801934  0.46302730  0.50000645
   0.50205372  0.44517793  0.50000497
   0.44140035  0.45499622  0.50000214
   0.39144488  0.47538920  0.52250309
   0.39144882  0.47538837  0.47749112
   0.36434857  0.50316440  0.49999412
   0.45908095  0.56155146  0.49999732
   0.51988870  0.55155415  0.49999951
 
 position of ions in cartesian coordinates  (Angst):
  20.11926168 21.20589914 19.99998965
  18.75242149 21.44278867 19.99993083
  17.84288516 20.36766509 19.99996440
  18.33117777 19.05406229 20.00007881
  19.71317024 18.83556424 20.00012530
  20.64143545 19.89216902 20.00005787
  22.07642406 19.59048210 20.00012384
  23.10029148 20.46703534 19.99999190
  24.54507032 20.07913728 20.00003991
  15.55507004 19.64105115 19.99988615
  16.51617138 20.70872498 19.99988221
  25.06711003 20.48780392 20.88106742
  25.06713239 20.48749365 19.11884536
  24.67194862 18.98728516 20.00022382
  22.89309648 21.54287678 19.99980375
  22.32077357 18.52109211 20.00025818
  20.08214871 17.80711721 20.00019880
  17.65601411 18.19984861 20.00008545
  15.65779523 19.01556781 20.90012361
  15.65795297 19.01553475 19.09964466
  14.57394288 20.12657614 19.99976497
  18.36323801 22.46205846 19.99989285
  20.79554795 22.06216611 19.99998025
 


--------------------------------------------------------------------------------------------------------


 k-point   1 :   0.0000 0.0000 0.0000  plane waves: 1624525

 maximum and minimum number of plane-waves per node :    162473   162437

 maximum number of plane-waves:   1624525
 maximum index in each direction: 
   IXMAX=   72   IYMAX=   72   IZMAX=   72
   IXMIN=  -72   IYMIN=  -72   IZMIN=  -72


 real space projection operators:
  total allocation   :       2556.58 KBytes
  max/ min on nodes  :        261.13        249.77


 parallel 3D FFT for wavefunctions:
    minimum data exchange during FFTs selected (reduces bandwidth)
 parallel 3D FFT for charge:
    minimum data exchange during FFTs selected (reduces bandwidth)


 total amount of memory used by VASP MPI-rank0   687370. kBytes
=======================================================================

   base      :      30000. kBytes
   nonlr-proj:       1454. kBytes
   fftplans  :     167689. kBytes
   grid      :     451809. kBytes
   one-center:         18. kBytes
   wavefun   :      36400. kBytes
 
     INWAV:  cpu time     10.2457: real time     10.2695
 Broyden mixing: mesh for mixing (old mesh)
   NGX =145   NGY =145   NGZ =145
  (NGX  =588   NGY  =588   NGZ  =588)
  gives a total of ****** points

 initial charge density was supplied:
 charge density of overlapping atoms calculated
 number of electron      58.0000000 magnetization      23.0000000
 keeping initial charge density in first step


--------------------------------------------------------------------------------------------------------


 Maximum index for non-local projection operator          322
 Maximum index for augmentation-charges          328 (set IRDMAX)


--------------------------------------------------------------------------------------------------------


 First call to EWALD:  gamma=   0.044
 Maximum number of real-space cells 3x 3x 3
 Maximum number of reciprocal cells 3x 3x 3

    FEWALD:  cpu time      0.0015: real time      0.0015


--------------------------------------- Iteration      1(   1)  ---------------------------------------


    POTLOK:  cpu time      5.7206: real time      5.7338
    SETDIJ:  cpu time      0.0393: real time      0.0392
     EDDAV:  cpu time     18.1900: real time     18.2286
       DOS:  cpu time      0.0007: real time      0.0007
    CHARGE:  cpu time      2.0229: real time      2.0273
    MIXING:  cpu time      0.2420: real time      0.2420
    --------------------------------------------
      LOOP:  cpu time     26.2155: real time     26.2716

 eigenvalue-minimisations  :   304
 total energy-change (2. order) :-0.1281866E+03  (-0.1184406E+02)
 number of electron      58.0000000 magnetization      22.1138610
 augmentation part        2.0413212 magnetization      22.1507468

 Broyden mixing:
  rms(total) = 0.31518E+01    rms(broyden)= 0.31513E+01
  rms(prec ) = 0.31837E+01
  weight for this iteration     100.00

 Free energy of the ion-electron system (eV)
  ---------------------------------------------------
  alpha Z        PSCENC =         0.23359489
  Ewald energy   TEWEN  =      6108.96787036
  -Hartree energ DENC   =     -7490.82138880
  -exchange      EXHF   =         0.00000000
  -V(xc)+E(xc)   XCENC  =       191.55637214
  PAW double counting   =      1451.87596113    -1459.37583258
  entropy T*S    EENTRO =        -0.00000000
  eigenvalues    EBANDS =      -984.30102864
  atomic energy  EATOM  =      2053.67780985
  Solvation  Ecorr_sol  =         0.00000000
  ---------------------------------------------------
  free energy    TOTEN  =      -128.18664165 eV

  energy without entropy =     -128.18664165  energy(sigma->0) =     -128.18664165


--------------------------------------------------------------------------------------------------------




--------------------------------------- Iteration      1(   2)  ---------------------------------------


    --------------------------------------------
      INIT:  cpu time      0.3469: real time      0.3470
  FINALIZE:  cpu time     33.8004: real time     33.8399
    --------------------------------------------
    POTLOK:  cpu time     40.0374: real time     40.0975
    SETDIJ:  cpu time      0.0417: real time      0.0417
    EDDIAG:  cpu time      3.8490: real time      3.8551
  RMM-DIIS:  cpu time     16.3546: real time     16.3933
    ORTHCH:  cpu time      0.2247: real time      0.2253
       DOS:  cpu time      0.0003: real time      0.0003
    CHARGE:  cpu time      1.8528: real time      1.8571
    MIXING:  cpu time      0.1823: real time      0.1824
    --------------------------------------------
      LOOP:  cpu time     62.5429: real time     62.6528

 eigenvalue-minimisations  :   224
 total energy-change (2. order) : 0.6581793E+02  (-0.1245204E+02)
 number of electron      58.0000000 magnetization      21.1552134
 augmentation part        2.0178470 magnetization      21.0693152

 Broyden mixing:
  rms(total) = 0.15040E+01    rms(broyden)= 0.15039E+01
  rms(prec ) = 0.15309E+01
  weight for this iteration     100.00

 eigenvalues of (default mixing * dielectric matrix)
  average eigenvalue GAMMA=   0.9543
  0.9543

 Free energy of the ion-electron system (eV)
  ---------------------------------------------------
  alpha Z        PSCENC =         0.23359489
  Ewald energy   TEWEN  =      6108.96787036
  -Hartree energ DENC   =     -7611.97455037
  -exchange      EXHF   =         0.00000000
  -V(xc)+E(xc)   XCENC  =       252.15351340
  PAW double counting   =      2532.11363488    -2540.87918787
  entropy T*S    EENTRO =        -0.00000000
  eigenvalues    EBANDS =      -851.75505411
  atomic energy  EATOM  =      2053.67780985
  Solvation  Ecorr_sol  =        -4.90634682
  ---------------------------------------------------
  free energy    TOTEN  =       -62.36871580 eV

  energy without entropy =      -62.36871580  energy(sigma->0) =      -62.36871580


--------------------------------------------------------------------------------------------------------




--------------------------------------- Iteration      1(   3)  ---------------------------------------


    --------------------------------------------
      INIT:  cpu time      0.3545: real time      0.3543
  FINALIZE:  cpu time     41.0597: real time     41.1085
    --------------------------------------------
    POTLOK:  cpu time     47.2937: real time     47.3672
    SETDIJ:  cpu time      0.0380: real time      0.0381
    EDDIAG:  cpu time      3.8773: real time      3.8842
  RMM-DIIS:  cpu time     16.4833: real time     16.5275
    ORTHCH:  cpu time      0.2230: real time      0.2234
       DOS:  cpu time      0.0017: real time      0.0017
    CHARGE:  cpu time      1.8657: real time      1.8701
    MIXING:  cpu time      0.1861: real time      0.1858
    --------------------------------------------
      LOOP:  cpu time     69.9687: real time     70.0979

 eigenvalue-minimisations  :   224
 total energy-change (2. order) :-0.4038544E+02  (-0.5132238E+01)
 number of electron      57.9999999 magnetization      20.0638126
 augmentation part        1.9557351 magnetization      19.9425043

 Broyden mixing:
  rms(total) = 0.89823E+00    rms(broyden)= 0.89815E+00
  rms(prec ) = 0.90767E+00
  weight for this iteration     100.00

 eigenvalues of (default mixing * dielectric matrix)
  average eigenvalue GAMMA=   1.1052
  0.7860  1.4245

 Free energy of the ion-electron system (eV)
  ---------------------------------------------------
  alpha Z        PSCENC =         0.23359489
  Ewald energy   TEWEN  =      6108.96787036
  -Hartree energ DENC   =     -7709.89809864
  -exchange      EXHF   =         0.00000000
  -V(xc)+E(xc)   XCENC  =       223.65990214
  PAW double counting   =      3496.37585881    -3505.85290884
  entropy T*S    EENTRO =        -0.00000000
  eigenvalues    EBANDS =      -760.70272934
  atomic energy  EATOM  =      2053.67780985
  Solvation  Ecorr_sol  =        -9.21545770
  ---------------------------------------------------
  free energy    TOTEN  =      -102.75415848 eV

  energy without entropy =     -102.75415848  energy(sigma->0) =     -102.75415848


--------------------------------------------------------------------------------------------------------




--------------------------------------- Iteration      1(   4)  ---------------------------------------


    --------------------------------------------
      INIT:  cpu time      0.3476: real time      0.3471
  FINALIZE:  cpu time     43.4232: real time     43.4686
    --------------------------------------------
    POTLOK:  cpu time     49.6726: real time     49.7319
    SETDIJ:  cpu time      0.0366: real time      0.0367
    EDDIAG:  cpu time      3.8500: real time      3.8558
  RMM-DIIS:  cpu time     16.1286: real time     16.1609
    ORTHCH:  cpu time      0.2242: real time      0.2247
       DOS:  cpu time      0.0002: real time      0.0002
    CHARGE:  cpu time      1.8568: real time      1.8606
    MIXING:  cpu time      0.1893: real time      0.1890
    --------------------------------------------
      LOOP:  cpu time     71.9584: real time     72.0600

 eigenvalue-minimisations  :   225
 total energy-change (2. order) :-0.1052718E+02  (-0.2049088E+01)
 number of electron      57.9999998 magnetization      19.1486239
 augmentation part        1.9007696 magnetization      19.0421280

 Broyden mixing:
  rms(total) = 0.66739E+00    rms(broyden)= 0.66731E+00
  rms(prec ) = 0.67278E+00
  weight for this iteration     100.00

 eigenvalues of (default mixing * dielectric matrix)
  average eigenvalue GAMMA=   1.0626
  1.4159  1.0993  0.6727

 Free energy of the ion-electron system (eV)
  ---------------------------------------------------
  alpha Z        PSCENC =         0.23359489
  Ewald energy   TEWEN  =      6108.96787036
  -Hartree energ DENC   =     -7766.56144020
  -exchange      EXHF   =         0.00000000
  -V(xc)+E(xc)   XCENC  =       218.79304016
  PAW double counting   =      4266.65091612    -4276.30941906
  entropy T*S    EENTRO =        -0.00000000
  eigenvalues    EBANDS =      -706.77129991
  atomic energy  EATOM  =      2053.67780985
  Solvation  Ecorr_sol  =       -11.96240596
  ---------------------------------------------------
  free energy    TOTEN  =      -113.28133376 eV

  energy without entropy =     -113.28133376  energy(sigma->0) =     -113.28133376


--------------------------------------------------------------------------------------------------------




--------------------------------------- Iteration      1(   5)  ---------------------------------------


    --------------------------------------------
      INIT:  cpu time      0.3543: real time      0.3539
  FINALIZE:  cpu time     43.3601: real time     43.4063
    --------------------------------------------
    POTLOK:  cpu time     49.6339: real time     49.6941
    SETDIJ:  cpu time      0.0393: real time      0.0393
    EDDIAG:  cpu time      3.8663: real time      3.8729
  RMM-DIIS:  cpu time     16.3114: real time     16.3447
    ORTHCH:  cpu time      0.2238: real time      0.2243
       DOS:  cpu time      0.0002: real time      0.0002
    CHARGE:  cpu time      1.8623: real time      1.8659
    MIXING:  cpu time      0.1933: real time      0.1925
    --------------------------------------------
      LOOP:  cpu time     72.1305: real time     72.2339

 eigenvalue-minimisations  :   224
 total energy-change (2. order) :-0.7061788E+01  (-0.4720917E+00)
 number of electron      57.9999998 magnetization      17.4643125
 augmentation part        1.8871021 magnetization      17.3749520

 Broyden mixing:
  rms(total) = 0.44142E+00    rms(broyden)= 0.44140E+00
  rms(prec ) = 0.44445E+00
  weight for this iteration     100.00

 eigenvalues of (default mixing * dielectric matrix)
  average eigenvalue GAMMA=   1.3327
  1.9249  1.9249  0.8425  0.6385

 Free energy of the ion-electron system (eV)
  ---------------------------------------------------
  alpha Z        PSCENC =         0.23359489
  Ewald energy   TEWEN  =      6108.96787036
  -Hartree energ DENC   =     -7769.81067759
  -exchange      EXHF   =         0.00000000
  -V(xc)+E(xc)   XCENC  =       213.68897414
  PAW double counting   =      4517.07948621    -4526.54285212
  entropy T*S    EENTRO =        -0.00000000
  eigenvalues    EBANDS =      -706.12930273
  atomic energy  EATOM  =      2053.67780985
  Solvation  Ecorr_sol  =       -11.50802478
  ---------------------------------------------------
  free energy    TOTEN  =      -120.34312178 eV

  energy without entropy =     -120.34312178  energy(sigma->0) =     -120.34312178


--------------------------------------------------------------------------------------------------------




--------------------------------------- Iteration      1(   6)  ---------------------------------------


    --------------------------------------------
      INIT:  cpu time      0.3531: real time      0.3530
  FINALIZE:  cpu time     43.4184: real time     43.4653
    --------------------------------------------
    POTLOK:  cpu time     49.6832: real time     49.7465
    SETDIJ:  cpu time      0.0390: real time      0.0390
    EDDIAG:  cpu time      3.8575: real time      3.8633
  RMM-DIIS:  cpu time     16.5082: real time     16.5422
    ORTHCH:  cpu time      0.2279: real time      0.2284
       DOS:  cpu time      0.0003: real time      0.0003
    CHARGE:  cpu time      1.8599: real time      1.8638
    MIXING:  cpu time      0.1979: real time      0.1974
    --------------------------------------------
      LOOP:  cpu time     72.3739: real time     72.4810

 eigenvalue-minimisations  :   226
 total energy-change (2. order) :-0.1156582E+02  (-0.6862191E+00)
 number of electron      57.9999998 magnetization      16.8320845
 augmentation part        1.8804772 magnetization      16.7700881

 Broyden mixing:
  rms(total) = 0.26151E+00    rms(broyden)= 0.26148E+00
  rms(prec ) = 0.26301E+00
  weight for this iteration     100.00

 eigenvalues of (default mixing * dielectric matrix)
  average eigenvalue GAMMA=   1.3018
  2.3367  1.6925  1.0095  0.8330  0.6370

 Free energy of the ion-electron system (eV)
  ---------------------------------------------------
  alpha Z        PSCENC =         0.23359489
  Ewald energy   TEWEN  =      6108.96787036
  -Hartree energ DENC   =     -7777.60427113
  -exchange      EXHF   =         0.00000000
  -V(xc)+E(xc)   XCENC  =       205.28209977
  PAW double counting   =      4866.95360561    -4876.13613222
  entropy T*S    EENTRO =        -0.00000000
  eigenvalues    EBANDS =      -703.92104449
  atomic energy  EATOM  =      2053.67780985
  Solvation  Ecorr_sol  =        -9.36247869
  ---------------------------------------------------
  free energy    TOTEN  =      -131.90894605 eV

  energy without entropy =     -131.90894605  energy(sigma->0) =     -131.90894605


--------------------------------------------------------------------------------------------------------




--------------------------------------- Iteration      1(   7)  ---------------------------------------


    --------------------------------------------
      INIT:  cpu time      0.3489: real time      0.3493
  FINALIZE:  cpu time     50.1759: real time     50.2618
    --------------------------------------------
    POTLOK:  cpu time     56.4414: real time     56.5467
    SETDIJ:  cpu time      0.0410: real time      0.0410
    EDDIAG:  cpu time      3.9342: real time      3.9420
  RMM-DIIS:  cpu time     16.2335: real time     16.2694
    ORTHCH:  cpu time      0.2268: real time      0.2272
       DOS:  cpu time      0.0002: real time      0.0002
    CHARGE:  cpu time      1.8459: real time      1.8496
    MIXING:  cpu time      0.1991: real time      0.1995
    --------------------------------------------
      LOOP:  cpu time     78.9220: real time     79.0755

 eigenvalue-minimisations  :   224
 total energy-change (2. order) :-0.1269440E+01  (-0.1480101E+00)
 number of electron      57.9999997 magnetization      15.5216819
 augmentation part        1.8628115 magnetization      15.4770934

 Broyden mixing:
  rms(total) = 0.22998E+00    rms(broyden)= 0.22996E+00
  rms(prec ) = 0.23106E+00
  weight for this iteration     100.00

 eigenvalues of (default mixing * dielectric matrix)
  average eigenvalue GAMMA=   1.2020
  2.0999  2.0999  0.8575  0.8575  0.6486  0.6486

 Free energy of the ion-electron system (eV)
  ---------------------------------------------------
  alpha Z        PSCENC =         0.23359489
  Ewald energy   TEWEN  =      6108.96787036
  -Hartree energ DENC   =     -7784.56505120
  -exchange      EXHF   =         0.00000000
  -V(xc)+E(xc)   XCENC  =       204.62747355
  PAW double counting   =      4878.93273570    -4888.17072009
  entropy T*S    EENTRO =        -0.00000000
  eigenvalues    EBANDS =      -699.24471463
  atomic energy  EATOM  =      2053.67780985
  Solvation  Ecorr_sol  =        -7.63738469
  ---------------------------------------------------
  free energy    TOTEN  =      -133.17838627 eV

  energy without entropy =     -133.17838627  energy(sigma->0) =     -133.17838627


--------------------------------------------------------------------------------------------------------




--------------------------------------- Iteration      1(   8)  ---------------------------------------


    --------------------------------------------
      INIT:  cpu time      0.3694: real time      0.3698
  FINALIZE:  cpu time     45.6736: real time     45.7262
    --------------------------------------------
    POTLOK:  cpu time     51.9389: real time     52.0112
    SETDIJ:  cpu time      0.0390: real time      0.0390
    EDDIAG:  cpu time      3.8872: real time      3.8927
  RMM-DIIS:  cpu time     16.4275: real time     16.4614
    ORTHCH:  cpu time      0.2209: real time      0.2215
       DOS:  cpu time      0.0003: real time      0.0003
    CHARGE:  cpu time      1.8456: real time      1.8494
    MIXING:  cpu time      0.2032: real time      0.2029
    --------------------------------------------
      LOOP:  cpu time     74.5625: real time     74.6784

 eigenvalue-minimisations  :   224
 total energy-change (2. order) :-0.2191997E+01  (-0.8852560E-01)
 number of electron      57.9999997 magnetization      12.9192181
 augmentation part        1.8626859 magnetization      12.8852515

 Broyden mixing:
  rms(total) = 0.17362E+00    rms(broyden)= 0.17361E+00
  rms(prec ) = 0.17402E+00
  weight for this iteration     100.00

 eigenvalues of (default mixing * dielectric matrix)
  average eigenvalue GAMMA=   1.5462
  3.4932  2.7376  1.4393  1.0355  0.8695  0.6496  0.5990

 Free energy of the ion-electron system (eV)
  ---------------------------------------------------
  alpha Z        PSCENC =         0.23359489
  Ewald energy   TEWEN  =      6108.96787036
  -Hartree energ DENC   =     -7780.63041507
  -exchange      EXHF   =         0.00000000
  -V(xc)+E(xc)   XCENC  =       202.54594104
  PAW double counting   =      4757.65526207    -4766.83629553
  entropy T*S    EENTRO =        -0.00000000
  eigenvalues    EBANDS =      -706.88271370
  atomic energy  EATOM  =      2053.67780985
  Solvation  Ecorr_sol  =        -4.10143690
  ---------------------------------------------------
  free energy    TOTEN  =      -135.37038299 eV

  energy without entropy =     -135.37038299  energy(sigma->0) =     -135.37038299


--------------------------------------------------------------------------------------------------------




--------------------------------------- Iteration      1(   9)  ---------------------------------------


    --------------------------------------------
      INIT:  cpu time      0.3702: real time      0.3700
  FINALIZE:  cpu time     45.6446: real time     45.6922
    --------------------------------------------
    POTLOK:  cpu time     51.9181: real time     51.9826
    SETDIJ:  cpu time      0.0386: real time      0.0386
    EDDIAG:  cpu time      3.8919: real time      3.8971
  RMM-DIIS:  cpu time     16.9050: real time     16.9408
    ORTHCH:  cpu time      0.2196: real time      0.2202
       DOS:  cpu time      0.0003: real time      0.0003
    CHARGE:  cpu time      1.8411: real time      1.8449
    MIXING:  cpu time      0.2103: real time      0.2093
    --------------------------------------------
      LOOP:  cpu time     75.0248: real time     75.1339

 eigenvalue-minimisations  :   236
 total energy-change (2. order) :-0.8642431E+00  (-0.2042573E+00)
 number of electron      57.9999997 magnetization      12.4017090
 augmentation part        1.8536119 magnetization      12.3860748

 Broyden mixing:
  rms(total) = 0.12794E+00    rms(broyden)= 0.12793E+00
  rms(prec ) = 0.12894E+00
  weight for this iteration     100.00

 eigenvalues of (default mixing * dielectric matrix)
  average eigenvalue GAMMA=   1.5347
  4.4392  2.3170  1.6301  0.9408  0.8305  0.7507  0.7507  0.6185

 Free energy of the ion-electron system (eV)
  ---------------------------------------------------
  alpha Z        PSCENC =         0.23359489
  Ewald energy   TEWEN  =      6108.96787036
  -Hartree energ DENC   =     -7782.02048127
  -exchange      EXHF   =         0.00000000
  -V(xc)+E(xc)   XCENC  =       202.07481041
  PAW double counting   =      4661.88522202    -4671.02203877
  entropy T*S    EENTRO =        -0.00000000
  eigenvalues    EBANDS =      -711.75889021
  atomic energy  EATOM  =      2053.67780985
  Solvation  Ecorr_sol  =         1.72747663
  ---------------------------------------------------
  free energy    TOTEN  =      -136.23462610 eV

  energy without entropy =     -136.23462610  energy(sigma->0) =     -136.23462610


--------------------------------------------------------------------------------------------------------




--------------------------------------- Iteration      1(  10)  ---------------------------------------


    --------------------------------------------
      INIT:  cpu time      0.3686: real time      0.3682
  FINALIZE:  cpu time     47.8159: real time     47.8652
    --------------------------------------------
    POTLOK:  cpu time     54.0663: real time     54.1328
    SETDIJ:  cpu time      0.0375: real time      0.0375
    EDDIAG:  cpu time      3.8847: real time      3.8913
  RMM-DIIS:  cpu time     17.0150: real time     17.0507
    ORTHCH:  cpu time      0.2206: real time      0.2211
       DOS:  cpu time      0.0013: real time      0.0013
    CHARGE:  cpu time      1.8452: real time      1.8488
    MIXING:  cpu time      0.2153: real time      0.2148
    --------------------------------------------
      LOOP:  cpu time     77.2860: real time     77.3984

 eigenvalue-minimisations  :   230
 total energy-change (2. order) :-0.8993107E+00  (-0.1787188E-01)
 number of electron      57.9999997 magnetization      10.9142713
 augmentation part        1.8517710 magnetization      10.9045623

 Broyden mixing:
  rms(total) = 0.91928E-01    rms(broyden)= 0.91922E-01
  rms(prec ) = 0.92536E-01
  weight for this iteration     100.00

 eigenvalues of (default mixing * dielectric matrix)
  average eigenvalue GAMMA=   1.5931
  5.2645  1.8684  1.8684  1.5489  0.8081  0.8081  0.6115  0.8196  0.7401

 Free energy of the ion-electron system (eV)
  ---------------------------------------------------
  alpha Z        PSCENC =         0.23359489
  Ewald energy   TEWEN  =      6108.96787036
  -Hartree energ DENC   =     -7784.12381943
  -exchange      EXHF   =         0.00000000
  -V(xc)+E(xc)   XCENC  =       201.33739062
  PAW double counting   =      4700.03669552    -4709.18492234
  entropy T*S    EENTRO =        -0.00000000
  eigenvalues    EBANDS =      -710.60426489
  atomic energy  EATOM  =      2053.67780985
  Solvation  Ecorr_sol  =         2.52570863
  ---------------------------------------------------
  free energy    TOTEN  =      -137.13393681 eV

  energy without entropy =     -137.13393681  energy(sigma->0) =     -137.13393681


--------------------------------------------------------------------------------------------------------




--------------------------------------- Iteration      1(  11)  ---------------------------------------


    --------------------------------------------
      INIT:  cpu time      0.3701: real time      0.3696
  FINALIZE:  cpu time     43.3751: real time     43.4347
    --------------------------------------------
    POTLOK:  cpu time     49.6419: real time     49.7185
    SETDIJ:  cpu time      0.0375: real time      0.0375
    EDDIAG:  cpu time      3.8930: real time      3.8979
  RMM-DIIS:  cpu time     16.4364: real time     16.4707
    ORTHCH:  cpu time      0.2245: real time      0.2250
       DOS:  cpu time      0.0003: real time      0.0003
    CHARGE:  cpu time      1.8475: real time      1.8511
    MIXING:  cpu time      0.2242: real time      0.2237
    --------------------------------------------
      LOOP:  cpu time     72.3051: real time     72.4248

 eigenvalue-minimisations  :   226
 total energy-change (2. order) :-0.1327685E+01  (-0.2151520E-01)
 number of electron      57.9999997 magnetization       9.8067269
 augmentation part        1.8522413 magnetization       9.8008013

 Broyden mixing:
  rms(total) = 0.67922E-01    rms(broyden)= 0.67917E-01
  rms(prec ) = 0.68338E-01
  weight for this iteration     100.00

 eigenvalues of (default mixing * dielectric matrix)
  average eigenvalue GAMMA=   1.7710
  6.9266  2.2887  2.2887  1.4647  0.9586  0.9586  0.7568  0.7568  0.6953  0.6157

 Free energy of the ion-electron system (eV)
  ---------------------------------------------------
  alpha Z        PSCENC =         0.23359489
  Ewald energy   TEWEN  =      6108.96787036
  -Hartree energ DENC   =     -7784.35212133
  -exchange      EXHF   =         0.00000000
  -V(xc)+E(xc)   XCENC  =       200.05693818
  PAW double counting   =      4702.07337075    -4711.23201082
  entropy T*S    EENTRO =        -0.00000000
  eigenvalues    EBANDS =      -712.68921346
  atomic energy  EATOM  =      2053.67780985
  Solvation  Ecorr_sol  =         4.80214016
  ---------------------------------------------------
  free energy    TOTEN  =      -138.46162143 eV

  energy without entropy =     -138.46162143  energy(sigma->0) =     -138.46162143


--------------------------------------------------------------------------------------------------------




--------------------------------------- Iteration      1(  12)  ---------------------------------------


    --------------------------------------------
      INIT:  cpu time      0.3736: real time      0.3729
  FINALIZE:  cpu time     43.3428: real time     43.3845
    --------------------------------------------
    POTLOK:  cpu time     49.6155: real time     49.6750
    SETDIJ:  cpu time      0.0387: real time      0.0388
    EDDIAG:  cpu time      4.1977: real time      4.2037
  RMM-DIIS:  cpu time     16.6107: real time     16.6455
    ORTHCH:  cpu time      0.2137: real time      0.2142
       DOS:  cpu time      0.0003: real time      0.0003
    CHARGE:  cpu time      1.8414: real time      1.8450
    MIXING:  cpu time      0.2354: real time      0.2349
    --------------------------------------------
      LOOP:  cpu time     72.7534: real time     72.8574

 eigenvalue-minimisations  :   229
 total energy-change (2. order) :-0.6955583E+00  (-0.9595862E-02)
 number of electron      57.9999997 magnetization       9.0404013
 augmentation part        1.8502073 magnetization       9.0370823

 Broyden mixing:
  rms(total) = 0.51899E-01    rms(broyden)= 0.51897E-01
  rms(prec ) = 0.52229E-01
  weight for this iteration     100.00

 eigenvalues of (default mixing * dielectric matrix)
  average eigenvalue GAMMA=   1.7295
  7.3021  2.1578  2.1578  1.3859  1.3859  0.9885  0.7766  0.7766  0.8280  0.6094
  0.6555

 Free energy of the ion-electron system (eV)
  ---------------------------------------------------
  alpha Z        PSCENC =         0.23359489
  Ewald energy   TEWEN  =      6108.96787036
  -Hartree energ DENC   =     -7784.53662274
  -exchange      EXHF   =         0.00000000
  -V(xc)+E(xc)   XCENC  =       199.33161175
  PAW double counting   =      4677.13823434    -4686.31841070
  entropy T*S    EENTRO =        -0.00000000
  eigenvalues    EBANDS =      -714.00892676
  atomic energy  EATOM  =      2053.67780985
  Solvation  Ecorr_sol  =         6.35765933
  ---------------------------------------------------
  free energy    TOTEN  =      -139.15717970 eV

  energy without entropy =     -139.15717970  energy(sigma->0) =     -139.15717970


--------------------------------------------------------------------------------------------------------




--------------------------------------- Iteration      1(  13)  ---------------------------------------


    --------------------------------------------
      INIT:  cpu time      0.3696: real time      0.3693
  FINALIZE:  cpu time     43.4084: real time     43.4551
    --------------------------------------------
    POTLOK:  cpu time     49.6817: real time     49.7470
    SETDIJ:  cpu time      0.0385: real time      0.0386
    EDDIAG:  cpu time      4.1783: real time      4.1846
  RMM-DIIS:  cpu time     16.6874: real time     16.7229
    ORTHCH:  cpu time      0.2234: real time      0.2240
       DOS:  cpu time      0.0003: real time      0.0003
    CHARGE:  cpu time      1.8448: real time      1.8487
    MIXING:  cpu time      0.2440: real time      0.2438
    --------------------------------------------
      LOOP:  cpu time     72.8985: real time     73.0098

 eigenvalue-minimisations  :   232
 total energy-change (2. order) :-0.2615356E+00  (-0.3403455E-02)
 number of electron      57.9999997 magnetization       7.2253572
 augmentation part        1.8485540 magnetization       7.2237712

 Broyden mixing:
  rms(total) = 0.43937E-01    rms(broyden)= 0.43936E-01
  rms(prec ) = 0.44123E-01
  weight for this iteration     100.00

 eigenvalues of (default mixing * dielectric matrix)
  average eigenvalue GAMMA=   1.8926
  8.3263  2.8368  2.2651  2.2651  1.3285  1.0764  1.0764  0.7485  0.7485  0.7985
  0.6252  0.6166

 Free energy of the ion-electron system (eV)
  ---------------------------------------------------
  alpha Z        PSCENC =         0.23359489
  Ewald energy   TEWEN  =      6108.96787036
  -Hartree energ DENC   =     -7783.62648062
  -exchange      EXHF   =         0.00000000
  -V(xc)+E(xc)   XCENC  =       199.04897803
  PAW double counting   =      4679.77769914    -4688.95576325
  entropy T*S    EENTRO =        -0.00000000
  eigenvalues    EBANDS =      -715.31852315
  atomic energy  EATOM  =      2053.67780985
  Solvation  Ecorr_sol  =         6.77609945
  ---------------------------------------------------
  free energy    TOTEN  =      -139.41871530 eV

  energy without entropy =     -139.41871530  energy(sigma->0) =     -139.41871530


--------------------------------------------------------------------------------------------------------




--------------------------------------- Iteration      1(  14)  ---------------------------------------


    --------------------------------------------
      INIT:  cpu time      0.3688: real time      0.3685
  FINALIZE:  cpu time     43.4266: real time     43.4692
    --------------------------------------------
    POTLOK:  cpu time     49.7024: real time     49.7625
    SETDIJ:  cpu time      0.0380: real time      0.0380
    EDDIAG:  cpu time      4.1581: real time      4.1652
  RMM-DIIS:  cpu time     16.5365: real time     16.5708
    ORTHCH:  cpu time      0.2198: real time      0.2204
       DOS:  cpu time      0.0003: real time      0.0003
    CHARGE:  cpu time      1.8534: real time      1.8570
    MIXING:  cpu time      0.2687: real time      0.2687
    --------------------------------------------
      LOOP:  cpu time     72.7773: real time     72.8828

 eigenvalue-minimisations  :   224
 total energy-change (2. order) :-0.3607974E+00  (-0.1448954E-02)
 number of electron      57.9999997 magnetization       6.6700305
 augmentation part        1.8485073 magnetization       6.6686598

 Broyden mixing:
  rms(total) = 0.33011E-01    rms(broyden)= 0.33011E-01
  rms(prec ) = 0.33155E-01
  weight for this iteration     100.00

 eigenvalues of (default mixing * dielectric matrix)
  average eigenvalue GAMMA=   1.9345
  9.1080  3.9810  2.1114  2.1114  1.2079  1.2079  1.1022  0.7809  0.7809  0.8060
  0.7069  0.6220  0.6220

 Free energy of the ion-electron system (eV)
  ---------------------------------------------------
  alpha Z        PSCENC =         0.23359489
  Ewald energy   TEWEN  =      6108.96787036
  -Hartree energ DENC   =     -7781.27182765
  -exchange      EXHF   =         0.00000000
  -V(xc)+E(xc)   XCENC  =       198.65366837
  PAW double counting   =      4701.54937479    -4710.72003857
  entropy T*S    EENTRO =        -0.00000000
  eigenvalues    EBANDS =      -718.45668409
  atomic energy  EATOM  =      2053.67780985
  Solvation  Ecorr_sol  =         7.58671930
  ---------------------------------------------------
  free energy    TOTEN  =      -139.77951275 eV

  energy without entropy =     -139.77951275  energy(sigma->0) =     -139.77951275


--------------------------------------------------------------------------------------------------------




--------------------------------------- Iteration      1(  15)  ---------------------------------------


    --------------------------------------------
      INIT:  cpu time      0.3720: real time      0.3719
  FINALIZE:  cpu time     43.4001: real time     43.4521
    --------------------------------------------
    POTLOK:  cpu time     49.7267: real time     49.7959
    SETDIJ:  cpu time      0.0388: real time      0.0388
    EDDIAG:  cpu time      4.1899: real time      4.1982
  RMM-DIIS:  cpu time     16.2112: real time     16.2439
    ORTHCH:  cpu time      0.2222: real time      0.2227
       DOS:  cpu time      0.0010: real time      0.0010
    CHARGE:  cpu time      1.8400: real time      1.8433
    MIXING:  cpu time      0.2668: real time      0.2670
    --------------------------------------------
      LOOP:  cpu time     72.4965: real time     72.6108

 eigenvalue-minimisations  :   227
 total energy-change (2. order) :-0.1049547E+00  (-0.4289420E-03)
 number of electron      57.9999997 magnetization       5.4361789
 augmentation part        1.8488146 magnetization       5.4350849

 Broyden mixing:
  rms(total) = 0.28829E-01    rms(broyden)= 0.28829E-01
  rms(prec ) = 0.28901E-01
  weight for this iteration     100.00

 eigenvalues of (default mixing * dielectric matrix)
  average eigenvalue GAMMA=   1.9642
  9.5469  4.3970  2.0658  2.0658  1.5291  1.5291  1.0156  1.0156  0.7781  0.7781
  0.8058  0.7321  0.6198  0.6198

 Free energy of the ion-electron system (eV)
  ---------------------------------------------------
  alpha Z        PSCENC =         0.23359489
  Ewald energy   TEWEN  =      6108.96787036
  -Hartree energ DENC   =     -7780.65578943
  -exchange      EXHF   =         0.00000000
  -V(xc)+E(xc)   XCENC  =       198.52673929
  PAW double counting   =      4698.02550790    -4707.19762438
  entropy T*S    EENTRO =        -0.00000000
  eigenvalues    EBANDS =      -719.06565269
  atomic energy  EATOM  =      2053.67780985
  Solvation  Ecorr_sol  =         7.60307676
  ---------------------------------------------------
  free energy    TOTEN  =      -139.88446746 eV

  energy without entropy =     -139.88446746  energy(sigma->0) =     -139.88446746


--------------------------------------------------------------------------------------------------------




--------------------------------------- Iteration      1(  16)  ---------------------------------------


    --------------------------------------------
      INIT:  cpu time      0.3753: real time      0.3759
  FINALIZE:  cpu time     45.6003: real time     45.6811
    --------------------------------------------
    POTLOK:  cpu time     51.8764: real time     51.9773
    SETDIJ:  cpu time      0.0378: real time      0.0378
    EDDIAG:  cpu time      4.2055: real time      4.2138
  RMM-DIIS:  cpu time     16.2520: real time     16.2877
    ORTHCH:  cpu time      0.2195: real time      0.2200
       DOS:  cpu time      0.0002: real time      0.0002
    CHARGE:  cpu time      1.8458: real time      1.8497
    MIXING:  cpu time      0.2784: real time      0.2788
    --------------------------------------------
      LOOP:  cpu time     74.7155: real time     74.8654

 eigenvalue-minimisations  :   227
 total energy-change (2. order) :-0.7700343E-01  (-0.6176794E-03)
 number of electron      57.9999997 magnetization       4.1081138
 augmentation part        1.8496724 magnetization       4.1076007

 Broyden mixing:
  rms(total) = 0.24728E-01    rms(broyden)= 0.24728E-01
  rms(prec ) = 0.24858E-01
  weight for this iteration     100.00

 eigenvalues of (default mixing * dielectric matrix)
  average eigenvalue GAMMA=   2.0810
 10.3286  5.4119  2.3787  2.3787  2.0062  1.2451  1.2451  1.0348  0.7791  0.7791
  0.8445  0.8445  0.6974  0.6203  0.6203

 Free energy of the ion-electron system (eV)
  ---------------------------------------------------
  alpha Z        PSCENC =         0.23359489
  Ewald energy   TEWEN  =      6108.96787036
  -Hartree energ DENC   =     -7779.36325043
  -exchange      EXHF   =         0.00000000
  -V(xc)+E(xc)   XCENC  =       198.41200953
  PAW double counting   =      4691.91546231    -4701.08330837
  entropy T*S    EENTRO =        -0.00000000
  eigenvalues    EBANDS =      -719.83876983
  atomic energy  EATOM  =      2053.67780985
  Solvation  Ecorr_sol  =         7.11711080
  ---------------------------------------------------
  free energy    TOTEN  =      -139.96147089 eV

  energy without entropy =     -139.96147089  energy(sigma->0) =     -139.96147089


--------------------------------------------------------------------------------------------------------




--------------------------------------- Iteration      1(  17)  ---------------------------------------


    --------------------------------------------
      INIT:  cpu time      0.3837: real time      0.3832
  FINALIZE:  cpu time     45.6231: real time     45.6757
    --------------------------------------------
    POTLOK:  cpu time     51.8618: real time     51.9456
    SETDIJ:  cpu time      0.0371: real time      0.0371
    EDDIAG:  cpu time      4.1998: real time      4.2041
  RMM-DIIS:  cpu time     16.3202: real time     16.3548
    ORTHCH:  cpu time      0.2099: real time      0.2104
       DOS:  cpu time      0.0004: real time      0.0004
    CHARGE:  cpu time      1.8425: real time      1.8464
    MIXING:  cpu time      0.2971: real time      0.2970
    --------------------------------------------
      LOOP:  cpu time     74.7687: real time     74.8957

 eigenvalue-minimisations  :   224
 total energy-change (2. order) :-0.3425398E-01  (-0.2292880E-03)
 number of electron      57.9999997 magnetization       3.0930046
 augmentation part        1.8496741 magnetization       3.0926506

 Broyden mixing:
  rms(total) = 0.19440E-01    rms(broyden)= 0.19440E-01
  rms(prec ) = 0.19506E-01
  weight for this iteration     100.00

 eigenvalues of (default mixing * dielectric matrix)
  average eigenvalue GAMMA=   2.1074
 10.8295  6.0242  2.8900  2.1300  2.1300  1.3219  1.3219  0.9870  0.9036  0.9036
  0.7624  0.7624  0.8323  0.6234  0.6234  0.6723

 Free energy of the ion-electron system (eV)
  ---------------------------------------------------
  alpha Z        PSCENC =         0.23359489
  Ewald energy   TEWEN  =      6108.96787036
  -Hartree energ DENC   =     -7778.48724965
  -exchange      EXHF   =         0.00000000
  -V(xc)+E(xc)   XCENC  =       198.37583302
  PAW double counting   =      4695.79032365    -4704.95523762
  entropy T*S    EENTRO =        -0.00000000
  eigenvalues    EBANDS =      -720.10856944
  atomic energy  EATOM  =      2053.67780985
  Solvation  Ecorr_sol  =         6.50990008
  ---------------------------------------------------
  free energy    TOTEN  =      -139.99572487 eV

  energy without entropy =     -139.99572487  energy(sigma->0) =     -139.99572487


--------------------------------------------------------------------------------------------------------




--------------------------------------- Iteration      1(  18)  ---------------------------------------


    --------------------------------------------
      INIT:  cpu time      0.3822: real time      0.3818
  FINALIZE:  cpu time     41.0775: real time     41.1176
    --------------------------------------------
    POTLOK:  cpu time     47.3189: real time     47.3720
    SETDIJ:  cpu time      0.0390: real time      0.0390
    EDDIAG:  cpu time      4.2052: real time      4.2098
  RMM-DIIS:  cpu time     16.2193: real time     16.2533
    ORTHCH:  cpu time      0.2068: real time      0.2073
       DOS:  cpu time      0.0002: real time      0.0002
    CHARGE:  cpu time      1.8447: real time      1.8480
    MIXING:  cpu time      0.3161: real time      0.3154
    --------------------------------------------
[...]
    --------------------------------------------
    POTLOK:  cpu time     67.6939: real time     67.7972
    SETDIJ:  cpu time      0.0360: real time      0.0361
    EDDIAG:  cpu time      3.3549: real time      3.3578
  RMM-DIIS:  cpu time     12.6681: real time     12.6941
    ORTHCH:  cpu time      0.1829: real time      0.1834
       DOS:  cpu time      0.0005: real time      0.0005
    --------------------------------------------
      LOOP:  cpu time     83.9363: real time     84.0690

 eigenvalue-minimisations  :   211
 total energy-change (2. order) :-0.3611049E-06  (-0.4949114E-05)
 number of electron      57.9999997 magnetization       0.0000001
 augmentation part        1.8517086 magnetization       0.0000001

 Free energy of the ion-electron system (eV)
  ---------------------------------------------------
  alpha Z        PSCENC =         0.23359489
  Ewald energy   TEWEN  =      6113.81727474
  -Hartree energ DENC   =     -7783.57162224
  -exchange      EXHF   =         0.00000000
  -V(xc)+E(xc)   XCENC  =       198.37292382
  PAW double counting   =      4706.01548607    -4715.19355377
  entropy T*S    EENTRO =        -0.00000000
  eigenvalues    EBANDS =      -719.55824457
  atomic energy  EATOM  =      2053.67780985
  Solvation  Ecorr_sol  =         6.11464459
  ---------------------------------------------------
  free energy    TOTEN  =      -140.09168661 eV

  energy without entropy =     -140.09168661  energy(sigma->0) =     -140.09168661


--------------------------------------------------------------------------------------------------------




 average (electrostatic) potential at core
  the test charge radii are     0.6991  0.7215  0.5201
  (the norm of the test charge is              1.0000)
       1 -58.7685       2 -58.7374       3 -60.1961       4 -58.7654       5 -58.7705
       6 -58.8353       7 -58.5754       8 -58.6042       9 -58.4078      10 -59.8223
      11 -81.3865      12 -41.7649      13 -41.7649      14 -41.7387      15 -41.9391
      16 -41.8854      17 -42.0848      18 -42.2998      19 -42.2188      20 -42.2187
      21 -42.2951      22 -42.1513      23 -42.1171
 
 
 
 E-fermi :  -4.7184     XC(G=0):  -0.0539     alpha+bet : -0.0220

 Fermi energy:        -4.7183950557

 spin component 1

 k-point     1 :       0.0000    0.0000    0.0000
  band No.  band energies     occupation 
      1     -26.7438      1.00000
      2     -21.2833      1.00000
      3     -19.7320      1.00000
      4     -18.7358      1.00000
      5     -18.4426      1.00000
      6     -17.5248      1.00000
      7     -16.3855      1.00000
      8     -15.0908      1.00000
      9     -14.5772      1.00000
     10     -13.4767      1.00000
     11     -13.1626      1.00000
     12     -11.8913      1.00000
     13     -11.7968      1.00000
     14     -11.3951      1.00000
     15     -10.8852      1.00000
     16     -10.3610      1.00000
     17     -10.2156      1.00000
     18      -9.9633      1.00000
     19      -9.8352      1.00000
     20      -9.6223      1.00000
     21      -9.3767      1.00000
     22      -8.8200      1.00000
     23      -8.4498      1.00000
     24      -8.2166      1.00000
     25      -8.1274      1.00000
     26      -7.7409      1.00000
     27      -6.5871      1.00000
     28      -6.3528      1.00000
     29      -4.9867      1.00000
     30      -1.6538      0.00000
     31      -1.2554      0.00000
     32      -0.5015      0.00000
     33      -0.2995      0.00000
     34      -0.1593      0.00000
     35       0.0111      0.00000
     36       0.0121      0.00000
     37       0.0549      0.00000
     38       0.0960      0.00000
     39       0.1077      0.00000
     40       0.1097      0.00000
     41       0.1140      0.00000
     42       0.1145      0.00000
     43       0.1172      0.00000
     44       0.1369      0.00000
     45       0.1821      0.00000
     46       0.1902      0.00000
     47       0.1902      0.00000
     48       0.1925      0.00000
     49       0.1927      0.00000
     50       0.1933      0.00000
     51       0.2036      0.00000
     52       0.2103      0.00000
     53       0.2183      0.00000
     54       0.2250      0.00000
     55       0.2255      0.00000
     56       0.2549      0.00000
 Fermi energy:        -4.7183950557

 spin component 2

 k-point     1 :       0.0000    0.0000    0.0000
  band No.  band energies     occupation 
      1     -26.7438      1.00000
      2     -21.2833      1.00000
      3     -19.7320      1.00000
      4     -18.7358      1.00000
      5     -18.4426      1.00000
      6     -17.5248      1.00000
      7     -16.3855      1.00000
      8     -15.0908      1.00000
      9     -14.5772      1.00000
     10     -13.4767      1.00000
     11     -13.1626      1.00000
     12     -11.8913      1.00000
     13     -11.7968      1.00000
     14     -11.3951      1.00000
     15     -10.8852      1.00000
     16     -10.3610      1.00000
     17     -10.2156      1.00000
     18      -9.9633      1.00000
     19      -9.8352      1.00000
     20      -9.6223      1.00000
     21      -9.3767      1.00000
     22      -8.8200      1.00000
     23      -8.4498      1.00000
     24      -8.2166      1.00000
     25      -8.1274      1.00000
     26      -7.7409      1.00000
     27      -6.5871      1.00000
     28      -6.3528      1.00000
     29      -4.9867      1.00000
     30      -1.6538      0.00000
     31      -1.2554      0.00000
     32      -0.5015      0.00000
     33      -0.2995      0.00000
     34      -0.1592      0.00000
     35       0.0111      0.00000
     36       0.0121      0.00000
     37       0.0549      0.00000
     38       0.0961      0.00000
     39       0.1077      0.00000
     40       0.1097      0.00000
     41       0.1140      0.00000
     42       0.1146      0.00000
     43       0.1173      0.00000
     44       0.1368      0.00000
     45       0.1821      0.00000
     46       0.1902      0.00000
     47       0.1903      0.00000
     48       0.1925      0.00000
     49       0.1927      0.00000
     50       0.1933      0.00000
     51       0.2036      0.00000
     52       0.2103      0.00000
     53       0.2183      0.00000
     54       0.2251      0.00000
     55       0.2255      0.00000
     56       0.2550      0.00000


--------------------------------------------------------------------------------------------------------


 soft charge-density along one line, spin component           1
         0         1         2         3         4         5         6         7         8         9
 total charge-density along one line
 
 soft charge-density along one line, spin component           2
         0         1         2         3         4         5         6         7         8         9
 total charge-density along one line
 
 pseudopotential strength for first ion, spin component:           1
 10.255  13.638  -0.000  -0.000  -0.001   0.001   0.000   0.002
 13.638  18.137  -0.000  -0.000  -0.001   0.002   0.000   0.003
 -0.000  -0.000  -4.378   0.000   0.001   8.563  -0.000  -0.001
 -0.000  -0.000   0.000  -4.372  -0.000  -0.000   8.556   0.000
 -0.001  -0.001   0.001  -0.000  -4.379  -0.001   0.000   8.565
  0.001   0.002   8.563  -0.000  -0.001 -18.889   0.000   0.002
  0.000   0.000  -0.000   8.556   0.000   0.000 -18.883  -0.000
  0.002   0.003  -0.001   0.000   8.565   0.002  -0.000 -18.891
 pseudopotential strength for first ion, spin component:           2
 10.255  13.638  -0.000  -0.000  -0.001   0.001   0.000   0.002
 13.638  18.137  -0.000  -0.000  -0.001   0.002   0.000   0.003
 -0.000  -0.000  -4.378   0.000   0.001   8.563  -0.000  -0.001
 -0.000  -0.000   0.000  -4.372  -0.000  -0.000   8.556   0.000
 -0.001  -0.001   0.001  -0.000  -4.379  -0.001   0.000   8.565
  0.001   0.002   8.563  -0.000  -0.001 -18.889   0.000   0.002
  0.000   0.000  -0.000   8.556   0.000   0.000 -18.883  -0.000
  0.002   0.003  -0.001   0.000   8.565   0.002  -0.000 -18.891
 total augmentation occupancy for first ion, spin component:           1
  7.842  -3.405  -0.134   0.000  -0.188  -0.029   0.000  -0.035
 -3.405   1.521   0.085  -0.000   0.119   0.018  -0.000   0.020
 -0.134   0.085   1.772  -0.000  -0.050   0.157  -0.000  -0.010
  0.000  -0.000  -0.000   1.153   0.000  -0.000   0.065   0.000
 -0.188   0.119  -0.050   0.000   1.820  -0.010   0.000   0.165
 -0.029   0.018   0.157  -0.000  -0.010   0.015  -0.000  -0.002
  0.000  -0.000  -0.000   0.065   0.000  -0.000   0.004   0.000
 -0.035   0.020  -0.010   0.000   0.165  -0.002   0.000   0.016
 total augmentation occupancy for first ion, spin component:           2
  0.000  -0.000   0.000  -0.000  -0.000   0.000  -0.000  -0.000
 -0.000   0.000  -0.000   0.000   0.000  -0.000   0.000   0.000
  0.000  -0.000  -0.000   0.000   0.000  -0.000   0.000   0.000
 -0.000   0.000   0.000   0.000   0.000  -0.000   0.000  -0.000
 -0.000   0.000   0.000   0.000   0.000   0.000  -0.000   0.000
  0.000  -0.000  -0.000  -0.000   0.000  -0.000  -0.000   0.000
 -0.000   0.000   0.000   0.000  -0.000  -0.000   0.000  -0.000
 -0.000   0.000   0.000  -0.000   0.000   0.000  -0.000   0.000


------------------------ aborting loop because EDIFF is reached ----------------------------------------


    CHARGE:  cpu time      1.6609: real time      1.6644
    FORLOC:  cpu time      0.4107: real time      0.4109
    FORNL :  cpu time      5.6426: real time      5.6544
    STRESS:  cpu time     16.1530: real time     16.1869
    FORCOR:  cpu time      5.3285: real time      5.3374
    FORHAR:  cpu time      0.9123: real time      0.9124
    MIXING:  cpu time      0.1172: real time      0.1173
    OFIELD:  cpu time      0.0000: real time      0.0000

 ---------------------------------------------------------------------------------------------

         DFTD3 V3.0 Rev 1        
 Edisp (eV)   -0.24488

 E6    (eV) :    -0.1015
 E8    (eV) :    -0.1434
 % E8        : 58.54
    FORVDW:  cpu time      0.0069: real time      0.0069

  FORCE on cell =-STRESS in cart. coord.  units (eV):
  Direction    XX          YY          ZZ          XY          YZ          ZX
  --------------------------------------------------------------------------------------
  Alpha Z     0.23359     0.23359     0.23359
  Ewald    4644.78129  1839.64302  -370.60802    99.37780    -0.14421     0.10911
  Hartree  4656.90058  2241.13569   879.62920    55.65666    -0.08521     0.08116
  E(xc)    -214.19949  -215.02382  -219.61361     0.10491    -0.00034     0.00012
  Local   -9832.37586 -4618.52361 -1140.74371  -148.96585     0.22267    -0.18746
  n-local   -92.28862   -97.04453   -93.77112     0.89926    -0.00013    -0.00003
  augment     3.35216     4.44543     5.74022    -0.38589     0.00002    -0.00012
  Kinetic   833.48026   844.87098   938.85149    -6.72926     0.00627    -0.00280
  Fock        0.00000     0.00000     0.00000     0.00000     0.00000     0.00000
  vdW        -0.04593     0.03804     0.01607    -0.01369    -0.00000     0.00000
  -------------------------------------------------------------------------------------
  Total      -0.16201    -0.22520    -0.26586    -0.05604    -0.00092    -0.00002
  in kB      -0.00406    -0.00564    -0.00666    -0.00140    -0.00002    -0.00000
  external pressure =       -0.01 kB  Pullay stress =        0.00 kB


 VOLUME and BASIS-vectors are now :
 -----------------------------------------------------------------------------
  energy-cutoff  :      500.00
  volume of cell :    64000.00
      direct lattice vectors                 reciprocal lattice vectors
    40.000000000  0.000000000  0.000000000     0.025000000  0.000000000  0.000000000
     0.000000000 40.000000000  0.000000000     0.000000000  0.025000000  0.000000000
     0.000000000  0.000000000 40.000000000     0.000000000  0.000000000  0.025000000

  length of vectors
    40.000000000 40.000000000 40.000000000     0.025000000  0.025000000  0.025000000


 FORCES acting on ions
    electron-ion (+dipol)            ewald-force                    non-local-force                 convergence-correction
 -----------------------------------------------------------------------------------------------
   -.817E+02 -.169E+03 0.526E-02   0.825E+02 0.170E+03 -.517E-02   -.795E+00 -.447E+00 -.881E-04   -.110E-01 -.351E-02 -.178E-04
   0.294E+02 -.205E+03 0.135E-01   -.292E+02 0.207E+03 -.137E-01   -.170E+00 -.159E+01 0.196E-03   0.410E-02 -.564E-02 -.754E-05
   0.261E+02 -.176E+02 -.390E-02   -.196E+02 0.161E+02 0.407E-02   -.649E+01 0.146E+01 -.392E-03   0.890E-02 -.288E-02 0.629E-04
   0.711E+02 0.179E+03 -.171E-01   -.711E+02 -.181E+03 0.174E-01   0.535E-02 0.163E+01 -.340E-03   0.420E-02 0.559E-02 0.722E-05
   -.350E+02 0.196E+03 -.100E-01   0.359E+02 -.196E+03 0.995E-02   -.896E+00 0.574E+00 -.409E-03   -.594E-02 0.905E-02 0.288E-04
   -.773E+02 0.235E+02 -.532E-02   0.778E+02 -.234E+02 0.535E-02   -.444E+00 -.422E-01 0.181E-04   -.824E-02 -.133E-02 0.180E-04
   -.771E+02 0.101E+03 -.151E-01   0.777E+02 -.101E+03 0.152E-01   -.537E+00 0.305E+00 0.191E-03   -.478E-02 -.378E-02 -.729E-05
   -.108E+03 -.903E+02 0.145E-01   0.108E+03 0.905E+02 -.145E-01   0.130E-01 -.144E+00 0.403E-04   0.540E-02 0.389E-02 -.340E-04
   -.168E+03 0.112E+02 -.254E-02   0.168E+03 -.117E+02 0.263E-02   -.282E+00 0.500E+00 -.701E-04   0.771E-03 0.167E-02 -.160E-04
   0.215E+03 0.101E+03 0.100E-01   -.220E+03 -.106E+03 -.106E-01   0.467E+01 0.486E+01 -.369E-03   -.167E-02 -.135E-02 0.120E-03
   0.234E+03 -.206E+03 0.134E-01   -.250E+03 0.247E+03 -.155E-01   0.157E+02 -.413E+02 0.217E-02   -.137E-02 0.316E-02 0.558E-04
   -.536E+02 -.214E+02 -.501E+02   0.562E+02 0.234E+02 0.545E+02   -.261E+01 -.199E+01 -.434E+01   -.235E-03 -.881E-04 -.429E-03
   -.536E+02 -.214E+02 0.501E+02   0.562E+02 0.234E+02 -.545E+02   -.261E+01 -.199E+01 0.435E+01   -.239E-03 -.885E-04 0.431E-03
   -.384E+02 0.636E+02 -.109E-01   0.390E+02 -.691E+02 0.119E-01   -.689E+00 0.549E+01 -.916E-03   0.187E-03 0.407E-03 -.687E-06
   -.149E+02 -.754E+02 0.122E-01   0.138E+02 0.809E+02 -.130E-01   0.106E+01 -.554E+01 0.848E-03   0.519E-03 0.356E-03 -.535E-05
   -.301E+02 0.782E+02 -.121E-01   0.314E+02 -.836E+02 0.129E-01   -.131E+01 0.546E+01 -.787E-03   -.454E-03 -.504E-03 -.331E-06
   -.203E+02 0.878E+02 -.759E-02   0.222E+02 -.932E+02 0.804E-02   -.192E+01 0.540E+01 -.542E-03   -.275E-03 0.422E-03 0.284E-05
   0.399E+02 0.801E+02 -.392E-02   -.435E+02 -.847E+02 0.406E-02   0.354E+01 0.458E+01 -.895E-04   0.547E-03 0.127E-02 -.649E-07
   0.321E+02 0.499E+02 -.582E+02   -.317E+02 -.531E+02 0.628E+02   -.436E+00 0.323E+01 -.460E+01   0.352E-05 0.737E-03 -.112E-02
   0.321E+02 0.499E+02 0.582E+02   -.317E+02 -.531E+02 -.628E+02   -.437E+00 0.323E+01 0.460E+01   0.522E-05 0.718E-03 0.112E-02
   0.858E+02 -.184E+02 0.668E-02   -.911E+02 0.209E+02 -.720E-02   0.525E+01 -.252E+01 0.489E-03   0.141E-02 -.484E-03 0.121E-04
   0.226E+02 -.898E+02 0.358E-02   -.246E+02 0.952E+02 -.383E-02   0.207E+01 -.539E+01 0.197E-03   0.591E-04 -.170E-02 -.470E-05
   -.398E+02 -.774E+02 0.510E-03   0.434E+02 0.819E+02 -.535E-03   -.355E+01 -.453E+01 -.399E-05   -.107E-02 -.290E-03 -.463E-05
 -----------------------------------------------------------------------------------------------
   -.914E+01 0.288E+02 -.117E-02   0.000E+00 0.142E-13 -.193E-13   0.915E+01 -.287E+02 0.322E-03   -.920E-02 0.562E-02 0.210E-03
 
 
 POSITION                                       TOTAL-FORCE (eV/Angst)
 -----------------------------------------------------------------------------------
     20.11756     21.20458     19.99998         0.010757      0.005708      0.000016
     18.75201     21.44146     19.99993        -0.007415      0.000879      0.000033
     17.84295     20.36708     19.99997         0.001417      0.006588     -0.000129
     18.33232     19.05484     20.00008        -0.007811     -0.004607      0.000007
     19.71335     18.83703     20.00010         0.008098     -0.012087     -0.000413
     20.64113     19.89225     20.00006        -0.005891      0.001431      0.000102
     22.07511     19.59203     20.00011         0.007065      0.010410      0.000290
     23.09940     20.46594     19.99998        -0.004170      0.000652     -0.000012
     24.54381     20.07984     20.00004         0.004767     -0.003713      0.000029
     15.55925     19.64447     19.99986         0.006593      0.001576     -0.000768
     16.51644     20.70795     19.99989         0.000751     -0.001184      0.000169
     25.06717     20.48688     20.88051        -0.001181      0.000014      0.002952
     25.06717     20.48656     19.11943        -0.001204      0.000034     -0.002819
     24.67241     18.98876     20.00023        -0.000064     -0.004360      0.000067
     22.89305     21.54118     19.99981        -0.005936      0.009759      0.000001
     22.32050     18.52307     20.00027        -0.003396     -0.006091      0.000047
     20.08186     17.80842     20.00020        -0.000180      0.003384     -0.000059
     17.65658     18.20123     20.00010        -0.001596     -0.002373      0.000081
     15.65782     19.01523     20.89881         0.009489     -0.002840      0.004640
     15.65796     19.01516     19.10095         0.009431     -0.002580     -0.004217
     14.57613     20.12600     19.99977         0.003570      0.008970      0.000018
     18.36148     22.45966     19.99989        -0.017113     -0.005763     -0.000031
     20.79460     22.06038     19.99998        -0.005980     -0.003807     -0.000005
 -----------------------------------------------------------------------------------
    total drift:                                0.006254      0.014544     -0.000642


--------------------------------------------------------------------------------------------------------



  FREE ENERGIE OF THE ION-ELECTRON SYSTEM (eV)
  ---------------------------------------------------
  free  energy   TOTEN  =      -140.33656524 eV

  energy  without entropy=     -140.33656524  energy(sigma->0) =     -140.33656524
 
 d Force = 0.2977085E-04[ 0.161E-05, 0.579E-04]  d Energy = 0.3115162E-04-0.138E-05
 d Force = 0.3097947E+00[ 0.310E+00, 0.310E+00]  d Ewald  = 0.3097947E+00 0.566E-08


--------------------------------------------------------------------------------------------------------


    --------------------------------------------
      INIT:  cpu time      0.2510: real time      0.2508
  FINALIZE:  cpu time     63.9493: real time     64.0014
    --------------------------------------------
    POTLOK:  cpu time     69.9951: real time     70.0573


--------------------------------------------------------------------------------------------------------




--------------------------------------------------------------------------------------------------------


  
 reached required accuracy - stopping structural energy minimisation
 writing wavefunctions
     LOOP+:  cpu time    308.3982: real time    309.8830
    4ORBIT:  cpu time      0.0000: real time      0.0000

 total amount of memory used by VASP MPI-rank0   687370. kBytes
=======================================================================

   base      :      30000. kBytes
   nonlr-proj:       1454. kBytes
   fftplans  :     167689. kBytes
   grid      :     451809. kBytes
   one-center:         18. kBytes
   wavefun   :      36400. kBytes
 
  
  
 General timing and accounting informations for this job:
 ========================================================
  
                  Total CPU time used (sec):     7298.125
                            User time (sec):     6904.161
                          System time (sec):      393.965
                         Elapsed time (sec):     7310.844
  
                   Maximum memory used (kb):     2288416.
                   Average memory used (kb):          N/A
  
                          Minor page faults:     90475160
                          Major page faults:            0
                 Voluntary context switches:       333258
