
                                 *****************
                                 * O   R   C   A *
                                 *****************

                                            #,                                       
                                            ###                                      
                                            ####                                     
                                            #####                                    
                                            ######                                   
                                           ########,                                 
                                     ,,################,,,,,                         
                               ,,#################################,,                 
                          ,,##########################################,,             
                       ,#########################################, ''#####,          
                    ,#############################################,,   '####,        
                  ,##################################################,,,,####,       
                ,###########''''           ''''###############################       
              ,#####''   ,,,,##########,,,,          '''####'''          '####       
            ,##' ,,,,###########################,,,                        '##       
           ' ,,###''''                  '''############,,,                           
         ,,##''                                '''############,,,,        ,,,,,,###''
      ,#''                                            '''#######################'''  
     '                                                          ''''####''''         
             ,#######,   #######,   ,#######,      ##                                
            ,#'     '#,  ##    ##  ,#'     '#,    #''#        ,####,   ,####,        
            ##       ##  ##   ,#'  ##            #'  '#       #'       #'  '#        
            ##       ##  #######   ##           ,######,      #####,   #    #        
            '#,     ,#'  ##    ##  '#,     ,#' ,#      #,     #,   #   #,  ,#        
             '#######'   ##     ##  '#######'  #'      '#     '####' # '####'        



                #########################################################
                #                        -***-                          #
                #          Department of theory and spectroscopy        #
                #                                                       #
                #                      Frank Neese                      #
                #                                                       #
                #     Directorship, Architecture, Infrastructure        #
                #                    SHARK, DRIVERS                     #
                #        Core code/Algorithms in most modules           #
                #                                                       #
                #        Max Planck Institute fuer Kohlenforschung      #
                #                Kaiser Wilhelm Platz 1                 #
                #                 D-45470 Muelheim/Ruhr                 #
                #                      Germany                          #
                #                                                       #
                #                  All rights reserved                  #
                #                        -***-                          #
                #########################################################


                         Program Version 6.0.0  -   RELEASE  -


 With contributions from (in alphabetic order):
   Daniel Aravena         : Magnetic Suceptibility
   Michael Atanasov       : Ab Initio Ligand Field Theory (pilot matlab implementation)
   Alexander A. Auer      : GIAO ZORA, VPT2 properties, NMR spectrum
   Ute Becker             : All parallelization in ORCA, NUMFREQ, NUMCALC
   Giovanni Bistoni       : ED, misc. LED, open-shell LED, HFLD
   Martin Brehm           : Molecular dynamics
   Dmytro Bykov           : pre 5.0 version of the SCF Hessian
   Marcos Casanova-Páez   : Triplet and SCS-CIS(D). UHF-(DLPNO)-IP/EA/STEOM-CCSD. UHF-CVS-IP/STEOM-CCSD
   Vijay G. Chilkuri      : MRCI spin determinant printing, contributions to CSF-ICE
   Pauline Colinet        : FMM embedding
   Dipayan Datta          : RHF DLPNO-CCSD density
   Achintya Kumar Dutta   : EOM-CC, STEOM-CC
   Nicolas Foglia         : Exact transition moments, OPA infrastructure, MCD improvements
   Dmitry Ganyushin       : Spin-Orbit,Spin-Spin,Magnetic field MRCI
   Miquel Garcia          : C-PCM and meta-GGA Hessian, CCSD/C-PCM, Gaussian charge scheme
   Tiago L. C. Gouveia    : GS-ROHF, GS-ROCIS
   Yang Guo               : DLPNO-NEVPT2, F12-NEVPT2, CIM, IAO-localization
   Andreas Hansen         : Spin unrestricted coupled pair/coupled cluster methods
   Ingolf Harden          : AUTO-CI MPn and infrastructure 
   Benjamin Helmich-Paris : MC-RPA, TRAH-(SCF,CASSCF), AVAS, COSX integrals, SCF dyn. polar.
   Lee Huntington         : MR-EOM, pCC
   Robert Izsak           : Overlap fitted RIJCOSX, COSX-SCS-MP3, EOM
   Riya Kayal             : Wick's Theorem for AUTO-CI, AUTO-CI UHF-CCSDT
   Emily Kempfer          : AUTO-CI, RHF CISDT and CCSDT
   Christian Kollmar      : KDIIS, OOCD, Brueckner-CCSD(T), CCSD density, CASPT2, CASPT2-K, improved NEVPT2
   Axel Koslowski         : Symmetry handling
   Simone Kossmann        : Meta GGA functionals, TD-DFT gradient, OOMP2, (MP2 Hessian; deprecated post 5.0)
   Lucas Lang             : DCDCAS
   Marvin Lechner         : AUTO-CI (C++ implementation), FIC-MRCC
   Spencer Leger          : CASSCF response
   Dagmar Lenk            : GEPOL surface, SMD, ORCA-2-JSON
   Dimitrios Liakos       : Extrapolation schemes; Compound Job, initial MDCI parallelization
   Dimitrios Manganas     : Further ROCIS development; embedding schemes. LFT, Crystal Embedding
   Dimitrios Pantazis     : SARC Basis sets
   Anastasios Papadopoulos: AUTO-CI, single reference methods and gradients
   Taras Petrenko         : pre 6.0 DFT Hessian and TD-DFT gradient, (ASA, deprecated), ECA, 1-Electron XAS/XES, NRVS
   Peter Pinski           : DLPNO-MP2, DLPNO-MP2 Gradient
   Christoph Reimann      : Effective Core Potentials
   Marius Retegan         : Local ZFS, SOC
   Christoph Riplinger    : Optimizer, TS searches, QM/MM, DLPNO-CCSD(T), (RO)-DLPNO pert. Triples
   Michael Roemelt        : Original ROCIS implementation
   Masaaki Saitow         : Open-shell DLPNO-CCSD energy and density
   Barbara Sandhoefer     : DKH picture change effects
   Kantharuban Sivalingam : CASSCF convergence/infrastructure, NEVPT2 and variants, FIC-MRCI
   Bernardo de Souza      : ESD, SOC TD-DFT
   Georgi Stoychev        : AutoAux, RI-MP2 NMR, DLPNO-MP2 response, X2C
   Van Anh Tran           : RI-MP2 g-tensors
   Willem Van den Heuvel  : Paramagnetic NMR
   Zikuan Wang            : NOTCH, Electric field optimization 
   Frank Wennmohs         : Technical directorship and infrastructure
   Hang Xu                : AUTO-CI-Response properties 


 We gratefully acknowledge several colleagues who have allowed us to
 interface, adapt or use parts of their codes:
   Stefan Grimme, W. Hujo, H. Kruse, P. Pracht,  : VdW corrections, initial TS optimization,
                  C. Bannwarth, S. Ehlert,         DFT functionals, gCP, sTDA/sTD-DF
                  L. Wittmann, M. Mueller
   Ed Valeev, F. Pavosevic, A. Kumar             : LibInt (2-el integral package), F12 methods
   Garnet Chan, S. Sharma, J. Yang, R. Olivares  : DMRG
   Ulf Ekstrom                                   : XCFun DFT Library
   Mihaly Kallay                                 : mrcc  (arbitrary order and MRCC methods)
   Frank Weinhold                                : gennbo (NPA and NBO analysis)
   Simon Mueller                                 : openCOSMO-RS
   Christopher J. Cramer and Donald G. Truhlar   : smd solvation model
   Lars Goerigk                                  : TD-DFT with DH, B97 family of functionals
   V. Asgeirsson, H. Jonsson                     : NEB implementation
   FAccTs GmbH                                   : IRC, NEB, NEB-TS, DLPNO-Multilevel, CI-OPT
                                                   MM, QMMM, 2- and 3-layer-ONIOM, Crystal-QMMM,
                                                   LR-CPCM, SF, NACMEs, symmetry and pop. for TD-DFT,
                                                   nearIR, NL-DFT gradient (VV10), updates on ESD,
                                                   ML-optimized integration grids, MBIS, APM,
                                                   GOAT, DOCKER, SOLVATOR, interface openCOSMO-RS
   S Lehtola, MJT Oliveira, MAL Marques          : LibXC Library
   Liviu Ungur et al                             : ANISO software


 Your calculation uses the libint2 library for the computation of 2-el integrals
 For citations please refer to: http://libint.valeyev.net

 Your ORCA version has been built with support for libXC version: 6.2.2
 For citations please refer to: https://libxc.gitlab.io

 This ORCA versions uses:
   CBLAS   interface :  Fast vector & matrix operations
   LAPACKE interface :  Fast linear algebra routines
   SCALAPACK package :  Parallel linear algebra routines
   Shared memory     :  Shared parallel matrices
   BLAS/LAPACK       :  OpenBLAS 0.3.27  USE64BITINT DYNAMIC_ARCH NO_AFFINITY Sandybridge SINGLE_THREADED
        Core in use  :  Sandybridge
   Copyright (c) 2011-2014, The OpenBLAS Project


NOTE: MaxCore=3000 MB was set to SCF,MP2,MDCI,CIPSI,MRCI and CIS
      => If you want to overwrite this, your respective input block should be placed after the MaxCore statement
Your calculation utilizes the atom-pairwise dispersion correction
with the Becke-Johnson damping scheme (D3BJ)


Your calculation utilizes the SMD solvation module
Please cite in your paper:
A.V. Marenich, C.J. Cramer, D.G. Truhlar J. Phys. Chem. B, 113, (2009), 6378 

Warning: RI is on but no J-basis has been assigned. Assigning Def2/J (nothing to worry about!)
================================================================================

----- Orbital basis set information -----
Your calculation utilizes the basis: aug-cc-pVTZ 
    H, B-Ne : Obtained from the ccRepo (grant-hill.group.shef.ac.uk/ccrepo) Feb. 2017
              R. A. Kendall, T. H. Dunning, Jr., R. J. Harrison, J. Chem. Phys. 96, 6796 (1992)
         He : Obtained from the ccRepo (grant-hill.group.shef.ac.uk/ccrepo) Feb. 2017
              D. E. Woon, T. H. Dunning, Jr., J. Chem. Phys. 100, 2975 (1994)
  Li-Be, Na : Obtained from the ccRepo (grant-hill.group.shef.ac.uk/ccrepo) Feb. 2017
              B. P. Prascher, D. E. Woon, K. A. Peterson, T. H. Dunning, Jr., A. K. Wilson, Theor. Chem. Acc. 128, 69 (2011)
         Mg : Obtained from the Peterson Research Group Website (tyr0.chem.wsu.edu/~kipeters) Feb. 2017
              B. P. Prascher, D. E. Woon, K. A. Peterson, T. H. Dunning, Jr., A. K. Wilson, Theor. Chem. Acc. 128, 69 (2011)
      Al-Ar : Obtained from the ccRepo (grant-hill.group.shef.ac.uk/ccrepo) Feb. 2017
              D. E. Woon, T. H. Dunning, Jr., J. Chem. Phys. 98, 1358 (1993)
      Sc-Zn : Obtained from the ccRepo (grant-hill.group.shef.ac.uk/ccrepo) Feb. 2017
              N. B. Balabanov, K. A. Peterson, J. Chem. Phys. 123, 064107 (2005)
              N. B. Balabanov, K. A. Peterson, J. Chem. Phys. 125, 074110 (2006)
      Ga-Kr : Obtained from the ccRepo (grant-hill.group.shef.ac.uk/ccrepo) Feb. 2017
              A. K. Wilson, D. E. Woon, K. A. Peterson, T. H. Dunning, Jr., J. Chem. Phys. 110, 7667 (1999)
     Ag, Au : Obtained from the Peterson Research Group Website (tyr0.chem.wsu.edu/~kipeters) Feb. 2017
              K. A. Peterson, C. Puzzarini, Theor. Chem. Acc. 114, 283 (2005)

----- AuxJ basis set information -----
Your calculation utilizes the auxiliary basis: def2/J
   F. Weigend, Phys. Chem. Chem. Phys. 8, 1057 (2006).

================================================================================
                                        WARNINGS
                       Please study these warnings very carefully!
================================================================================

Using LibXC functional ID 497 : Re-regularized SCAN exchange by Furness et al
[ 1]  J. W. Furness, A. D. Kaplan, J. Ning, J. P. Perdew, and J. Sun.,  J. Phys. Chem. Lett. 11, 8208-8215 (2020)
[ 2]  J. W. Furness, A. D. Kaplan, J. Ning, J. P. Perdew, and J. Sun.,  J. Phys. Chem. Lett. 11, 9248-9248 (2020)
Using LibXC functional ID 498 : Re-regularized SCAN correlation by Furness et al
[ 1]  J. W. Furness, A. D. Kaplan, J. Ning, J. P. Perdew, and J. Sun.,  J. Phys. Chem. Lett. 11, 8208-8215 (2020)
[ 2]  J. W. Furness, A. D. Kaplan, J. Ning, J. P. Perdew, and J. Sun.,  J. Phys. Chem. Lett. 11, 9248-9248 (2020)
Using LibXC functional ID 497 : Re-regularized SCAN exchange by Furness et al
[ 1]  J. W. Furness, A. D. Kaplan, J. Ning, J. P. Perdew, and J. Sun.,  J. Phys. Chem. Lett. 11, 8208-8215 (2020)
[ 2]  J. W. Furness, A. D. Kaplan, J. Ning, J. P. Perdew, and J. Sun.,  J. Phys. Chem. Lett. 11, 9248-9248 (2020)
Using LibXC functional ID 498 : Re-regularized SCAN correlation by Furness et al
[ 1]  J. W. Furness, A. D. Kaplan, J. Ning, J. P. Perdew, and J. Sun.,  J. Phys. Chem. Lett. 11, 8208-8215 (2020)
[ 2]  J. W. Furness, A. D. Kaplan, J. Ning, J. P. Perdew, and J. Sun.,  J. Phys. Chem. Lett. 11, 9248-9248 (2020)

================================================================================
                                       INPUT FILE
================================================================================
NAME = cs_rporg_063_red_solv_04.inp
|  1> !r2SCANh aug-cc-pVTZ d3 TightSCF SlowConv RIJCOSX defgrid2
|  2>  
|  3> %pal
|  4> nprocs 4
|  5> end
|  6>  
|  7> %scf
|  8> MaxIter 1500
|  9> end
| 10>  
| 11> %maxcore 3000
| 12>  
| 13> !CPCM
| 14> %cpcm smd true
| 15> SMDsolvent "MeCN"
| 16> surfacetype gepol_ses
| 17> rsolv 2.19
| 18> end 
| 19>  
| 20> * xyz 0 1
| 21> C           1.11186063431218     -1.27161750848334      0.03529687525431
| 22> C           0.40062560849469      0.06050080568744      0.01645658990368
| 23> C           1.09132291899843      1.22728525455366     -0.01481187748794
| 24> C           2.59071448413322      1.31213757575100     -0.04259953894168
| 25> C           3.24159815994134     -0.01937627947586     -0.39841325306825
| 26> C           2.58911379103733     -1.14676967388403      0.38832716012891
| 27> H           3.09748891391144     -2.10891626969463      0.20096696093946
| 28> H           2.69042588645759     -0.93817776710244      1.47032103152836
| 29> H           4.32799261089383      0.01691698871123     -0.20339895848800
| 30> H           3.11607401581807     -0.21456505742642     -1.48081651387058
| 31> H           2.90797745861562      2.08798412644276     -0.76484604682040
| 32> H           2.97758486033447      1.65547047948827      0.94073256876005
| 33> H           0.54718288972158      2.17640255493605     -0.01902463744638
| 34> N          -0.97616721213332      0.00495853491955      0.02697160227337
| 35> C          -1.78872482665766      1.19747534852265      0.05715418513192
| 36> C          -3.21005262050385      0.66964169739812      0.23596327149758
| 37> C          -3.15237336592481     -0.69599286303147     -0.44293484397097
| 38> C          -1.76610643119617     -1.20659042879325     -0.05714971676551
| 39> H          -1.36563278919925     -1.91141795135958     -0.80640934529533
| 40> H          -1.80537787661672     -1.75015520174994      0.91214209774396
| 41> H          -3.95970487602702     -1.37895631866201     -0.13218330548580
| 42> H          -3.21412175894358     -0.57519572273874     -1.53925950514829
| 43> H          -3.97216674301970      1.34137885928184     -0.19076791065005
| 44> H          -3.43419513408562      0.54752707903326      1.31073431906276
| 45> H          -1.48163666786281      1.86730753786198      0.88332008233158
| 46> H          -1.67922253541657      1.78041926532680     -0.88331716928986
| 47> H           0.61356353671055     -1.94715361756419      0.75320195239957
| 48> H           1.00544556820675     -1.75500544794871     -0.95629237422648
| 49> *
| 50> 
| 51>                          ****END OF INPUT****
================================================================================

                       ****************************
                       * Single Point Calculation *
                       ****************************

---------------------------------
CARTESIAN COORDINATES (ANGSTROEM)
---------------------------------
  C      1.111861   -1.271618    0.035297
  C      0.400626    0.060501    0.016457
  C      1.091323    1.227285   -0.014812
  C      2.590714    1.312138   -0.042600
  C      3.241598   -0.019376   -0.398413
  C      2.589114   -1.146770    0.388327
  H      3.097489   -2.108916    0.200967
  H      2.690426   -0.938178    1.470321
  H      4.327993    0.016917   -0.203399
  H      3.116074   -0.214565   -1.480817
  H      2.907977    2.087984   -0.764846
  H      2.977585    1.655470    0.940733
  H      0.547183    2.176403   -0.019025
  N     -0.976167    0.004959    0.026972
  C     -1.788725    1.197475    0.057154
  C     -3.210053    0.669642    0.235963
  C     -3.152373   -0.695993   -0.442935
  C     -1.766106   -1.206590   -0.057150
  H     -1.365633   -1.911418   -0.806409
  H     -1.805378   -1.750155    0.912142
  H     -3.959705   -1.378956   -0.132183
  H     -3.214122   -0.575196   -1.539260
  H     -3.972167    1.341379   -0.190768
  H     -3.434195    0.547527    1.310734
  H     -1.481637    1.867308    0.883320
  H     -1.679223    1.780419   -0.883317
  H      0.613564   -1.947154    0.753202
  H      1.005446   -1.755005   -0.956292

----------------------------
CARTESIAN COORDINATES (A.U.)
----------------------------
  NO LB      ZA    FRAG     MASS         X           Y           Z
   0 C     6.0000    0    12.011    2.101112   -2.403009    0.066701
   1 C     6.0000    0    12.011    0.757073    0.114330    0.031098
   2 C     6.0000    0    12.011    2.062301    2.319233   -0.027990
   3 C     6.0000    0    12.011    4.895741    2.479581   -0.080501
   4 C     6.0000    0    12.011    6.125733   -0.036616   -0.752892
   5 C     6.0000    0    12.011    4.892716   -2.167081    0.733832
   6 H     1.0000    0     1.008    5.853406   -3.985274    0.379773
   7 H     1.0000    0     1.008    5.084168   -1.772899    2.778504
   8 H     1.0000    0     1.008    8.178721    0.031968   -0.384368
   9 H     1.0000    0     1.008    5.888527   -0.405469   -2.798338
  10 H     1.0000    0     1.008    5.495281    3.945718   -1.445350
  11 H     1.0000    0     1.008    5.626820    3.128386    1.777727
  12 H     1.0000    0     1.008    1.034026    4.112805   -0.035951
  13 N     7.0000    0    14.007   -1.844689    0.009370    0.050969
  14 C     6.0000    0    12.011   -3.380200    2.262900    0.108006
  15 C     6.0000    0    12.011   -6.066120    1.265439    0.445906
  16 C     6.0000    0    12.011   -5.957122   -1.315236   -0.837026
  17 C     6.0000    0    12.011   -3.337457   -2.280125   -0.107997
  18 H     1.0000    0     1.008   -2.580672   -3.612056   -1.523893
  19 H     1.0000    0     1.008   -3.411670   -3.307314    1.723699
  20 H     1.0000    0     1.008   -7.482758   -2.605850   -0.249790
  21 H     1.0000    0     1.008   -6.073810   -1.086962   -2.908779
  22 H     1.0000    0     1.008   -7.506307    2.534839   -0.360499
  23 H     1.0000    0     1.008   -6.489688    1.034676    2.476929
  24 H     1.0000    0     1.008   -2.799888    3.528700    1.669233
  25 H     1.0000    0     1.008   -3.173271    3.364505   -1.669228
  26 H     1.0000    0     1.008    1.159467   -3.679587    1.423345
  27 H     1.0000    0     1.008    1.900017   -3.316480   -1.807131

--------------------------------
INTERNAL COORDINATES (ANGSTROEM)
--------------------------------
 C      0   0   0     0.000000000000     0.00000000     0.00000000
 C      1   0   0     1.510215024839     0.00000000     0.00000000
 C      2   1   0     1.356254563829   121.28488160     0.00000000
 C      3   2   1     1.502047647759   123.87572494     0.42368248
 C      4   3   2     1.524198840459   112.41095829    15.05715234
 C      5   4   3     1.521746429329   110.08463911   314.66569193
 H      6   5   4     1.104207943110   111.12542531   184.26591792
 H      6   5   4     1.106564712070   109.06301784   301.66545789
 H      5   4   3     1.104355323013   110.49686032   191.97852065
 H      5   4   3     1.107001259616   109.50359817    74.53621688
 H      4   3   2     1.106450940323   109.75019608   137.48385165
 H      4   3   2     1.111075247140   110.40551568   252.92992834
 H      3   2   1     1.094042855053   119.54671028   180.52904127
 N      2   1   3     1.377952822219   115.77915094   179.71932101
 C     14   2   1     1.443349304900   121.96150979   177.85543797
 C     15  14   2     1.526680631365   103.94035999   186.86540825
 C     16  15  14     1.526167520371   102.83157817   330.47096664
 C     14   2   1     1.448768876531   125.31381430   354.60383079
 H     18  14   2     1.103879959708   112.05858981   317.66138850
 H     18  14   2     1.111994393196   112.17423301    78.04476096
 H     17  16  15     1.102175016774   113.66376318   160.16514860
 H     17  16  15     1.104686641473   109.96897388   281.19047429
 H     16  15  14     1.101883955873   112.81687545   207.77412160
 H     16  15  14     1.104664949701   109.94245701    87.55455537
 H     15  14   2     1.107035857072   111.06072633   307.87565957
 H     15  14   2     1.111890610813   111.10260278    66.42413630
 H      1   2   3     1.104552729362   109.57967025   137.84004645
 H      1   2   3     1.108258681897   109.16864541   253.22318826

---------------------------
INTERNAL COORDINATES (A.U.)
---------------------------
 C      0   0   0     0.000000000000     0.00000000     0.00000000
 C      1   0   0     2.853892800280     0.00000000     0.00000000
 C      2   1   0     2.562949693517   121.28488160     0.00000000
 C      3   2   1     2.838458694366   123.87572494     0.42368248
 C      4   3   2     2.880318382107   112.41095829    15.05715234
 C      5   4   3     2.875683996705   110.08463911   314.66569193
 H      6   5   4     2.086650607379   111.12542531   184.26591792
 H      6   5   4     2.091104255274   109.06301784   301.66545789
 H      5   4   3     2.086929115032   110.49686032   191.97852065
 H      5   4   3     2.091929210580   109.50359817    74.53621688
 H      4   3   2     2.090889257829   109.75019608   137.48385165
 H      4   3   2     2.099627931274   110.40551568   252.92992834
 H      3   2   1     2.067441374824   119.54671028   180.52904127
 N      2   1   3     2.603953459457   115.77915094   179.71932101
 C     14   2   1     2.727534901847   121.96150979   177.85543797
 C     15  14   2     2.885008287242   103.94035999   186.86540825
 C     16  15  14     2.884038647987   102.83157817   330.47096664
 C     14   2   1     2.737776407992   125.31381430   354.60383079
 H     18  14   2     2.086030808573   112.05858981   317.66138850
 H     18  14   2     2.101364865597   112.17423301    78.04476096
 H     17  16  15     2.082808933354   113.66376318   160.16514860
 H     17  16  15     2.087555216185   109.96897388   281.19047429
 H     16  15  14     2.082258907962   112.81687545   207.77412160
 H     16  15  14     2.087514224676   109.94245701    87.55455537
 H     15  14   2     2.091994590297   111.06072633   307.87565957
 H     15  14   2     2.101168745315   111.10260278    66.42413630
 H      1   2   3     2.087302158970   109.57967025   137.84004645
 H      1   2   3     2.094305394326   109.16864541   253.22318826

---------------------
BASIS SET INFORMATION
---------------------
There are 3 groups of distinct atoms

 Group   1 Type C   : 19s6p3d2f contracted to 5s4p3d2f pattern {88111/3111/111/11}
 Group   2 Type H   : 6s3p2d contracted to 4s3p2d pattern {3111/111/11}
 Group   3 Type N   : 19s6p3d2f contracted to 5s4p3d2f pattern {88111/3111/111/11}

Atom   0C    basis set group =>   1
Atom   1C    basis set group =>   1
Atom   2C    basis set group =>   1
Atom   3C    basis set group =>   1
Atom   4C    basis set group =>   1
Atom   5C    basis set group =>   1
Atom   6H    basis set group =>   2
Atom   7H    basis set group =>   2
Atom   8H    basis set group =>   2
Atom   9H    basis set group =>   2
Atom  10H    basis set group =>   2
Atom  11H    basis set group =>   2
Atom  12H    basis set group =>   2
Atom  13N    basis set group =>   3
Atom  14C    basis set group =>   1
Atom  15C    basis set group =>   1
Atom  16C    basis set group =>   1
Atom  17C    basis set group =>   1
Atom  18H    basis set group =>   2
Atom  19H    basis set group =>   2
Atom  20H    basis set group =>   2
Atom  21H    basis set group =>   2
Atom  22H    basis set group =>   2
Atom  23H    basis set group =>   2
Atom  24H    basis set group =>   2
Atom  25H    basis set group =>   2
Atom  26H    basis set group =>   2
Atom  27H    basis set group =>   2
---------------------------------
AUXILIARY/J BASIS SET INFORMATION
---------------------------------
There are 3 groups of distinct atoms

 Group   1 Type C   : 12s5p4d2f1g contracted to 6s4p3d1f1g pattern {711111/2111/211/2/1}
 Group   2 Type H   : 5s2p1d contracted to 3s1p1d pattern {311/2/1}
 Group   3 Type N   : 12s5p4d2f1g contracted to 6s4p3d1f1g pattern {711111/2111/211/2/1}

Atom   0C    basis set group =>   1
Atom   1C    basis set group =>   1
Atom   2C    basis set group =>   1
Atom   3C    basis set group =>   1
Atom   4C    basis set group =>   1
Atom   5C    basis set group =>   1
Atom   6H    basis set group =>   2
Atom   7H    basis set group =>   2
Atom   8H    basis set group =>   2
Atom   9H    basis set group =>   2
Atom  10H    basis set group =>   2
Atom  11H    basis set group =>   2
Atom  12H    basis set group =>   2
Atom  13N    basis set group =>   3
Atom  14C    basis set group =>   1
Atom  15C    basis set group =>   1
Atom  16C    basis set group =>   1
Atom  17C    basis set group =>   1
Atom  18H    basis set group =>   2
Atom  19H    basis set group =>   2
Atom  20H    basis set group =>   2
Atom  21H    basis set group =>   2
Atom  22H    basis set group =>   2
Atom  23H    basis set group =>   2
Atom  24H    basis set group =>   2
Atom  25H    basis set group =>   2
Atom  26H    basis set group =>   2
Atom  27H    basis set group =>   2


           ************************************************************
           *        Program running with 4 parallel MPI-processes     *
           *              working on a common directory               *
           ************************************************************
------------------------------------------------------------------------------
                             ORCA STARTUP CALCULATIONS
                           -- RI-GTO INTEGRALS CHOSEN --
------------------------------------------------------------------------------
------------------------------------------------------------------------------
                   ___                                                        
                  /   \      - P O W E R E D   B Y -                         
                 /     \                                                     
                 |  |  |   _    _      __       _____    __    __             
                 |  |  |  | |  | |    /  \     |  _  \  |  |  /  |          
                  \  \/   | |  | |   /    \    | | | |  |  | /  /          
                 / \  \   | |__| |  /  /\  \   | |_| |  |  |/  /          
                |  |  |   |  __  | /  /__\  \  |    /   |      \           
                |  |  |   | |  | | |   __   |  |    \   |  |\   \          
                \     /   | |  | | |  |  |  |  | |\  \  |  | \   \       
                 \___/    |_|  |_| |__|  |__|  |_| \__\ |__|  \__/        
                                                                              
                      - O R C A' S   B I G   F R I E N D -                    
                                      &                                       
                       - I N T E G R A L  F E E D E R -                       
                                                                              
 v1 FN, 2020, v2 2021, v3 2022-2024                                           
------------------------------------------------------------------------------


----------------------
SHARK INTEGRAL PACKAGE
----------------------

Number of atoms                             ...     28
Number of basis functions                   ...    963
Number of shells                            ...    373
Maximum angular momentum                    ...      3
Integral batch strategy                     ... SHARK/LIBINT Hybrid
RI-J (if used) integral strategy            ... SPLIT-RIJ (Revised 2003 algorithm where possible)
Printlevel                                  ...      1
Contraction scheme used                     ... PARTIAL GENERAL contraction
Prescreening option                         ... SCHWARTZ
   Thresh                                   ... 2.500e-11
   Tcut                                     ... 2.500e-12
   Tpresel                                  ... 2.500e-12 
Coulomb Range Separation                    ... NOT USED
Exchange Range Separation                   ... NOT USED
Multipole approximations                    ... NOT USED
Finite Nucleus Model                        ... NOT USED
CABS basis                                  ... NOT available
Auxiliary Coulomb fitting basis             ... AVAILABLE
   # of basis functions in Aux-J            ...    726
   # of shells in Aux-J                     ...    250
   Maximum angular momentum in Aux-J        ...      4
Auxiliary J/K fitting basis                 ... NOT available
Auxiliary Correlation fitting basis         ... NOT available
Auxiliary 'external' fitting basis          ... NOT available

Checking pre-screening integrals            ... done (  0.0 sec) Dimension = 373
Save PGC pre-screening integrals            ... done (  0.1 sec) Dimension = 373
Calculate PGC overlap integrals             ... done (  0.2 sec) Dimension = 307
Calculating pre-screening integrals (ORCA)  ... done (  0.3 sec) Dimension = 307
Check shell pair data                       ... done (  0.0 sec)
Shell pair information
Shell pair cut-off parameter TPreSel        ...   2.5e-12
Total number of shell pairs                 ...     69751
Shell pairs after pre-screening             ...     57805
Total number of primitive shell pairs       ...     92319
Primitive shell pairs kept                  ...     70118
          la=0 lb=0:  13032 shell pairs
          la=1 lb=0:  15175 shell pairs
          la=1 lb=1:   4168 shell pairs
          la=2 lb=0:  10475 shell pairs
          la=2 lb=1:   5729 shell pairs
          la=2 lb=2:   2035 shell pairs
          la=3 lb=0:   3621 shell pairs
          la=3 lb=1:   1948 shell pairs
          la=3 lb=2:   1377 shell pairs
          la=3 lb=3:    245 shell pairs

Calculating one electron integrals          ... done (  0.2 sec)
Calculating RI/J V-Matrix + Cholesky decomp.... done (  0.1 sec)
Calculating Nuclear repulsion               ... done (  0.0 sec) ENN=    640.173393737608 Eh

Diagonalization of the overlap matrix:
Smallest eigenvalue                        ... 7.858e-07
Time for diagonalization                   ...    0.409 sec
Threshold for overlap eigenvalues          ... 1.000e-07
Number of eigenvalues below threshold      ... 0

IMPORTANT:
Smallest eigenvalue of S below the DiffSThresh (1.000e-06) while
Thresh>1e-12 and/or TCut>1e-13! In order to avoid SCF convergence issues,
Thresh will be set to at least 1e-12 and TCut to at least 1e-13.
This can be turned off by adding %SCF DiffSThresh -1 END to the input.

Time for construction of square roots      ...    0.338 sec
Total time needed                          ...    0.783 sec

-------------------
DFT GRID GENERATION
-------------------

General Integration Accuracy     IntAcc      ... 4.388
Radial Grid Type                 RadialGrid  ... OptM3 with GC (2021)
Angular Grid (max. ang.)         AngularGrid ... 4 (Lebedev-302)
Angular grid pruning method      GridPruning ... 4 (adaptive)
Weight generation scheme         WeightScheme... mBecke (2022)
Basis function cutoff            BFCut       ... 1.0000e-11
Integration weight cutoff        WCut        ... 1.0000e-14
Partially contracted basis set               ... off
Rotationally invariant grid construction     ... off
Angular grids for H and He will be reduced by one unit
Diffuse basis detected: some atoms will have their outermost
                        angular grid increased by 1.

Total number of grid points                  ...   125051
Total number of batches                      ...     1969
Average number of points per batch           ...       63
Average number of grid points per atom       ...     4466

---------------------
SHARK GRID GENERATION
---------------------

General Integration Accuracy     IntAcc      ... 4.388
Radial Grid Type                 RadialGrid  ... OptM3 with GC (2021)
Angular Grid (max. ang.)         AngularGrid ... 4 (Lebedev-302)
Angular grid pruning method      GridPruning ... 4 (adaptive)
Weight generation scheme         WeightScheme... mBecke (2022)
Basis function cutoff            BFCut       ... 1.0000e-11
Integration weight cutoff        WCut        ... 1.0000e-14
Partially contracted basis set               ... off
Rotationally invariant grid construction     ... off
Angular grids for H and He will be reduced by one unit
Diffuse basis detected: some atoms will have their outermost
                        angular grid increased by 1.
Steep s-basis detected: some atoms will have their radial
                        grid points doubled.

Total number of grid points                  ...   193235
Total number of batches                      ...     3035
Average number of points per batch           ...       63
Average number of grid points per atom       ...     6901

--------------------
COSX GRID GENERATION
--------------------

GRIDX 1
-------
General Integration Accuracy     IntAcc      ... 3.816
Radial Grid Type                 RadialGrid  ... OptM3 with GC (2021)
Angular Grid (max. ang.)         AngularGrid ... 1 (Lebedev-50)
Angular grid pruning method      GridPruning ... 4 (adaptive)
Weight generation scheme         WeightScheme... mBecke (2022)
Basis function cutoff            BFCut       ... 1.0000e-11
Integration weight cutoff        WCut        ... 1.0000e-14
Partially contracted basis set               ... on
Rotationally invariant grid construction     ... off
Angular grids for H and He will be reduced by one unit
Diffuse basis detected: some atoms will have their outermost
                        angular grid increased by 1.

Total number of grid points                  ...    15648
Total number of batches                      ...      142
Average number of points per batch           ...      110
Average number of grid points per atom       ...      559
UseSFitting                                  ... on

GRIDX 2
-------
General Integration Accuracy     IntAcc      ... 4.020
Radial Grid Type                 RadialGrid  ... OptM3 with GC (2021)
Angular Grid (max. ang.)         AngularGrid ... 2 (Lebedev-110)
Angular grid pruning method      GridPruning ... 4 (adaptive)
Weight generation scheme         WeightScheme... mBecke (2022)
Basis function cutoff            BFCut       ... 1.0000e-11
Integration weight cutoff        WCut        ... 1.0000e-14
Partially contracted basis set               ... on
Rotationally invariant grid construction     ... off
Angular grids for H and He will be reduced by one unit
Diffuse basis detected: some atoms will have their outermost
                        angular grid increased by 1.

Total number of grid points                  ...    35870
Total number of batches                      ...      295
Average number of points per batch           ...      121
Average number of grid points per atom       ...     1281
UseSFitting                                  ... on

GRIDX 3
-------
General Integration Accuracy     IntAcc      ... 4.338
Radial Grid Type                 RadialGrid  ... OptM3 with GC (2021)
Angular Grid (max. ang.)         AngularGrid ... 3 (Lebedev-194)
Angular grid pruning method      GridPruning ... 4 (adaptive)
Weight generation scheme         WeightScheme... mBecke (2022)
Basis function cutoff            BFCut       ... 1.0000e-11
Integration weight cutoff        WCut        ... 1.0000e-14
Partially contracted basis set               ... on
Rotationally invariant grid construction     ... off
Angular grids for H and He will be reduced by one unit
Diffuse basis detected: some atoms will have their outermost
                        angular grid increased by 1.

Total number of grid points                  ...    80224
Total number of batches                      ...      644
Average number of points per batch           ...      124
Average number of grid points per atom       ...     2865
UseSFitting                                  ... on
Initializing property integral containers    ... done (  0.0 sec)

SHARK setup successfully completed in  17.4 seconds

Maximum memory used throughout the entire STARTUP-calculation: 123.0 MB


           ************************************************************
           *        Program running with 4 parallel MPI-processes     *
           *              working on a common directory               *
           ************************************************************
-------------------------------------------------------------------------------
                                 ORCA GUESS
                   Start orbitals & Density for SCF / CASSCF
-------------------------------------------------------------------------------

------------
SCF SETTINGS
------------
Hamiltonian:
 Density Functional     Method          .... DFT(GTOs)
  Functional kind                       .... Exchange
  Functional name                       .... Re-regularized SCAN exchange by Furness et al
  Functional family                     .... MGGA
  Functional refs                              
    [ 0] J. W. Furness, A. D. Kaplan, J. Ning, J. P. Perdew, and J. Sun.,  J. Phys. Chem. Lett. 11, 8208-8215 (2020), doi: 10.1021/acs.jpclett.0c02405
    [ 1] J. W. Furness, A. D. Kaplan, J. Ning, J. P. Perdew, and J. Sun.,  J. Phys. Chem. Lett. 11, 9248-9248 (2020), doi: 10.1021/acs.jpclett.0c03077
  Functional external parameters        .... 6
    Parameter  0 _c1        =  6.670000e-01 : c1 parameter        
    Parameter  1 _c2        =  8.000000e-01 : c2 parameter        
    Parameter  2 _d         =  1.240000e+00 : d parameter         
    Parameter  3 _k1        =  6.500000e-02 : k1 parameter        
    Parameter  4 _eta       =  1.000000e-03 : eta parameter       
    Parameter  5 _dp2       =  3.610000e-01 : dp2 parameter       
  Functional kind                       .... Correlation
  Functional name                       .... Re-regularized SCAN correlation by Furness et al
  Functional family                     .... MGGA
  Functional refs                              
    [ 0] J. W. Furness, A. D. Kaplan, J. Ning, J. P. Perdew, and J. Sun.,  J. Phys. Chem. Lett. 11, 8208-8215 (2020), doi: 10.1021/acs.jpclett.0c02405
    [ 1] J. W. Furness, A. D. Kaplan, J. Ning, J. P. Perdew, and J. Sun.,  J. Phys. Chem. Lett. 11, 9248-9248 (2020), doi: 10.1021/acs.jpclett.0c03077
  Functional external parameters        .... 1
    Parameter  0 _eta       =  1.000000e-03 : Regularization parameter
 Gradients option       PostSCFGGA      .... off
 Hybrid DFT is turned on
   Fraction HF Exchange ScalHFX         ....  0.100000
   Scaling of DF-GGA-X  ScalDFX         ....  0.900000
   Scaling of DF-GGA-C  ScalDFC         ....  1.000000
   Scaling of DF-LDA-C  ScalLDAC        ....  1.000000
   Perturbative correction              ....  0.000000
   NL short-range parameter             .... 11.900000
 RI-approximation to the Coulomb term is turned on
   Number of AuxJ basis functions       .... 726
   RIJ-COSX (HFX calculated with COS-X)).... on


General Settings:
 Integral files         IntName         .... cs_rporg_063_red_solv_04
 Hartree-Fock type      HFTyp           .... RHF
 Total Charge           Charge          ....    0
 Multiplicity           Mult            ....    1
 Number of Electrons    NEL             ....   84
 Basis Dimension        Dim             ....  897
 Nuclear Repulsion      ENuc            ....    640.1733937376 Eh

Convergence Acceleration:
 AO-DIIS                CNVDIIS         .... on
   Start iteration      DIISMaxIt       ....     0
   Startup error        DIISStart       ....  0.200000
   # of expansion vecs  DIISMaxEq       ....     5
   Bias factor          DIISBfac        ....   1.050
   Max. coefficient     DIISMaxC        ....  10.000
 MO-DIIS                CNVKDIIS        .... off
 Trust-Rad. Augm. Hess. CNVTRAH         .... auto
   Auto Start mean grad. ratio tolernc. ....  1.125000
   Auto Start start iteration           ....    50
   Auto Start num. interpolation iter.  ....    10
   Max. Number of Micro iterations      ....    24
   Max. Number of Macro iterations      .... Maxiter - #DIIS iter
   Number of Davidson start vectors     ....     2
   Converg. threshold    (grad. norm)   ....   1.000e-05
   Grad. Scal. Fac. for Micro threshold ....   0.100
   Minimum threshold for Micro iter.    ....   1.000e-02
   NR start threshold (gradient norm)   ....   1.000e-04
   Initial trust radius                 ....   0.400
   Minimum AH scaling param. (alpha)    ....   1.000
   Maximum AH scaling param. (alpha)    .... 1000.000
   Quad. conv. algorithm                .... NR
   White noise on init. David. guess    .... on
   Maximum white noise                  ....   0.010
   Pseudo random numbers                .... off
   Inactive MOs                         .... canonical
   Orbital update algorithm             .... Taylor
   Preconditioner                       .... Diag
   Full preconditioner red. dimension   ....   250
 SOSCF                  CNVSOSCF        .... on
   Start iteration      SOSCFMaxIt      ....   150
   Startup grad/error   SOSCFStart      ....  0.001000
   Hessian update       SOSCFHessUp     .... L-BFGS
 Level Shifting         CNVShift        .... on
   Level shift para.    LevelShift      ....    0.2500
   Turn off err/grad.   ShiftErr        ....    0.0000
 Zerner damping         CNVZerner       .... off
 Static damping         CNVDamp         .... on
   Fraction old density DampFac         ....    0.8500
   Max. Damping (<1)    DampMax         ....    0.9800
   Min. Damping (>=0)   DampMin         ....    0.0000
   Turn off err/grad.   DampErr         ....    0.0300

SCF Procedure:
 Maximum # iterations   MaxIter         ....  1500
 SCF integral mode      SCFMode         .... Direct
   Integral package                     .... SHARK and LIBINT hybrid scheme
 Reset frequency        DirectResetFreq ....    20
 Integral Threshold     Thresh          ....  1.000e-12 Eh
 Primitive CutOff       TCut            ....  1.000e-13 Eh

Convergence Tolerance:
 Convergence Check Mode ConvCheckMode   .... Total+1el-Energy
 Convergence forced     ConvForced      .... 0
 Energy Change          TolE            ....  1.000e-08 Eh
 1-El. energy change                    ....  1.000e-05 Eh
 Orbital Gradient       TolG            ....  1.000e-05
 Orbital Rotation angle TolX            ....  1.000e-05
 DIIS Error             TolErr          ....  5.000e-07

------------------------------
INITIAL GUESS: MODEL POTENTIAL
------------------------------
Loading Hartree-Fock densities                     ... done
Calculating cut-offs                               ... done
Initializing the effective Hamiltonian             ... done
Setting up the integral package (SHARK)            ... done
Starting the Coulomb interaction                   ... done (   2.3 sec)
Making the grid                                    ... done (   0.7 sec)
Mapping shells                                     ... done
Starting the XC term evaluation                    ... done (   2.8 sec)
  promolecular density results
     # of electrons  =     83.994749770
     EX              =    -62.759446425
     EC              =     -2.792431865
     EX+EC           =    -65.551878290
Transforming the Hamiltonian                       ... done (   0.2 sec)
Diagonalizing the Hamiltonian                      ... done (   0.3 sec)
Back transforming the eigenvectors                 ... done (   0.2 sec)
Now organizing SCF variables                       ... done
                      ------------------
                      INITIAL GUESS DONE (   6.6 sec)
                      ------------------
             **** ENERGY FILE WAS UPDATED (cs_rporg_063_red_solv_04.en.tmp) ****
Finished Guess after   7.7 sec
Maximum memory used throughout the entire GUESS-calculation: 99.9 MB


           ************************************************************
           *        Program running with 4 parallel MPI-processes     *
           *              working on a common directory               *
           ************************************************************

-------------------------------------------------------------------------------------------
                                      ORCA LEAN-SCF
                              memory conserving SCF solver
-------------------------------------------------------------------------------------------

--------------------
CPCM SOLVATION MODEL
--------------------
CPCM parameters:
  Epsilon                                         ...      35.6880
  Refrac                                          ...       1.3442
  Rsolv                                           ...       2.1900
  Surface type                                    ...    GEPOL SES
  Discretization scheme                           ... Constant num. charges
  Epsilon function type                           ...         CPCM
Solvent:                                          ... ACETONITRILE
SMD-CDS solvent descriptors:
  Soln                                            ...       1.3442
  Soln25                                          ...       1.3416
  Sola                                            ...       0.0700
  Solb                                            ...       0.3200
  Solg                                            ...      41.2500
  Solc                                            ...       0.0000
  Solh                                            ...       0.0000
Radii:
  Scheme                                          ... Element-dependent radii
  Radius for C  used is    3.4960 Bohr (=   1.8500 Ang.)
  Radius for H  used is    2.2677 Bohr (=   1.2000 Ang.)
  Radius for N  used is    3.5716 Bohr (=   1.8900 Ang.)
Calculating surface                               ...        done! (  0.1s)
Cavity surface points                             ...          962
Cavity Volume                                     ...    1229.0784
Cavity Surface-area                               ...     693.9490
Calculating surface distance matrix               ...        done! (  0.1s)
Performing Cholesky decomposition & store         ...        done! (  0.0s)
Overall time for CPCM initialization              ...                 0.2s

----------------------------------------D-I-I-S--------------------------------------------
Iteration    Energy (Eh)           Delta-E    RMSDP     MaxDP     DIISErr   Damp  Time(sec)
-------------------------------------------------------------------------------------------
               ***  Starting incremental Fock matrix formation  ***
    1    -445.6067166127886594     0.00e+00  7.71e-04  8.14e-02  1.73e-01  0.850  68.1
Warning: op=0 Small HOMO/LUMO gap (   0.097) - skipping pre-diagonalization
         Will do a full diagonalization
    2    -445.6855738076508260    -7.89e-02  7.44e-04  7.60e-02  1.35e-01  0.850  39.5
                               ***Turning on AO-DIIS***
    3    -445.7385542248382535    -5.30e-02  5.65e-04  5.57e-02  9.56e-02  0.850  39.5
    4    -445.7731330378715029    -3.46e-02  4.63e-04  4.30e-02  7.52e-02  0.850  38.8
    5    -445.7980952498546685    -2.50e-02  3.91e-04  3.81e-02  6.21e-02  0.850  39.9
    6    -445.8176039728009528    -1.95e-02  3.34e-04  3.41e-02  5.25e-02  0.850  38.3
    7    -445.8334955940574673    -1.59e-02  2.86e-04  3.03e-02  4.45e-02  0.850  43.4
    8    -445.8466333759497502    -1.31e-02  2.43e-04  2.61e-02  3.76e-02  0.850  36.7
    9    -445.8574875110034554    -1.09e-02  2.06e-04  2.22e-02  3.16e-02  0.850  37.3
   10    -445.8664656918469973    -8.98e-03  1.74e-04  1.89e-02  2.65e-02  0.850  34.0
   11    -445.8739226574346048    -7.46e-03  9.87e-04  1.08e-01  2.23e-02  0.000  34.3
   12    -445.9135471694341959    -3.96e-02  2.41e-05  4.02e-03  1.34e-03  0.000  37.1
                              *** Initializing SOSCF ***
---------------------------------------S-O-S-C-F--------------------------------------
Iteration    Energy (Eh)           Delta-E    RMSDP     MaxDP     MaxGrad    Time(sec)
--------------------------------------------------------------------------------------
   13    -445.9135698401744321    -2.27e-05  9.37e-06  1.86e-03  2.52e-04    32.3
               *** Restarting incremental Fock matrix formation ***
   14    -445.9135725990504397    -2.76e-06  1.51e-04  2.14e-02  3.02e-05    61.1
   15    -445.9135725555172485     4.35e-08  2.43e-05  3.17e-03  6.87e-05    48.2
   16    -445.9135727996288097    -2.44e-07  2.82e-05  3.91e-03  1.91e-05    46.6
   17    -445.9135728066175943    -6.99e-09  2.11e-06  2.33e-04  1.92e-05    45.0
                 **** Energy Check signals convergence ****

               *****************************************************
               *                     SUCCESS                       *
               *           SCF CONVERGED AFTER  17 CYCLES          *
               *****************************************************

Recomputing exchange energy using gridx3       ... done (   80.750 sec)
Old exchange energy                            :     -6.457657173 Eh
New exchange energy                            :     -6.457670224 Eh
Exchange energy change after final integration :     -0.000013051 Eh
Total energy after final integration           :   -445.913585858 Eh

SMD CDS free energy correction energy :                -3.83639     Kcal/mol
Total Energy after SMD CDS correction =              -445.919699536 Eh
             **** ENERGY FILE WAS UPDATED (cs_rporg_063_red_solv_04.en.tmp) ****

----------------
TOTAL SCF ENERGY
----------------

Total Energy       :       -445.91969953636158 Eh          -12134.09191 eV

Components:
Nuclear Repulsion  :        640.17339373760774 Eh           17420.00366 eV
Electronic Energy  :      -1086.07964210906471 Eh          -29553.72954 eV
One Electron Energy:      -1871.10741113874474 Eh          -50915.42115 eV
Two Electron Energy:        785.02776902968003 Eh           21361.69160 eV
CPCM Dielectric    :         -0.00732443516051 Eh              -0.19931 eV
SMD CDS (Gcds)     :         -0.00611367871778 Eh              -0.16636 eV

Virial components:
Potential Energy   :       -889.02351392977152 Eh          -24191.55969 eV
Kinetic Energy     :        443.10381439340989 Eh           12057.46778 eV
Virial Ratio       :          2.00635491063602

DFT components:
N(Alpha)           :       41.999974875702 electrons
N(Beta)            :       41.999974875702 electrons
N(Total)           :       83.999949751405 electrons
E(X)               :      -58.257942976595 Eh       
E(C)               :       -2.672252900549 Eh       
E(XC)              :      -60.930195877145 Eh       

CPCM Solvation Model Properties:
Surface-charge          :         -0.05782089195301
Corrected charge        :          0.00000000000000
Outlying charge corr.   :          0.00022600011740 Eh               0.00615 eV
Free-energy (cav+disp)  :         -0.00611367871778 Eh              -0.16636 eV

---------------
SCF CONVERGENCE
---------------

  Last Energy change         ...    6.9888e-09  Tolerance :   1.0000e-08
  Last MAX-Density change    ...    2.3281e-04  Tolerance :   1.0000e-07
  Last RMS-Density change    ...    2.1129e-06  Tolerance :   5.0000e-09
  Last DIIS Error            ...    2.5199e-04  Tolerance :   5.0000e-07
  Last Orbital Gradient      ...    1.9233e-05  Tolerance :   1.0000e-05
  Last Orbital Rotation      ...    3.4643e-05  Tolerance :   1.0000e-05


----------------
ORBITAL ENERGIES
----------------

  NO   OCC          E(Eh)            E(eV) 
   0   2.0000     -14.306937      -389.3116 
   1   2.0000     -10.180118      -277.0151 
   2   2.0000     -10.177391      -276.9409 
   3   2.0000     -10.174527      -276.8630 
   4   2.0000     -10.149264      -276.1755 
   5   2.0000     -10.148063      -276.1428 
   6   2.0000     -10.147759      -276.1346 
   7   2.0000     -10.143054      -276.0065 
   8   2.0000     -10.142560      -275.9931 
   9   2.0000     -10.140090      -275.9259 
  10   2.0000     -10.119335      -275.3611 
  11   2.0000      -0.949371       -25.8337 
  12   2.0000      -0.826239       -22.4831 
  13   2.0000      -0.780961       -21.2510 
  14   2.0000      -0.736719       -20.0471 
  15   2.0000      -0.718024       -19.5384 
  16   2.0000      -0.706921       -19.2363 
  17   2.0000      -0.614747       -16.7281 
  18   2.0000      -0.603974       -16.4350 
  19   2.0000      -0.565459       -15.3869 
  20   2.0000      -0.558387       -15.1945 
  21   2.0000      -0.515020       -14.0144 
  22   2.0000      -0.484023       -13.1709 
  23   2.0000      -0.480285       -13.0692 
  24   2.0000      -0.438265       -11.9258 
  25   2.0000      -0.422541       -11.4979 
  26   2.0000      -0.410498       -11.1702 
  27   2.0000      -0.409393       -11.1402 
  28   2.0000      -0.403312       -10.9747 
  29   2.0000      -0.386487       -10.5168 
  30   2.0000      -0.372568       -10.1381 
  31   2.0000      -0.363589        -9.8938 
  32   2.0000      -0.357173        -9.7192 
  33   2.0000      -0.354275        -9.6403 
  34   2.0000      -0.327721        -8.9177 
  35   2.0000      -0.325029        -8.8445 
  36   2.0000      -0.308887        -8.4052 
  37   2.0000      -0.304633        -8.2895 
  38   2.0000      -0.300086        -8.1658 
  39   2.0000      -0.286771        -7.8034 
  40   2.0000      -0.265555        -7.2261 
  41   2.0000      -0.166190        -4.5223 
  42   0.0000       0.006978         0.1899 
  43   0.0000       0.020375         0.5544 
  44   0.0000       0.023635         0.6431 
  45   0.0000       0.023780         0.6471 
  46   0.0000       0.032827         0.8933 
  47   0.0000       0.037190         1.0120 
  48   0.0000       0.040680         1.1070 
  49   0.0000       0.043132         1.1737 
  50   0.0000       0.045650         1.2422 
  51   0.0000       0.048025         1.3068 
  52   0.0000       0.058787         1.5997 
*Only the first 10 virtual orbitals were printed.

                    ********************************
                    * MULLIKEN POPULATION ANALYSIS *
                    ********************************

-----------------------
MULLIKEN ATOMIC CHARGES
-----------------------
   0 C :    0.099668
   1 C :    0.401309
   2 C :   -0.434242
   3 C :   -0.347045
   4 C :   -0.321170
   5 C :   -0.527444
   6 H :    0.219959
   7 H :    0.080149
   8 H :    0.204020
   9 H :    0.107096
  10 H :    0.184177
  11 H :    0.124557
  12 H :   -0.074082
  13 N :    0.351680
  14 C :   -0.551387
  15 C :   -0.459345
  16 C :   -0.379542
  17 C :   -0.455204
  18 H :    0.224082
  19 H :    0.195550
  20 H :    0.249726
  21 H :    0.068825
  22 H :    0.243531
  23 H :    0.079179
  24 H :    0.202902
  25 H :    0.179132
  26 H :    0.193612
  27 H :    0.140307
Sum of atomic charges:    0.0000000

--------------------------------
MULLIKEN REDUCED ORBITAL CHARGES
--------------------------------
  0 C s       :     3.227483  s :     3.227483
      pz      :     1.038421  p :     2.642370
      px      :     0.714880
      py      :     0.889069
      dz2     :     0.017990  d :     0.045410
      dxz     :    -0.025878
      dyz     :    -0.026735
      dx2y2   :     0.049512
      dxy     :     0.030520
      f0      :     0.000829  f :    -0.014931
      f+1     :     0.000615
      f-1     :    -0.002458
      f+2     :    -0.002021
      f-2     :    -0.001054
      f+3     :     0.002445
      f-3     :    -0.013288

  1 C s       :     4.121518  s :     4.121518
      pz      :     0.952176  p :     1.765200
      px      :     0.346153
      py      :     0.466871
      dz2     :    -0.014567  d :    -0.296457
      dxz     :     0.091656
      dyz     :    -0.009909
      dx2y2   :    -0.411652
      dxy     :     0.048014
      f0      :     0.001899  f :     0.008431
      f+1     :     0.001762
      f-1     :     0.000443
      f+2     :     0.004362
      f-2     :    -0.003531
      f+3     :    -0.007012
      f-3     :     0.010506

  2 C s       :     3.912959  s :     3.912959
      pz      :     1.202969  p :     2.597068
      px      :     0.604373
      py      :     0.789727
      dz2     :     0.006138  d :    -0.054120
      dxz     :     0.010122
      dyz     :     0.013999
      dx2y2   :    -0.018201
      dxy     :    -0.066177
      f0      :    -0.000544  f :    -0.021665
      f+1     :     0.000846
      f-1     :    -0.000143
      f+2     :    -0.002534
      f-2     :    -0.002418
      f+3     :     0.004364
      f-3     :    -0.021237

  3 C s       :     3.373201  s :     3.373201
      pz      :     1.045859  p :     2.920947
      px      :     0.923970
      py      :     0.951117
      dz2     :     0.003474  d :     0.054958
      dxz     :     0.024046
      dyz     :     0.010286
      dx2y2   :     0.012659
      dxy     :     0.004493
      f0      :     0.002170  f :    -0.002060
      f+1     :    -0.002004
      f-1     :     0.004145
      f+2     :     0.001539
      f-2     :    -0.001808
      f+3     :    -0.000050
      f-3     :    -0.006051

  4 C s       :     3.297001  s :     3.297001
      pz      :     1.041990  p :     2.924039
      px      :     0.967263
      py      :     0.914786
      dz2     :     0.045189  d :     0.093209
      dxz     :    -0.003342
      dyz     :    -0.003351
      dx2y2   :     0.027805
      dxy     :     0.026908
      f0      :     0.000875  f :     0.006921
      f+1     :     0.000302
      f-1     :    -0.000536
      f+2     :     0.000466
      f-2     :    -0.001081
      f+3     :     0.004008
      f-3     :     0.002888

  5 C s       :     3.411998  s :     3.411998
      pz      :     1.038317  p :     3.019015
      px      :     0.975614
      py      :     1.005084
      dz2     :     0.025556  d :     0.091226
      dxz     :     0.009061
      dyz     :     0.009814
      dx2y2   :     0.031694
      dxy     :     0.015100
      f0      :     0.000929  f :     0.005205
      f+1     :    -0.000203
      f-1     :     0.000043
      f+2     :    -0.000928
      f-2     :     0.000089
      f+3     :     0.004522
      f-3     :     0.000753

  6 H s       :     0.725899  s :     0.725899
      pz      :     0.016637  p :     0.040562
      px      :     0.018008
      py      :     0.005917
      dz2     :     0.001954  d :     0.013580
      dxz     :     0.000431
      dyz     :     0.002577
      dx2y2   :     0.005944
      dxy     :     0.002673

  7 H s       :     0.850798  s :     0.850798
      pz      :     0.030076  p :     0.058227
      px      :     0.023173
      py      :     0.004978
      dz2     :     0.001759  d :     0.010825
      dxz     :     0.005021
      dyz     :     0.003629
      dx2y2   :     0.000640
      dxy     :    -0.000223

  8 H s       :     0.746717  s :     0.746717
      pz      :     0.016924  p :     0.035735
      px      :     0.000187
      py      :     0.018624
      dz2     :     0.001767  d :     0.013528
      dxz     :     0.003036
      dyz     :     0.000038
      dx2y2   :     0.001203
      dxy     :     0.007484

  9 H s       :     0.827273  s :     0.827273
      pz      :     0.028105  p :     0.055081
      px      :    -0.001826
      py      :     0.028801
      dz2     :     0.001913  d :     0.010550
      dxz     :     0.003916
      dyz     :     0.004587
      dx2y2   :     0.000069
      dxy     :     0.000065

 10 H s       :     0.754510  s :     0.754510
      pz      :     0.017078  p :     0.050000
      px      :     0.015216
      py      :     0.017706
      dz2     :     0.003476  d :     0.011313
      dxz     :     0.000593
      dyz     :     0.000244
      dx2y2   :     0.004348
      dxy     :     0.002651

 11 H s       :     0.807369  s :     0.807369
      pz      :     0.015281  p :     0.057775
      px      :     0.022553
      py      :     0.019941
      dz2     :     0.000668  d :     0.010298
      dxz     :     0.001960
      dyz     :     0.004322
      dx2y2   :     0.002510
      dxy     :     0.000837

 12 H s       :     1.072205  s :     1.072205
      pz      :     0.028362  p :    -0.009360
      px      :    -0.002941
      py      :    -0.034781
      dz2     :     0.000386  d :     0.011237
      dxz     :     0.000768
      dyz     :     0.002995
      dx2y2   :     0.004532
      dxy     :     0.002555

 13 N s       :     4.083819  s :     4.083819
      pz      :     1.583806  p :     2.584013
      px      :     0.370541
      py      :     0.629666
      dz2     :    -0.001359  d :    -0.038248
      dxz     :     0.052424
      dyz     :     0.017082
      dx2y2   :    -0.124069
      dxy     :     0.017675
      f0      :    -0.000107  f :     0.018735
      f+1     :    -0.002178
      f-1     :    -0.000398
      f+2     :     0.003222
      f-2     :     0.001489
      f+3     :    -0.002485
      f-3     :     0.019193

 14 C s       :     3.488370  s :     3.488370
      pz      :     1.094839  p :     2.871497
      px      :     0.815924
      py      :     0.960734
      dz2     :    -0.012855  d :     0.168292
      dxz     :     0.012533
      dyz     :     0.107611
      dx2y2   :     0.021038
      dxy     :     0.039964
      f0      :     0.003747  f :     0.023228
      f+1     :     0.001913
      f-1     :     0.003494
      f+2     :     0.001255
      f-2     :     0.004627
      f+3     :    -0.003167
      f-3     :     0.011358

 15 C s       :     3.372307  s :     3.372307
      pz      :     1.050640  p :     2.989814
      px      :     0.945482
      py      :     0.993692
      dz2     :     0.032168  d :     0.092666
      dxz     :     0.022030
      dyz     :     0.007908
      dx2y2   :     0.018338
      dxy     :     0.012222
      f0      :     0.002932  f :     0.004558
      f+1     :     0.001997
      f-1     :     0.000969
      f+2     :    -0.001018
      f-2     :     0.001353
      f+3     :    -0.001874
      f-3     :     0.000199

 16 C s       :     3.353054  s :     3.353054
      pz      :     1.022218  p :     2.945124
      px      :     0.930113
      py      :     0.992793
      dz2     :     0.034017  d :     0.078566
      dxz     :     0.015202
      dyz     :     0.014023
      dx2y2   :     0.005151
      dxy     :     0.010172
      f0      :     0.002950  f :     0.002799
      f+1     :     0.000984
      f-1     :     0.001107
      f+2     :    -0.000196
      f-2     :     0.000236
      f+3     :    -0.002775
      f-3     :     0.000493

 17 C s       :     3.453026  s :     3.453026
      pz      :     1.046685  p :     2.813351
      px      :     0.812468
      py      :     0.954198
      dz2     :    -0.003450  d :     0.168314
      dxz     :     0.014780
      dyz     :     0.103317
      dx2y2   :     0.022975
      dxy     :     0.030693
      f0      :     0.003767  f :     0.020513
      f+1     :     0.001791
      f-1     :     0.003565
      f+2     :     0.000568
      f-2     :     0.004366
      f+3     :    -0.002518
      f-3     :     0.008974

 18 H s       :     0.728783  s :     0.728783
      pz      :     0.013784  p :     0.038087
      px      :     0.005293
      py      :     0.019011
      dz2     :     0.003555  d :     0.009047
      dxz     :     0.001124
      dyz     :     0.001380
      dx2y2   :     0.001149
      dxy     :     0.001839

 19 H s       :     0.758765  s :     0.758765
      pz      :     0.014580  p :     0.037747
      px      :     0.005348
      py      :     0.017820
      dz2     :     0.000420  d :     0.007938
      dxz     :     0.003441
      dyz     :     0.003785
      dx2y2   :    -0.000178
      dxy     :     0.000470

 20 H s       :     0.695873  s :     0.695873
      pz      :     0.013228  p :     0.043105
      px      :     0.021840
      py      :     0.008037
      dz2     :     0.001824  d :     0.011297
      dxz     :     0.000915
      dyz     :     0.000931
      dx2y2   :     0.007725
      dxy     :    -0.000098

 21 H s       :     0.858339  s :     0.858339
      pz      :     0.016841  p :     0.059291
      px      :     0.018290
      py      :     0.024160
      dz2     :     0.001434  d :     0.013545
      dxz     :     0.005335
      dyz     :     0.005636
      dx2y2   :     0.000467
      dxy     :     0.000672

 22 H s       :     0.701608  s :     0.701608
      pz      :     0.013266  p :     0.043702
      px      :     0.019693
      py      :     0.010744
      dz2     :     0.002538  d :     0.011159
      dxz     :     0.000575
      dyz     :     0.000828
      dx2y2   :     0.007250
      dxy     :    -0.000032

 23 H s       :     0.847753  s :     0.847753
      pz      :     0.017353  p :     0.059395
      px      :     0.018740
      py      :     0.023302
      dz2     :     0.000739  d :     0.013674
      dxz     :     0.005563
      dyz     :     0.005548
      dx2y2   :     0.001055
      dxy     :     0.000769

 24 H s       :     0.745427  s :     0.745427
      pz      :     0.020509  p :     0.043960
      px      :     0.001506
      py      :     0.021946
      dz2     :     0.002991  d :     0.007710
      dxz     :     0.001459
      dyz     :     0.001590
      dx2y2   :     0.000131
      dxy     :     0.001539

 25 H s       :     0.763775  s :     0.763775
      pz      :     0.017680  p :     0.049321
      px      :     0.010844
      py      :     0.020798
      dz2     :     0.001321  d :     0.007772
      dxz     :     0.002288
      dyz     :     0.003295
      dx2y2   :    -0.000071
      dxy     :     0.000939

 26 H s       :     0.772250  s :     0.772250
      pz      :     0.012131  p :     0.024031
      px      :     0.006067
      py      :     0.005833
      dz2     :     0.003551  d :     0.010108
      dxz     :    -0.000036
      dyz     :    -0.000011
      dx2y2   :     0.005052
      dxy     :     0.001552

 27 H s       :     0.821016  s :     0.821016
      pz      :     0.016788  p :     0.030576
      px      :     0.003640
      py      :     0.010148
      dz2     :     0.000696  d :     0.008101
      dxz     :     0.001877
      dyz     :     0.003055
      dx2y2   :     0.001436
      dxy     :     0.001037



                     *******************************
                     * LOEWDIN POPULATION ANALYSIS *
                     *******************************

----------------------
LOEWDIN ATOMIC CHARGES
----------------------
   0 C :    0.274404
   1 C :   -0.197548
   2 C :    0.229275
   3 C :    0.226869
   4 C :    0.258737
   5 C :    0.273938
   6 H :   -0.128279
   7 H :   -0.126975
   8 H :   -0.132091
   9 H :   -0.130217
  10 H :   -0.146316
  11 H :   -0.141937
  12 H :   -0.206681
  13 N :    0.272102
  14 C :    0.166943
  15 C :    0.300302
  16 C :    0.298372
  17 C :    0.181479
  18 H :   -0.132454
  19 H :   -0.116792
  20 H :   -0.126341
  21 H :   -0.127787
  22 H :   -0.127648
  23 H :   -0.128932
  24 H :   -0.131144
  25 H :   -0.116897
  26 H :   -0.140796
  27 H :   -0.123587

-------------------------------
LOEWDIN REDUCED ORBITAL CHARGES
-------------------------------
  0 C s       :     2.415711  s :     2.415711
      pz      :     0.751663  p :     2.218145
      px      :     0.729771
      py      :     0.736710
      dz2     :     0.115228  d :     0.755591
      dxz     :     0.132888
      dyz     :     0.149933
      dx2y2   :     0.171793
      dxy     :     0.185750
      f0      :     0.030053  f :     0.336148
      f+1     :     0.044527
      f-1     :     0.029276
      f+2     :     0.047404
      f-2     :     0.035468
      f+3     :     0.046223
      f-3     :     0.103197

  1 C s       :     2.441432  s :     2.441432
      pz      :     0.604683  p :     2.190987
      px      :     0.755373
      py      :     0.830931
      dz2     :     0.085103  d :     1.018213
      dxz     :     0.183783
      dyz     :     0.175144
      dx2y2   :     0.306708
      dxy     :     0.267475
      f0      :     0.036710  f :     0.546916
      f+1     :     0.038165
      f-1     :     0.028892
      f+2     :     0.098028
      f-2     :     0.053567
      f+3     :     0.084837
      f-3     :     0.206718

  2 C s       :     2.466079  s :     2.466079
      pz      :     0.686589  p :     2.300203
      px      :     0.780869
      py      :     0.832745
      dz2     :     0.061229  d :     0.680556
      dxz     :     0.130562
      dyz     :     0.059738
      dx2y2   :     0.202348
      dxy     :     0.226679
      f0      :     0.026880  f :     0.323887
      f+1     :     0.022442
      f-1     :     0.021876
      f+2     :     0.047917
      f-2     :     0.029052
      f+3     :     0.059581
      f-3     :     0.116140

  3 C s       :     2.430485  s :     2.430485
      pz      :     0.753155  p :     2.231183
      px      :     0.739013
      py      :     0.739016
      dz2     :     0.110516  d :     0.780684
      dxz     :     0.154356
      dyz     :     0.158953
      dx2y2   :     0.178844
      dxy     :     0.178014
      f0      :     0.031201  f :     0.330778
      f+1     :     0.034331
      f-1     :     0.037968
      f+2     :     0.051391
      f-2     :     0.028238
      f+3     :     0.041918
      f-3     :     0.105732

  4 C s       :     2.424392  s :     2.424392
      pz      :     0.742589  p :     2.213825
      px      :     0.752233
      py      :     0.719002
      dz2     :     0.202781  d :     0.768695
      dxz     :     0.051076
      dyz     :     0.158756
      dx2y2   :     0.231046
      dxy     :     0.125036
      f0      :     0.035806  f :     0.334351
      f+1     :     0.024678
      f-1     :     0.062988
      f+2     :     0.048459
      f-2     :     0.038833
      f+3     :     0.041054
      f-3     :     0.082533

  5 C s       :     2.421845  s :     2.421845
      pz      :     0.742823  p :     2.208798
      px      :     0.716727
      py      :     0.749247
      dz2     :     0.203230  d :     0.761157
      dxz     :     0.122644
      dyz     :     0.083017
      dx2y2   :     0.160629
      dxy     :     0.191636
      f0      :     0.035888  f :     0.334262
      f+1     :     0.041904
      f-1     :     0.046182
      f+2     :     0.051031
      f-2     :     0.034641
      f+3     :     0.042683
      f-3     :     0.081933

  6 H s       :     0.621962  s :     0.621962
      pz      :     0.083530  p :     0.288038
      px      :     0.085557
      py      :     0.118952
      dz2     :     0.027595  d :     0.218279
      dxz     :     0.014400
      dyz     :     0.060965
      dx2y2   :     0.067208
      dxy     :     0.048110

  7 H s       :     0.610568  s :     0.610568
      pz      :     0.131986  p :     0.294003
      px      :     0.075311
      py      :     0.086706
      dz2     :     0.056915  d :     0.222405
      dxz     :     0.067304
      dyz     :     0.074932
      dx2y2   :     0.013673
      dxy     :     0.009581

  8 H s       :     0.624493  s :     0.624493
      pz      :     0.084189  p :     0.289449
      px      :     0.130079
      py      :     0.075180
      dz2     :     0.028003  d :     0.218150
      dxz     :     0.069542
      dyz     :     0.005619
      dx2y2   :     0.040324
      dxy     :     0.074661

  9 H s       :     0.612762  s :     0.612762
      pz      :     0.132101  p :     0.294950
      px      :     0.085184
      py      :     0.077665
      dz2     :     0.056909  d :     0.222505
      dxz     :     0.071685
      dyz     :     0.070640
      dx2y2   :     0.016247
      dxy     :     0.007023

 10 H s       :     0.622444  s :     0.622444
      pz      :     0.112931  p :     0.299114
      px      :     0.083961
      py      :     0.102221
      dz2     :     0.071883  d :     0.224758
      dxz     :     0.029000
      dyz     :     0.038304
      dx2y2   :     0.048423
      dxy     :     0.037149

 11 H s       :     0.619295  s :     0.619295
      pz      :     0.132045  p :     0.300441
      px      :     0.087604
      py      :     0.080793
      dz2     :     0.068985  d :     0.222201
      dxz     :     0.048107
      dyz     :     0.063310
      dx2y2   :     0.027693
      dxy     :     0.014106

 12 H s       :     0.637755  s :     0.637755
      pz      :     0.104458  p :     0.335652
      px      :     0.112168
      py      :     0.119026
      dz2     :     0.024272  d :     0.233274
      dxz     :     0.016885
      dyz     :     0.056485
      dx2y2   :     0.082910
      dxy     :     0.052720

 13 N s       :     2.603038  s :     2.603038
      pz      :     1.085096  p :     2.962930
      px      :     0.965681
      py      :     0.912153
      dz2     :     0.062029  d :     0.817219
      dxz     :     0.127672
      dyz     :     0.137724
      dx2y2   :     0.245972
      dxy     :     0.243822
      f0      :     0.034680  f :     0.344711
      f+1     :     0.022760
      f-1     :     0.014422
      f+2     :     0.046013
      f-2     :     0.042142
      f+3     :     0.055210
      f-3     :     0.129483

 14 C s       :     2.413058  s :     2.413058
      pz      :     0.767922  p :     2.169741
      px      :     0.697515
      py      :     0.704305
      dz2     :     0.106564  d :     0.843453
      dxz     :     0.124044
      dyz     :     0.228891
      dx2y2   :     0.193676
      dxy     :     0.190279
      f0      :     0.044136  f :     0.406805
      f+1     :     0.036618
      f-1     :     0.038497
      f+2     :     0.037311
      f-2     :     0.067924
      f+3     :     0.085608
      f-3     :     0.096711

 15 C s       :     2.429644  s :     2.429644
      pz      :     0.755513  p :     2.209499
      px      :     0.729413
      py      :     0.724572
      dz2     :     0.168376  d :     0.725852
      dxz     :     0.108719
      dyz     :     0.117800
      dx2y2   :     0.126726
      dxy     :     0.204231
      f0      :     0.038058  f :     0.334703
      f+1     :     0.020206
      f-1     :     0.054304
      f+2     :     0.037034
      f-2     :     0.052533
      f+3     :     0.079488
      f-3     :     0.053079

 16 C s       :     2.429487  s :     2.429487
      pz      :     0.753695  p :     2.207535
      px      :     0.728762
      py      :     0.725079
      dz2     :     0.191830  d :     0.728811
      dxz     :     0.090353
      dyz     :     0.113949
      dx2y2   :     0.123255
      dxy     :     0.209424
      f0      :     0.033370  f :     0.335794
      f+1     :     0.027593
      f-1     :     0.055716
      f+2     :     0.039255
      f-2     :     0.051530
      f+3     :     0.074720
      f-3     :     0.053610

 17 C s       :     2.413571  s :     2.413571
      pz      :     0.764778  p :     2.166712
      px      :     0.698381
      py      :     0.703553
      dz2     :     0.114214  d :     0.837503
      dxz     :     0.127214
      dyz     :     0.221082
      dx2y2   :     0.183028
      dxy     :     0.191965
      f0      :     0.039852  f :     0.400735
      f+1     :     0.049041
      f-1     :     0.038945
      f+2     :     0.031468
      f-2     :     0.065435
      f+3     :     0.082927
      f-3     :     0.093066

 18 H s       :     0.613569  s :     0.613569
      pz      :     0.114926  p :     0.294630
      px      :     0.091778
      py      :     0.087926
      dz2     :     0.071696  d :     0.224255
      dxz     :     0.031203
      dyz     :     0.038445
      dx2y2   :     0.041639
      dxy     :     0.041272

 19 H s       :     0.619762  s :     0.619762
      pz      :     0.130346  p :     0.283654
      px      :     0.074418
      py      :     0.078890
      dz2     :     0.068646  d :     0.213377
      dxz     :     0.052134
      dyz     :     0.049407
      dx2y2   :     0.018025
      dxy     :     0.025164

 20 H s       :     0.628521  s :     0.628521
      pz      :     0.089015  p :     0.285070
      px      :     0.101436
      py      :     0.094619
      dz2     :     0.035735  d :     0.212750
      dxz     :     0.035511
      dyz     :     0.033215
      dx2y2   :     0.068330
      dxy     :     0.039959

 21 H s       :     0.617127  s :     0.617127
      pz      :     0.135867  p :     0.292183
      px      :     0.076495
      py      :     0.079821
      dz2     :     0.054972  d :     0.218476
      dxz     :     0.070545
      dyz     :     0.076662
      dx2y2   :     0.003931
      dxy     :     0.012365

 22 H s       :     0.628580  s :     0.628580
      pz      :     0.093853  p :     0.285941
      px      :     0.097972
      py      :     0.094117
      dz2     :     0.044790  d :     0.213126
      dxz     :     0.030291
      dyz     :     0.034666
      dx2y2   :     0.065068
      dxy     :     0.038311

 23 H s       :     0.617657  s :     0.617657
      pz      :     0.135867  p :     0.292809
      px      :     0.077180
      py      :     0.079762
      dz2     :     0.057770  d :     0.218466
      dxz     :     0.064223
      dyz     :     0.075849
      dx2y2   :     0.007507
      dxy     :     0.013117

 24 H s       :     0.612441  s :     0.612441
      pz      :     0.121392  p :     0.294325
      px      :     0.086528
      py      :     0.086405
      dz2     :     0.077045  d :     0.224377
      dxz     :     0.032690
      dyz     :     0.040808
      dx2y2   :     0.035868
      dxy     :     0.037966

 25 H s       :     0.615945  s :     0.615945
      pz      :     0.129612  p :     0.286352
      px      :     0.075705
      py      :     0.081035
      dz2     :     0.074095  d :     0.214600
      dxz     :     0.042790
      dyz     :     0.047133
      dx2y2   :     0.023356
      dxy     :     0.027226

 26 H s       :     0.598823  s :     0.598823
      pz      :     0.109983  p :     0.305768
      px      :     0.101132
      py      :     0.094654
      dz2     :     0.073841  d :     0.236204
      dxz     :     0.032690
      dyz     :     0.036587
      dx2y2   :     0.057593
      dxy     :     0.035493

 27 H s       :     0.599441  s :     0.599441
      pz      :     0.130094  p :     0.296883
      px      :     0.080452
      py      :     0.086338
      dz2     :     0.070803  d :     0.227262
      dxz     :     0.058937
      dyz     :     0.054321
      dx2y2   :     0.025095
      dxy     :     0.018107



                      *****************************
                      * MAYER POPULATION ANALYSIS *
                      *****************************

  NA   - Mulliken gross atomic population
  ZA   - Total nuclear charge
  QA   - Mulliken gross atomic charge
  VA   - Mayer's total valence
  BVA  - Mayer's bonded valence
  FA   - Mayer's free valence

  ATOM       NA         ZA         QA         VA         BVA        FA
  0 C      5.9003     6.0000     0.0997     3.2173     3.2173    -0.0000
  1 C      5.5987     6.0000     0.4013     0.4591     0.4591     0.0000
  2 C      6.4342     6.0000    -0.4342     2.0794     2.0794     0.0000
  3 C      6.3470     6.0000    -0.3470     3.5914     3.5914    -0.0000
  4 C      6.3212     6.0000    -0.3212     3.8921     3.8921     0.0000
  5 C      6.5274     6.0000    -0.5274     3.9744     3.9744    -0.0000
  6 H      0.7800     1.0000     0.2200     0.8745     0.8745    -0.0000
  7 H      0.9199     1.0000     0.0801     1.1027     1.1027     0.0000
  8 H      0.7960     1.0000     0.2040     0.8821     0.8821     0.0000
  9 H      0.8929     1.0000     0.1071     1.0783     1.0783     0.0000
 10 H      0.8158     1.0000     0.1842     0.9398     0.9398    -0.0000
 11 H      0.8754     1.0000     0.1246     1.0284     1.0284    -0.0000
 12 H      1.0741     1.0000    -0.0741     0.7643     0.7643     0.0000
 13 N      6.6483     7.0000     0.3517     0.9211     0.9211    -0.0000
 14 C      6.5514     6.0000    -0.5514     3.6162     3.6162    -0.0000
 15 C      6.4593     6.0000    -0.4593     3.8411     3.8411    -0.0000
 16 C      6.3795     6.0000    -0.3795     3.7922     3.7922     0.0000
 17 C      6.4552     6.0000    -0.4552     3.5765     3.5765    -0.0000
 18 H      0.7759     1.0000     0.2241     0.9400     0.9400    -0.0000
 19 H      0.8044     1.0000     0.1956     1.0107     1.0107    -0.0000
 20 H      0.7503     1.0000     0.2497     0.8880     0.8880     0.0000
 21 H      0.9312     1.0000     0.0688     1.0960     1.0960    -0.0000
 22 H      0.7565     1.0000     0.2435     0.8953     0.8953    -0.0000
 23 H      0.9208     1.0000     0.0792     1.0906     1.0906    -0.0000
 24 H      0.7971     1.0000     0.2029     0.9717     0.9717    -0.0000
 25 H      0.8209     1.0000     0.1791     1.0151     1.0151     0.0000
 26 H      0.8064     1.0000     0.1936     0.8086     0.8086    -0.0000
 27 H      0.8597     1.0000     0.1403     0.9598     0.9598    -0.0000

  Mayer bond orders larger than 0.100000
B(  0-C ,  1-C ) :   0.4480 B(  0-C ,  2-C ) :  -0.1311 B(  0-C ,  5-C ) :   0.8767 
B(  0-C , 26-H ) :   0.9552 B(  0-C , 27-H ) :   1.0025 B(  1-C ,  2-C ) :   0.6414 
B(  1-C ,  3-C ) :  -0.1694 B(  1-C ,  4-C ) :  -0.1139 B(  1-C , 12-H ) :  -0.1861 
B(  1-C , 13-N ) :   0.1929 B(  1-C , 17-C ) :  -0.1409 B(  1-C , 26-H ) :  -0.1226 
B(  2-C ,  3-C ) :   0.7073 B(  2-C ,  4-C ) :   0.1786 B(  2-C , 12-H ) :   1.1472 
B(  2-C , 13-N ) :  -0.4266 B(  2-C , 14-C ) :  -0.1150 B(  2-C , 17-C ) :   0.1472 
B(  3-C ,  4-C ) :   0.8978 B(  3-C ,  5-C ) :   0.1115 B(  3-C , 10-H ) :   0.9873 
B(  3-C , 11-H ) :   1.0422 B(  4-C ,  5-C ) :   0.9321 B(  4-C ,  8-H ) :   0.9448 
B(  4-C ,  9-H ) :   1.0470 B(  5-C ,  6-H ) :   0.9188 B(  5-C ,  7-H ) :   1.0833 
B( 12-H , 14-C ) :  -0.1427 B( 13-N , 14-C ) :   0.7390 B( 13-N , 17-C ) :   0.6374 
B( 14-C , 15-C ) :   0.9152 B( 14-C , 16-C ) :   0.1028 B( 14-C , 24-H ) :   1.0389 
B( 14-C , 25-H ) :   1.0262 B( 15-C , 16-C ) :   0.9601 B( 15-C , 17-C ) :   0.1139 
B( 15-C , 22-H ) :   0.9347 B( 15-C , 23-H ) :   1.0771 B( 16-C , 17-C ) :   0.8826 
B( 16-C , 20-H ) :   0.9288 B( 16-C , 21-H ) :   1.0888 B( 17-C , 18-H ) :   0.9840 
B( 17-C , 19-H ) :   0.9874 

-------
TIMINGS
-------

Total SCF time: 0 days 0 hours 13 min 23 sec 

Total time                  ....     803.797 sec
Sum of individual times     ....     803.882 sec  (100.0%)

SCF preparation             ....       1.159 sec  (  0.1%)
Fock matrix formation       ....     779.063 sec  ( 96.9%)
  Startup                   ....       0.878 sec  (  0.1% of F)
  Split-RI-J                ....      45.361 sec  (  5.8% of F)
  Chain of spheres X        ....     448.899 sec  ( 57.6% of F)
  XC integration            ....     256.423 sec  ( 32.9% of F)
    XC Preparation          ....       0.000 sec  (  0.0% of XC)
    Basis function eval.    ....      15.456 sec  (  6.0% of XC)
    Density eval.           ....     100.700 sec  ( 39.3% of XC)
    XC-Functional eval.     ....       2.359 sec  (  0.9% of XC)
    XC-Potential eval.      ....     130.701 sec  ( 51.0% of XC)
  CPCM terms                ....      24.988 sec  (  3.2% of F)
Diagonalization             ....       0.000 sec  (  0.0%)
Density matrix formation    ....       2.488 sec  (  0.3%)
Total Energy calculation    ....       1.044 sec  (  0.1%)
Population analysis         ....       0.527 sec  (  0.1%)
Orbital Transformation      ....       2.095 sec  (  0.3%)
Orbital Orthonormalization  ....       0.000 sec  (  0.0%)
DIIS solution               ....      14.399 sec  (  1.8%)
SOSCF solution              ....       3.107 sec  (  0.4%)
Finished LeanSCF after 804.0 sec

Maximum memory used throughout the entire LEANSCF-calculation: 171.1 MB


-------------------------------------------------------------------------------
                          DFT DISPERSION CORRECTION                            
                                                                               
                              DFTD3 V3.1  Rev 1                                
                          USING Becke-Johnson damping                          
-------------------------------------------------------------------------------
The R2SCANh functional is recognized
Active option DFTDOPT                   ...         4   

molecular C6(AA) [au] = 6069.658268 


            DFT-D V3
 parameters
 s6 scaling factor         :     1.0000 
 a1 scaling factor         :     0.4709 
 s8 scaling factor         :     1.1236 
 a2 scaling factor         :     5.9157 
 ad hoc parameters k1-k3   :    16.0000     1.3333    -4.0000 

 Edisp/kcal,au: -5.857264945204  -0.009334144842 
 E6   /kcal   :  -4.322781569 
 E8   /kcal   :  -1.534483377 
 % E8         :  26.197950597 

-------------------------   ----------------
Dispersion correction           -0.009334145
-------------------------   ----------------


-------------------------   --------------------
FINAL SINGLE POINT ENERGY      -445.929033681203
-------------------------   --------------------



           ************************************************************
           *        Program running with 4 parallel MPI-processes     *
           *              working on a common directory               *
           ************************************************************

------------------------------------------------------------------------------
                              ORCA PROPERTY CALCULATIONS
------------------------------------------------------------------------------

GBWName                                 ... cs_rporg_063_red_solv_04.gbw
Number of atoms                         ...     28
Number of basis functions               ...    963
Max core memory                         ...   3000 MB

Electric properties:
Dipole moment                           ... YES
Quadrupole moment                       ...  NO
Static polarizability (Dipole/Dipole)   ...  NO
Static polarizability (Dipole/Quad.)    ...  NO
Static polarizability (Quad./Quad.)     ...  NO
Static polarizability (Velocity)        ...  NO

Atomic electric properties:
Dipole moment                           ...  NO
Quadrupole moment                       ...  NO
Static polarizability                   ...  NO

Choice of electric origin               ... Center of mass
Position of electric origin             ...     0.000117     0.005949    -0.035059

General magnetic properties:
Magnetizability                         ...  NO

EPR properties:
g-Tensor (aka g-matrix)                 ...  NO
Zero-Field splitting spin-orbit         ...  NO
Zero-field splitting spin-spin          ...  NO
Hyperfine couplings                     ...  NO (   0 nuclei)
Quadrupole couplings                    ...  NO (   0 nuclei)
Contact density                         ...  NO (   0 nuclei)

NMR properties:
Chemical shifts                         ...  NO (   0 nuclei)
Spin-rotation constants                 ...  NO (   0 nuclei)
Spin-spin couplings                     ...  NO (   0 nuclei,    0 pairs)

Choice of magnetic origin               ... GIAO
Position of magnetic origin             ...     0.000000     0.000000     0.000000

Properties with geometric perturbations:
SCF Hessian                             ...  NO
IR spectrum                             ...  NO
VCD spectrum                            ...  NO
X-ray spectroscopy properties:
SCF XES/XAS/RIXS spectra                ...  NO


-------------
DIPOLE MOMENT
-------------

Method             : SCF
Type of density    : Electron Density
Multiplicity       :   1
Irrep              :   0
Energy             :  -445.9196995363615770 Eh
Relativity type    : 
Basis              : AO
                                X                 Y                 Z
Electronic contribution:     -1.147439635       0.480538704       0.148063801
Nuclear contribution   :      0.342331497      -1.087953366      -0.177536996
                        -----------------------------------------
Total Dipole Moment    :     -0.805108138      -0.607414662      -0.029473195
                        -----------------------------------------
Magnitude (a.u.)       :      1.008969947
Magnitude (Debye)      :      2.564597794



--------------------
Rotational spectrum 
--------------------
 
Rotational constants in cm-1:             0.091846             0.021037             0.017897 
Rotational constants in MHz :          2753.468293           630.660673           536.548584 

Dipole components along the rotational axes: 
x,y,z [a.u.] :    -0.808992     0.602530    -0.022581 
x,y,z [Debye]:    -2.056294     1.531510    -0.057395 

 

Dipole moment calculation done in   0.1 sec 

Maximum memory used throughout the entire PROP-calculation: 102.5 MB

--------------------------------
SUGGESTED CITATIONS FOR THIS RUN
--------------------------------

Below you find a list of papers that are relevant to this ORCA run
We neither can nor want to force you to cite these papers, but we appreciate if you do
You receive ORCA, which is the product of decades of hard work by many enthusiastic individuals, for free
The only thing we kindly ask in return is that you cite our papers,
We deeply appreciate it, if you show your appreciation for ORCA by not just citing the generic ORCA reference.

Please note that relegating all ORCA citations to the supporting information does *not* help us.
SI sections are not indexed - citations you put there will not count into any citation statistics
But we need these citations in order to attract the funding resources that allow us to do what we are doing

Therefore, if you are a happy ORCA user, please consider citing a few of the papers listed below in the main body of your paper

In addition to the list printed below, the program has created the file cs_rporg_063_red_solv_04.bibtex that contains the list in bibtex format
You can import this file easily into all common literature databanks and citation aid programs


List of essential papers. We consider these as the minimum necessary citations

  1. Neese,F.
     Software update: the ORCA program system, version 5.0
     WIRES Comput. Molec. Sci., 2022 12(1)e1606
     doi.org/10.1002/wcms.1606

List of papers to cite with high priority. The work reported in these papers was absolutely
necessary for this run to complete.
Our perspective: the developers of density functionals and basis sets usually get cited in chemistry papers
Good! But without the algorithms to do something with them, the functionals or basis sets would not do anything.
Hence, in our opinion, the algorithm design and method developments papers are equally worthy of getting cited

  1. Neese,F.
     An improvement of the resolution of the identity approximation for the formation of the Coulomb matrix
     J. Comp. Chem., 2003 24(14)1740-1747
     doi.org/10.1002/jcc.10318
  2. Neese,F.; Wennmohs,F.; Hansen,A.; Becker,U.
     Efficient, approximate and parallel Hartree-Fock and hybrid DFT calculations. A 'chain-of-spheres' algorithm for the Hartree-Fock exchange
     Chem. Phys., 2009 356(1-3)98-109
     doi.org/10.1016/j.chemphys.2008.10.036
  3. Garcia-Rates,M.; Neese,F.
     Effect of the Solute Cavity on the Solvation Energy and its Derivatives within the Framework of the Gaussian Charge Scheme
     J. Comput. Chem., 2020 41 922-939
     doi.org/10.1002/jcc.26139
  4. Helmich-Paris,B.; de Souza,B.; Neese,F.; Izsák,R.
     An improved chain of spheres for exchange algorithm
     J. Chem. Phys., 2021 155 104109
     doi.org/doi: 10.1063/5.0058766.
  5. Neese,F.
     The SHARK Integral Generation and Digestion System
     J. Comp. Chem., 2022  1-16
     doi.org/10.1002/jcc.26942
  6. Lehtola,S.; Steigemann,C.; Oliveira,M.; Marques,M.
     Recent developments in Libxc - A comprehensive library of functionals for density functional theory
     Software X, 2018 7 
     doi.org/10.1016/j.softx.2017.11.002
  7. Grimme,S.; Antony,J.; Ehrlich,S.; Krieg,H.
     A consistent and accurate ab initio parametrization of density functional dispersion correction (DFT-D) for the 94 elements H-Pu
     J. Chem. Phys., 2010 132 154104-XXXX
     doi.org/10.1063/1.3382344
  8. Grimme,S.; Ehrlich,S.; Goerigk,L.
     Effect of the damping function in dispersion corrected density functional theory
     J. Comput. Chem., 2011 32(7)1456-1465
     doi.org/10.1002/jcc.21759
  9. Bursch,M.; Neugebauer,H.; Ehlert,S.; Grimme,S.
     Dispersion corrected r2SCAN based global hybrid functionals: r2SCANh, r2SCAN0, and r2SCAN50
     J. Phys. Chem., 2022 156(13)134105
     doi.org/10.1063/5.0086040

List of suggested additional citations. These are papers that are important in the 'surrounding' of 
of this run, or papers that preceded the highly important papers. If you like your results we are grateful for a citation.

  1. Izsak,R.; Neese,F.
     An overlap fitted chain of spheres exchange method
     J. Chem. Phys., 2011 135 144105
     doi.org/10.1063/1.3646921
  2. Izsak,R.; Hansen,A.; Neese,F.
     The resolution of identity and chain of spheres approximations for the LPNO-CCSD singles Fock term
     Molec. Phys., 2012 110 2413-2417
     doi.org/10.1080/00268976.2012.687466
  3. Neese,F.
     The ORCA program system
     WIRES Comput. Molec. Sci., 2012 2(1)73-78
     doi.org/10.1002/wcms.81
  4. Izsak,R.; Neese,F.; Klopper,W.
     Robust fitting techniques in the chain of spheres approximation to the Fock exchange: The role of the complementary space
     J. Chem. Phys., 2013 139 
     doi.org/10.1063/1.4819264
  5. Neese,F.
     Software update: the ORCA program system, version 4.0
     WIRES Comput. Molec. Sci., 2018 8(1)1-6
     doi.org/10.1002/wcms.1327
  6. Neese,F.; Wennmohs,F.; Becker,U.; Riplinger,C.
     The ORCA quantum chemistry program package
     J. Chem. Phys., 2020 152 Art. No. L224108
     doi.org/10.1063/5.0004608
  7. Wittmann,L.; Neugebauer,H.; Grimme,S.; Bursch,M.
     Dispersion-corrected r2SCAN based double-hybrid functionals
     J. Chem. Phys., 2023 159(22)224103
     doi.org/10.1063/5.0174988

List of optional additional citations

  1. Neese,F.
     Approximate second-order SCF convergence for spin unrestricted wavefunctions
     Chem. Phys. Lett., 2000 325(1-3)93-98
     doi.org/10.1016/s0009-2614(00)00662-x

Timings for individual modules:

Sum of individual times          ...      835.877 sec (=  13.931 min)
Startup calculation              ...       19.493 sec (=   0.325 min)   2.3 %
SCF iterations                   ...      814.396 sec (=  13.573 min)  97.4 %
Property calculations            ...        1.988 sec (=   0.033 min)   0.2 %
                             ****ORCA TERMINATED NORMALLY****
TOTAL RUN TIME: 0 days 0 hours 13 minutes 58 seconds 842 msec
