 vasp.6.4.2 20Jul23 (build Sep 06 2024 14:39:43) complex                        
  
 executed on             LinuxIFC date 2025.09.11  12:45:10
 running   90 mpi-ranks, on    6 nodes
 distrk:  each k-point on   90 cores,    1 groups
 distr:  one band on NCORE=  30 cores,    3 groups


--------------------------------------------------------------------------------------------------------


 INCAR:
   SYSTEM = 113_red
   ISTART = 1
   ICHARG = 2
   INIWAV = 1
   LHFCALC = .TRUE.
   HFSCREEN = 0.2
   NELM = 500
   ALGO = Damped
   ISPIN = 2
   EDIFF = 1E-05
   ISMEAR = 0
   SIGMA = 0.05
   PREC = accurate
   ENCUT = 500
   LREAL = auto  	
   LDIAG = .FALSE.
   LWAVE = .TRUE.
   LCHARG = .FALSE.
   LAECHG = .FALSE.
   LVHAR = .FALSE.
   LVTOT = .FALSE.
   EDIFFG = -0.02
   IBRION = 2
   NSW = 0
   ISIF = 2
   POTIM = 0.5
   IVDW = 12
   VDW_A1 = 0.383
   VDW_S8 = 2.310
   VDW_A2 = 5.685
   LPLANE = .TRUE.
   NCORE = 30
   LSCALU = .FALSE.
   NSIM = 4
   LSOL = .TRUE.
   EB_K = 35.6880
   LAMBDA_D_K = 3.04
   NELECT = 47
   TAU = 0

 POTCAR:    PAW_PBE C 08Apr2002                   
 POTCAR:    PAW_PBE Cl 06Sep2000                  
 POTCAR:    PAW_PBE O 08Apr2002                   
 POTCAR:    PAW_PBE H 15Jun2001                   
 -----------------------------------------------------------------------------
|                                                                             |
|           W    W    AA    RRRRR   N    N  II  N    N   GGGG   !!!           |
|           W    W   A  A   R    R  NN   N  II  NN   N  G    G  !!!           |
|           W    W  A    A  R    R  N N  N  II  N N  N  G       !!!           |
|           W WW W  AAAAAA  RRRRR   N  N N  II  N  N N  G  GGG   !            |
|           WW  WW  A    A  R   R   N   NN  II  N   NN  G    G                |
|           W    W  A    A  R    R  N    N  II  N    N   GGGG   !!!           |
|                                                                             |
|     You use a magnetic or noncollinear calculation, but did not specify     |
|     the initial magnetic moment with the MAGMOM tag. Note that a            |
|     default of 1 will be used for all atoms. This ferromagnetic setup       |
|     may break the symmetry of the crystal, in particular it may rule        |
|     out finding an antiferromagnetic solution. Thence, we recommend         |
|     setting the initial magnetic moment manually or verifying carefully     |
|     that this magnetic setup is desired.                                    |
|                                                                             |
 -----------------------------------------------------------------------------

 -----------------------------------------------------------------------------
|                                                                             |
|           W    W    AA    RRRRR   N    N  II  N    N   GGGG   !!!           |
|           W    W   A  A   R    R  NN   N  II  NN   N  G    G  !!!           |
|           W    W  A    A  R    R  N N  N  II  N N  N  G       !!!           |
|           W WW W  AAAAAA  RRRRR   N  N N  II  N  N N  G  GGG   !            |
|           WW  WW  A    A  R   R   N   NN  II  N   NN  G    G                |
|           W    W  A    A  R    R  N    N  II  N    N   GGGG   !!!           |
|                                                                             |
|     For optimal performance we recommend to set                             |
|       NCORE = 2 up to number-of-cores-per-socket                            |
|     NCORE specifies how many cores store one orbital (NPAR=cpu/NCORE).      |
|     This setting can greatly improve the performance of VASP for DFT.       |
|     The default, NCORE=1 might be grossly inefficient on modern             |
|     multi-core architectures or massively parallel machines. Do your        |
|     own testing! More info at https://www.vasp.at/wiki/index.php/NCORE      |
|     Unfortunately you need to use the default for GW and RPA                |
|     calculations (for HF NCORE is supported but not extensively tested      |
|     yet).                                                                   |
|                                                                             |
 -----------------------------------------------------------------------------

 POTCAR:    PAW_PBE C 08Apr2002                   
   SHA256 =  253f7b50bb8d59471dbedb8285d89021f4a42ed1a2c5d38a03a736e69125dd95 C/POTCAR              
   COPYR  = (c) Copyright 08Apr2002 Georg Kresse                                                    
   COPYR  = This file is part of the software VASP. Any use, copying, and all other rights are regul
   COPYR  = If you do not have a valid VASP license, you may not use, copy or distribute this file. 
   VRHFIN =C: s2p2                                                                                  
   LEXCH  = PE                                                                                      
   EATOM  =   147.1560 eV,   10.8157 Ry                                                             
                                                                                                    
   TITEL  = PAW_PBE C 08Apr2002                                                                     
   LULTRA =        F    use ultrasoft PP ?                                                          
   IUNSCR =        1    unscreen: 0-lin 1-nonlin 2-no                                               
   RPACOR =    1.200    partial core radius                                                         
   POMASS =   12.011; ZVAL   =    4.000    mass and valenz                                          
   RCORE  =    1.500    outmost cutoff radius                                                       
   RWIGS  =    1.630; RWIGS  =    0.863    wigner-seitz radius (au A)                               
   ENMAX  =  400.000; ENMIN  =  300.000 eV                                                          
   ICORE  =        2    local potential                                                             
   LCOR   =        T    correct aug charges                                                         
   LPAW   =        T    paw PP                                                                      
   EAUG   =  644.873                                                                                
   DEXC   =    0.000                                                                                
   RMAX   =    1.529    core radius for proj-oper                                                   
   RAUG   =    1.300    factor for augmentation sphere                                              
   RDEP   =    1.501    radius for radial grids                                                     
   RDEPT  =    1.300    core radius for aug-charge                                                  
                                                                                                    
   Atomic configuration                                                                             
    4 entries                                                                                       
     n  l   j            E        occ.                                                              
     1  0  0.50      -273.3789   2.0000                                                             
     2  0  0.50       -13.7508   2.0000                                                             
     2  1  0.50        -5.2854   2.0000                                                             
     3  2  1.50        -5.4423   0.0000                                                             
   Description                                                                                      
     l       E           TYP  RCUT    TYP  RCUT                                                     
     0    -13.7508458     23  1.200                                                                 
     0     -8.2022199     23  1.200                                                                 
     1     -5.2854383     23  1.500                                                                 
     1     34.0145650     23  1.500                                                                 
     2     -5.4423304      7  1.500                                                                 
  local pseudopotential read in
  partial core-charges read in
  partial kinetic energy density read in
  atomic valenz-charges read in
  non local Contribution for L=           0  read in
    real space projection operators read in
  non local Contribution for L=           0  read in
    real space projection operators read in
  non local Contribution for L=           1  read in
    real space projection operators read in
  non local Contribution for L=           1  read in
    real space projection operators read in
    PAW grid and wavefunctions read in
 
   number of l-projection  operators is LMAX  =           4
   number of lm-projection operators is LMMAX =           8
 
 POTCAR:    PAW_PBE Cl 06Sep2000                  
   SHA256 =  9f1b6e6ed4247ac726a768b330d26d7667cc3c95a39ff49c1d064c2d9dcce931 Cl/POTCAR             
   COPYR  = (c) Copyright 06Sep2000 Georg Kresse                                                    
   COPYR  = This file is part of the software VASP. Any use, copying, and all other rights are regul
   COPYR  = If you do not have a valid VASP license, you may not use, copy or distribute this file. 
   VRHFIN =Cl: s2p5                                                                                 
   LEXCH  = PE                                                                                      
   EATOM  =   409.7259 eV,   30.1140 Ry                                                             
                                                                                                    
   TITEL  = PAW_PBE Cl 06Sep2000                                                                    
   LULTRA =        F    use ultrasoft PP ?                                                          
   IUNSCR =        1    unscreen: 0-lin 1-nonlin 2-no                                               
   RPACOR =    1.500    partial core radius                                                         
   POMASS =   35.453; ZVAL   =    7.000    mass and valenz                                          
   RCORE  =    1.900    outmost cutoff radius                                                       
   RWIGS  =    2.100; RWIGS  =    1.111    wigner-seitz radius (au A)                               
   ENMAX  =  262.472; ENMIN  =  196.854 eV                                                          
   ICORE  =        2    local potential                                                             
   LCOR   =        T    correct aug charges                                                         
   LPAW   =        T    paw PP                                                                      
   EAUG   =  356.192                                                                                
   DEXC   =    0.000                                                                                
   RMAX   =    1.945    core radius for proj-oper                                                   
   RAUG   =    1.300    factor for augmentation sphere                                              
   RDEP   =    2.020    radius for radial grids                                                     
   RDEPT  =    1.678    core radius for aug-charge                                                  
                                                                                                    
   Atomic configuration                                                                             
    6 entries                                                                                       
     n  l   j            E        occ.                                                              
     1  0  0.50     -2751.1850   2.0000                                                             
     2  0  0.50      -252.6861   2.0000                                                             
     2  1  1.50      -191.6157   6.0000                                                             
     3  0  0.50       -20.6916   2.0000                                                             
     3  1  0.50        -8.5949   5.0000                                                             
     3  2  1.50        -8.1635   0.0000                                                             
   Description                                                                                      
     l       E           TYP  RCUT    TYP  RCUT                                                     
     0    -20.6915656     23  1.900                                                                 
     0    -22.0521482     23  1.900                                                                 
     1     -8.5948577     23  1.900                                                                 
     1     -5.3847331     23  1.900                                                                 
     2     -8.1634956     23  1.900                                                                 
  local pseudopotential read in
  partial core-charges read in
  partial kinetic energy density read in
  atomic valenz-charges read in
  non local Contribution for L=           0  read in
    real space projection operators read in
  non local Contribution for L=           0  read in
    real space projection operators read in
  non local Contribution for L=           1  read in
    real space projection operators read in
  non local Contribution for L=           1  read in
    real space projection operators read in
    PAW grid and wavefunctions read in
 
   number of l-projection  operators is LMAX  =           4
   number of lm-projection operators is LMMAX =           8
 
 POTCAR:    PAW_PBE O 08Apr2002                   
   SHA256 =  818f92134a0a090dccd8ba1447fa70422a3b330e708bb4f08108d8ae51209ddf O/POTCAR              
   COPYR  = (c) Copyright 08Apr2002 Georg Kresse                                                    
   COPYR  = This file is part of the software VASP. Any use, copying, and all other rights are regul
   COPYR  = If you do not have a valid VASP license, you may not use, copy or distribute this file. 
   VRHFIN =O: s2p4                                                                                  
   LEXCH  = PE                                                                                      
   EATOM  =   432.3788 eV,   31.7789 Ry                                                             
                                                                                                    
   TITEL  = PAW_PBE O 08Apr2002                                                                     
   LULTRA =        F    use ultrasoft PP ?                                                          
   IUNSCR =        1    unscreen: 0-lin 1-nonlin 2-no                                               
   RPACOR =    1.200    partial core radius                                                         
   POMASS =   16.000; ZVAL   =    6.000    mass and valenz                                          
   RCORE  =    1.520    outmost cutoff radius                                                       
   RWIGS  =    1.550; RWIGS  =    0.820    wigner-seitz radius (au A)                               
   ENMAX  =  400.000; ENMIN  =  300.000 eV                                                          
   ICORE  =        2    local potential                                                             
   LCOR   =        T    correct aug charges                                                         
   LPAW   =        T    paw PP                                                                      
   EAUG   =  605.392                                                                                
   DEXC   =    0.000                                                                                
   RMAX   =    1.553    core radius for proj-oper                                                   
   RAUG   =    1.300    factor for augmentation sphere                                              
   RDEP   =    1.550    radius for radial grids                                                     
   RDEPT  =    1.329    core radius for aug-charge                                                  
                                                                                                    
   Atomic configuration                                                                             
    4 entries                                                                                       
     n  l   j            E        occ.                                                              
     1  0  0.50      -514.6923   2.0000                                                             
     2  0  0.50       -23.9615   2.0000                                                             
     2  1  0.50        -9.0305   4.0000                                                             
     3  2  1.50        -9.5241   0.0000                                                             
   Description                                                                                      
     l       E           TYP  RCUT    TYP  RCUT                                                     
     0    -23.9615318     23  1.200                                                                 
     0     -9.5240782     23  1.200                                                                 
     1     -9.0304911     23  1.520                                                                 
     1      8.1634956     23  1.520                                                                 
     2     -9.5240782      7  1.500                                                                 
  local pseudopotential read in
  partial core-charges read in
  partial kinetic energy density read in
  kinetic energy density of atom read in
  atomic valenz-charges read in
  non local Contribution for L=           0  read in
    real space projection operators read in
  non local Contribution for L=           0  read in
    real space projection operators read in
  non local Contribution for L=           1  read in
    real space projection operators read in
  non local Contribution for L=           1  read in
    real space projection operators read in
    PAW grid and wavefunctions read in
 
   number of l-projection  operators is LMAX  =           4
   number of lm-projection operators is LMMAX =           8
 
 POTCAR:    PAW_PBE H 15Jun2001                   
   SHA256 =  030f79b5d3ab3cf0e668861823c8fb652ff669f3e15e46930bd03bfd63a607b6 H/POTCAR              
   COPYR  = (c) Copyright 15Jun2001 Georg Kresse                                                    
   COPYR  = This file is part of the software VASP. Any use, copying, and all other rights are regul
   COPYR  = If you do not have a valid VASP license, you may not use, copy or distribute this file. 
   VRHFIN =H: ultrasoft test                                                                        
   LEXCH  = PE                                                                                      
   EATOM  =    12.4884 eV,    0.9179 Ry                                                             
                                                                                                    
   TITEL  = PAW_PBE H 15Jun2001                                                                     
   LULTRA =        F    use ultrasoft PP ?                                                          
   IUNSCR =        0    unscreen: 0-lin 1-nonlin 2-no                                               
   RPACOR =    0.000    partial core radius                                                         
   POMASS =    1.000; ZVAL   =    1.000    mass and valenz                                          
   RCORE  =    1.100    outmost cutoff radius                                                       
   RWIGS  =    0.700; RWIGS  =    0.370    wigner-seitz radius (au A)                               
   ENMAX  =  250.000; ENMIN  =  200.000 eV                                                          
   RCLOC  =    0.701    cutoff for local pot                                                        
   LCOR   =        T    correct aug charges                                                         
   LPAW   =        T    paw PP                                                                      
   EAUG   =  400.000                                                                                
   RMAX   =    1.123    core radius for proj-oper                                                   
   RAUG   =    1.200    factor for augmentation sphere                                              
   RDEP   =    1.112    radius for radial grids                                                     
   RDEPT  =    0.926    core radius for aug-charge                                                  
                                                                                                    
   Atomic configuration                                                                             
    2 entries                                                                                       
     n  l   j            E        occ.                                                              
     1  0  0.50        -6.4927   1.0000                                                             
     2  1  0.50        -3.4015   0.0000                                                             
   Description                                                                                      
     l       E           TYP  RCUT    TYP  RCUT                                                     
     0     -6.4927494     23  1.100                                                                 
     0      6.8029130     23  1.100                                                                 
     1     -4.0817478     23  1.100                                                                 
  local pseudopotential read in
  atomic valenz-charges read in
  non local Contribution for L=           0  read in
    real space projection operators read in
  non local Contribution for L=           0  read in
    real space projection operators read in
  non local Contribution for L=           1  read in
    real space projection operators read in
    PAW grid and wavefunctions read in
 
   number of l-projection  operators is LMAX  =           3
   number of lm-projection operators is LMMAX =           5
 
 Optimization of the real space projectors (new method)

 maximal supplied QI-value         = 25.13
 optimisation between [QCUT,QGAM] = [ 11.31, 22.87] = [ 35.82,146.48] Ry 
 Optimized for a Real-space Cutoff    1.03 Angstroem

   l    n(q)    QCUT    max X(q) W(low)/X(q) W(high)/X(q)  e(spline) 
   0      7    11.310   115.676    0.20E-03    0.90E-03    0.20E-06
   0      7    11.310    87.132    0.20E-03    0.89E-03    0.19E-06
   1      6    11.310     4.429    0.16E-03    0.28E-03    0.12E-06
   1      6    11.310     2.733    0.12E-03    0.21E-03    0.99E-07
 Optimization of the real space projectors (new method)

 maximal supplied QI-value         = 19.84
 optimisation between [QCUT,QGAM] = [ 11.31, 22.82] = [ 35.82,145.81] Ry 
 Optimized for a Real-space Cutoff    1.20 Angstroem

   l    n(q)    QCUT    max X(q) W(low)/X(q) W(high)/X(q)  e(spline) 
   0      8    11.310   168.010    0.15E-03    0.18E-03    0.47E-07
   0      8    11.310   164.674    0.14E-03    0.17E-03    0.46E-07
   1      8    11.310    69.222    0.18E-03    0.20E-03    0.94E-07
   1      8    11.310    56.786    0.17E-03    0.19E-03    0.92E-07
 Optimization of the real space projectors (new method)

 maximal supplied QI-value         = 24.76
 optimisation between [QCUT,QGAM] = [ 11.39, 22.77] = [ 36.31,145.25] Ry 
 Optimized for a Real-space Cutoff    1.10 Angstroem

   l    n(q)    QCUT    max X(q) W(low)/X(q) W(high)/X(q)  e(spline) 
   0      7    11.387    20.381    0.22E-03    0.48E-03    0.18E-06
   0      7    11.387    15.268    0.22E-03    0.52E-03    0.19E-06
   1      7    11.387     5.964    0.22E-03    0.73E-03    0.24E-06
   1      7    11.387     5.382    0.19E-03    0.60E-03    0.21E-06
 Optimization of the real space projectors (new method)

 maximal supplied QI-value         = 34.20
 optimisation between [QCUT,QGAM] = [ 11.29, 22.57] = [ 35.68,142.71] Ry 
 Optimized for a Real-space Cutoff    1.20 Angstroem

   l    n(q)    QCUT    max X(q) W(low)/X(q) W(high)/X(q)  e(spline) 
   0      8    11.287    19.460    0.22E-03    0.50E-03    0.19E-06
   0      8    11.287    12.209    0.21E-03    0.48E-03    0.18E-06
   1      8    11.287     4.655    0.21E-03    0.11E-04    0.26E-06
  PAW_PBE C 08Apr2002                   :
 energy of atom  1       EATOM= -147.1560
 kinetic energy error for atom=    0.0076 (will be added to EATOM!!)
  PAW_PBE Cl 06Sep2000                  :
 energy of atom  2       EATOM= -409.7259
 kinetic energy error for atom=    0.0030 (will be added to EATOM!!)
  PAW_PBE O 08Apr2002                   :
 energy of atom  3       EATOM= -432.3788
 kinetic energy error for atom=    0.0224 (will be added to EATOM!!)
  PAW_PBE H 15Jun2001                   :
 energy of atom  4       EATOM=  -12.4884
 kinetic energy error for atom=    0.0020 (will be added to EATOM!!)
 
 
 POSCAR: C Cl O H
  positions in direct lattice
  velocities in cartesian coordinates
 exchange correlation table for  LEXCH =        8
   RHO(1)=    0.500       N(1)  =     2000
   RHO(2)=  100.500       N(2)  =     4000
 


--------------------------------------------------------------------------------------------------------


 ion  position               nearest neighbor table
   1  0.497  0.469  0.500-  14 1.09   2 1.39   6 1.44
   2  0.463  0.476  0.500-  13 1.09   1 1.39   3 1.41
   3  0.452  0.510  0.500-  12 1.09   2 1.41   4 1.41
   4  0.476  0.536  0.500-  11 1.09   5 1.39   3 1.41
   5  0.510  0.529  0.500-  10 1.09   4 1.39   6 1.44
   6  0.522  0.495  0.500-   7 1.42   5 1.44   1 1.44
   7  0.556  0.485  0.500-   9 1.24   6 1.42   8 1.93
   8  0.587  0.521  0.500-   7 1.93
   9  0.569  0.456  0.500-   7 1.24
  10  0.528  0.549  0.500-   5 1.09
  11  0.468  0.562  0.500-   4 1.09
  12  0.425  0.516  0.500-   3 1.09
  13  0.445  0.456  0.500-   2 1.09
  14  0.505  0.443  0.500-   1 1.09
 
  LATTYP: Found a simple cubic cell.
 ALAT       =    40.0000000000
  
  Lattice vectors:
  
 A1 = (  40.0000000000,   0.0000000000,   0.0000000000)
 A2 = (   0.0000000000,  40.0000000000,   0.0000000000)
 A3 = (   0.0000000000,   0.0000000000,  40.0000000000)


Analysis of symmetry for initial positions (statically):
=====================================================================
 Subroutine PRICEL returns:
 Original cell was already a primitive cell.
 

 Routine SETGRP: Setting up the symmetry group for a 
 simple cubic supercell.


 Subroutine GETGRP returns: Found  1 space group operations
 (whereof  1 operations were pure point group operations)
 out of a pool of 48 trial point group operations.


The static configuration has the point symmetry C_1 .


Analysis of symmetry for dynamics (positions and initial velocities):
=====================================================================
 Subroutine PRICEL returns:
 Original cell was already a primitive cell.
 

 Routine SETGRP: Setting up the symmetry group for a 
 simple cubic supercell.


 Subroutine GETGRP returns: Found  1 space group operations
 (whereof  1 operations were pure point group operations)
 out of a pool of 48 trial point group operations.


The dynamic configuration has the point symmetry C_1 .


Analysis of constrained symmetry for selective dynamics:
=====================================================================
 Subroutine PRICEL returns:
 Original cell was already a primitive cell.
 

 Routine SETGRP: Setting up the symmetry group for a 
 simple cubic supercell.


 Subroutine GETGRP returns: Found  1 space group operations
 (whereof  1 operations were pure point group operations)
 out of a pool of 48 trial point group operations.


The constrained configuration has the point symmetry C_1 .


Analysis of structural, dynamic, and magnetic symmetry:
=====================================================================
 Subroutine PRICEL returns:
 Original cell was already a primitive cell.
 

 Routine SETGRP: Setting up the symmetry group for a 
 simple cubic supercell.


 Subroutine GETGRP returns: Found  1 space group operations
 (whereof  1 operations were pure point group operations)
 out of a pool of 48 trial point group operations.


The overall configuration has the point symmetry C_1 .


 Subroutine INISYM returns: Found  1 space group operations
 (whereof  1 operations are pure point group operations),
 and found     1 'primitive' translations


----------------------------------------------------------------------------------------

                                     Primitive cell                                     

  volume of cell :   64000.0000

  direct lattice vectors                    reciprocal lattice vectors
    40.000000000  0.000000000  0.000000000     0.025000000  0.000000000  0.000000000
     0.000000000 40.000000000  0.000000000     0.000000000  0.025000000  0.000000000
     0.000000000  0.000000000 40.000000000     0.000000000  0.000000000  0.025000000

  length of vectors
    40.000000000 40.000000000 40.000000000     0.025000000  0.025000000  0.025000000

  position of ions in fractional coordinates (direct lattice)
     0.496693778  0.468648325  0.499981487
     0.462889779  0.476317238  0.499982591
     0.451671263  0.509753355  0.499995022
     0.475798841  0.535518340  0.500015442
     0.509767185  0.528506833  0.500018536
     0.521693131  0.494668037  0.500001523
     0.555668158  0.484545619  0.500004992
     0.587040251  0.521054259  0.500014079
     0.568650046  0.456328048  0.499996572
     0.527783967  0.548943191  0.500031416
     0.467689034  0.561620473  0.500025687
     0.425032558  0.515554208  0.499992757
     0.444717435  0.455904169  0.499967494
     0.504903574  0.442638904  0.499972404

  ion indices of the primitive-cell ions
   primitive index   ion index
                 1           1
                 2           2
                 3           3
                 4           4
                 5           5
                 6           6
                 7           7
                 8           8
                 9           9
                10          10
                11          11
                12          12
                13          13
                14          14

----------------------------------------------------------------------------------------

 
 
 KPOINTS: K-Point Grid                            

Automatic generation of k-mesh.
 Grid dimensions read from file:
 generate k-points for:    1    1    1

 Generating k-lattice:

  Cartesian coordinates                     Fractional coordinates (reciprocal lattice)
     0.025000000  0.000000000  0.000000000     1.000000000  0.000000000  0.000000000
     0.000000000  0.025000000  0.000000000     0.000000000  1.000000000  0.000000000
     0.000000000  0.000000000  0.025000000     0.000000000  0.000000000  1.000000000

  Length of vectors
     0.025000000  0.025000000  0.025000000

  Shift w.r.t. Gamma in fractional coordinates (k-lattice)
     0.000000000  0.000000000  0.000000000

 
 Subroutine IBZKPT returns following result:
 ===========================================
 
 Found      1 irreducible k-points:
 
 Following reciprocal coordinates:
            Coordinates               Weight
  0.000000  0.000000  0.000000      1.000000
 
 Following cartesian coordinates:
            Coordinates               Weight
  0.000000  0.000000  0.000000      1.000000
 
 
 Subroutine IBZKPT_HF returns following result:
 ==============================================
 
 Found      1 k-points in 1st BZ
 the following      1 k-points will be used (e.g. in the exchange kernel)
 Following reciprocal coordinates:   # in IRBZ
  0.000000  0.000000  0.000000    1.00000000   1 t-inv F


--------------------------------------------------------------------------------------------------------




 Dimension of arrays:
   k-points           NKPTS =      1   k-points in BZ     NKDIM =      1   number of bands    NBANDS=     39
   number of dos      NEDOS =    301   number of ions     NIONS =     14
   non local maximal  LDIM  =      4   non local SUM 2l+1 LMDIM =      8
   total plane-waves  NPLWV = ******
   max r-space proj   IRMAX =   2915   max aug-charges    IRDMAX=  11613
   dimension x,y,z NGX =   294 NGY =  294 NGZ =  294
   dimension x,y,z NGXF=   588 NGYF=  588 NGZF=  588
   support grid    NGXF=   588 NGYF=  588 NGZF=  588
   ions per type =               7   1   1   5
   NGX,Y,Z   is equivalent  to a cutoff of  12.22, 12.22, 12.22 a.u.
   NGXF,Y,Z  is equivalent  to a cutoff of  24.44, 24.44, 24.44 a.u.

 SYSTEM =  113_red                                 
 POSCAR =  C Cl O H                                

 Startparameter for this run:
   NWRITE =      2    write-flag & timer
   PREC   = accura    normal or accurate (medium, high low for compatibility)
   ISTART =      1    job   : 0-new  1-cont  2-samecut
   ICHARG =      2    charge: 1-file 2-atom 10-const
   ISPIN  =      2    spin polarized calculation?
   LNONCOLLINEAR =      F non collinear calculations
   LSORBIT =      F    spin-orbit coupling
   INIWAV =      1    electr: 0-lowe 1-rand  2-diag
   LASPH  =      F    aspherical Exc in radial PAW
 Electronic Relaxation 1
   ENCUT  =  500.0 eV  36.75 Ry    6.06 a.u.  72.93 72.93 72.93*2*pi/ulx,y,z
   ENINI  =  500.0     initial cutoff
   ENAUG  =  644.9 eV  augmentation charge cutoff
   NELM   =    500;   NELMIN=  2; NELMDL=  0     # of ELM steps 
   EDIFF  = 0.1E-04   stopping-criterion for ELM
   LREAL  =      T    real-space projection
   NLSPLINE    = F    spline interpolate recip. space projectors
   LCOMPAT=      F    compatible to vasp.4.4
   GGA_COMPAT  = T    GGA compatible to vasp.4.4-vasp.4.6
   LMAXPAW     = -100 max onsite density
   LMAXMIX     =    2 max onsite mixed and CHGCAR
   VOSKOWN=      0    Vosko Wilk Nusair interpolation
   ROPT   =   -0.00025  -0.00025  -0.00025  -0.00025
 Ionic relaxation
   EDIFFG = -.2E-01   stopping-criterion for IOM
   NSW    =      0    number of steps for IOM
   NBLOCK =      1;   KBLOCK =      1    inner block; outer block 
   IBRION =     -1    ionic relax: 0-MD 1-quasi-New 2-CG
   NFREE  =      1    steps in history (QN), initial steepest desc. (CG)
   ISIF   =      2    stress and relaxation
   IWAVPR =     10    prediction:  0-non 1-charg 2-wave 3-comb
   ISYM   =      3    0-nonsym 1-usesym 2-fastsym
   LCORR  =      T    Harris-Foulkes like correction to forces

   POTIM  = 0.5000    time-step for ionic-motion
   TEIN   =    0.0    initial temperature
   TEBEG  =    0.0;   TEEND  =   0.0 temperature during run
   SMASS  =  -3.00    Nose mass-parameter (am)
   estimated Nose-frequenzy (Omega)   =  0.10E-29 period in steps = 0.13E+47 mass=  -0.366E-25a.u.
   SCALEE = 1.0000    scale energy and forces
   NPACO  =    256;   APACO  = 10.0  distance and # of slots for P.C.
   PSTRESS=    0.0 pullay stress

  Mass of Ions in am
   POMASS =  12.01 35.45 16.00  1.00
  Ionic Valenz
   ZVAL   =   4.00  7.00  6.00  1.00
  Atomic Wigner-Seitz radii
   RWIGS  =  -1.00 -1.00 -1.00 -1.00
  virtual crystal weights 
   VCA    =   1.00  1.00  1.00  1.00
   NELECT =      47.0000    total number of electrons
   NUPDOWN=      -1.0000    fix difference up-down

 DOS related values:
   EMIN   =  10.00;   EMAX   =-10.00  energy-range for DOS
   EFERMI =   0.00;   METHOD = LEGACY      
   ISMEAR =     0;   SIGMA  =   0.05  broadening in eV -4-tet -1-fermi 0-gaus

 Electronic relaxation 2 (details)
   IALGO  =     53    algorithm
   LDIAG  =      F    sub-space diagonalisation (order eigenvalues)
   LSUBROT=      F    optimize rotation matrix (better conditioning)
   TURBO    =      0    0=normal 1=particle mesh
   IRESTART =      0    0=no restart 2=restart with 2 vectors
   NREBOOT  =      0    no. of reboots
   NMIN     =      0    reboot dimension
   EREF     =   0.00    reference energy to select bands
   IMIX   =      4    mixing-type and parameters
     AMIX     =   0.40;   BMIX     =  1.00
     AMIX_MAG =   1.60;   BMIX_MAG =  1.00
     AMIN     =   0.10
     WC   =   100.;   INIMIX=   1;  MIXPRE=   1;  MAXMIX= -45

 Intra band minimization:
   WEIMIN = 0.0000     energy-eigenvalue tresh-hold
   EBREAK =  0.64E-07  absolut break condition
   DEPER  =   0.30     relativ break condition  

   TIME   =   0.40     timestep for ELM

  volume/ion in A,a.u.               =    4571.43     30849.52
  Fermi-wavevector in a.u.,A,eV,Ry     =   0.147700  0.279113  0.296815  0.021815
  Thomas-Fermi vector in A             =   0.819491
 
 Write flags
   LWAVE        =      T    write WAVECAR
   LDOWNSAMPLE  =      F    k-point downsampling of WAVECAR
   LCHARG       =      F    write CHGCAR
   LVTOT        =      F    write LOCPOT, total local potential
   LVHAR        =      F    write LOCPOT, Hartree potential only
   LELF         =      F    write electronic localiz. function (ELF)
   LORBIT       =      0    0 simple, 1 ext, 2 COOP (PROOUT), +10 PAW based schemes


 Dipole corrections
   LMONO  =      F    monopole corrections only (constant potential shift)
   LDIPOL =      F    correct potential (dipole corrections)
   IDIPOL =      0    1-x, 2-y, 3-z, 4-all directions 
   EPSILON=  1.0000000 bulk dielectric constant

 Exchange correlation treatment:
   GGA     =    --    GGA type
   LEXCH   =     8    internal setting for exchange type
   LIBXC   =     F    Libxc                    
   VOSKOWN =     0    Vosko Wilk Nusair interpolation
   EXXOEP  =     0    0=HF, 1=EXX-LHF (local Hartree Fock) 2=EXX OEP
   LHFCALC =     T    Hartree Fock is set to
   LSYMGRAD=     F    symmetrize gradient (conserves proper symmetry)
   PRECFOCK=normal    Normal, Fast or Accurate (Low or Medium for compatibility)
   LRHFCALC=     F    long range Hartree Fock
   LRSCOR  =     F    long range correlation only (use DFT for short range part)
   LTHOMAS =     F    Thomas Fermi screening in HF
   LMODELHF=     F    short range full HF, long range fraction AEXX
   FOCKCORR=     1    mode to apply convergence corrections
   LFOCKACE=     F    use Adeptively-Compressed-Exchange operator
   ENCUT4O =  -1.0   cutoff for four orbital integrals eV
   LMAXFOCK=     4    L truncation for augmentation on plane wave grid
   LMAXFOCKAE=  -1    L truncation for all-electron charge restoration on plane wave grid
   NMAXFOCKAE=   1    number of basis functions for all-electron charge restoration
   LFOCKAEDFT=     F  apply the AE augmentation even for DFT
   NKREDX  =     1    reduce k-point grid by
   NKREDY  =     1    reduce k-point grid by
   NKREDZ  =     1    reduce k-point grid by
   SHIFTRED=     F    shift reduced grid of Gamma
   HFKIDENT=     F    idential grid for each k-point
   ODDONLY =     F    use only odd q-grid points
   EVENONLY=     F    use only even q-grid points
   HFALPHA =   -1.0000 decay constant for conv. correction
   MCALPHA =    0.0000 extent of test-charge in conv. correction in multipole expansion
   AEXX    =    0.2500 exact exchange contribution
   HFSCREEN=    0.2000 screening length (either q_TF or 0.3 A-1)
   HFSCREENC=   0.2000 screening length for correlation (either q_TF or 0.3 A-1)
   HFRCUT  =    0.0000 spherical cutoff for potential kernel
   ALDAX   =    0.7500 LDA exchange part
   AGGAX   =    0.7500 GGA exchange part
   ALDAC   =    1.0000 LDA correlation
   AGGAC   =    1.0000 GGA correlation
   ENCUTFOCK=  -1.0 apply spherical cutoff to Coloumb kernel
   NBANDSGWLOW=     1    first orbital included in HF term
   NBLOCK_FOCK=    64    blocking factor in FOCK_ACC

 Linear response parameters
   LEPSILON=     F    determine dielectric tensor
   LRPA    =     F    only Hartree local field effects (RPA)
   LNABLA  =     F    use nabla operator in PAW spheres
   LVEL    =     F    velocity operator in full k-point grid
   CSHIFT  =0.1000    complex shift for real part using Kramers Kronig
   OMEGAMAX=  -1.0    maximum frequency
   DEG_THRESHOLD= 0.2000000E-02 threshold for treating states as degnerate
   RTIME   =   -0.100 relaxation time in fs
  (WPLASMAI=    0.000 imaginary part of plasma frequency in eV, 0.658/RTIME)
   DFIELD  = 0.0000000 0.0000000 0.0000000 field for delta impulse in time
 
  Optional k-point grid parameters
   LKPOINTS_OPT  =     F    use optional k-point grid
   KPOINTS_OPT_MODE=     1    mode for optional k-point grid
 
 Orbital magnetization related:
   ORBITALMAG=     F  switch on orbital magnetization
   LCHIMAG   =     F  perturbation theory with respect to B field
   DQ        =  0.001000  dq finite difference perturbation B field
   LLRAUG    =     F  two centre corrections for induced B field
   LBONE     =     F  B-component reconstruction in AE one-centre
   LVGVCALC  =     T  calculate vGv susceptibility
   LVGVAPPL  =     F  apply vGv susceptibility instead of pGv for G=0

 Random number generation:
   RANDOM_GENERATOR = DEFAULT
   PCG_SEED         = not used
 Solvation model:
   LSOL    =     T         switch on solvation model
   EB_K    = 35.688000     relative permittivity of the bulk solvent
   SIGMA_K =  0.600000     width of the dielectric cavity
   NC_K    =  0.002500     cutoff charge density
   TAU     =  0.000000     cavity surface tension
   LAMBDA_D_K    =  3.040000     Debye length in Angstroms
   LRHOB     =     F     write boundcharge  density
   LRHOION     =     F     write ioniccharge density



--------------------------------------------------------------------------------------------------------


 Static calculation
 charge density and potential will be updated during run
 spin polarized calculation
 Conjugate gradient for all bands (Kresse, et al. variant)
 perform Loewdin sub-space diagonalisation
    ordering is kept fixed
    before iterative eigenvector-optimisation
 modified Broyden-mixing scheme, WC =      100.0
 initial mixing is a Kerker type mixing with AMIX =  0.4000 and BMIX =      1.0000
 Hartree-type preconditioning will be used
 using additional bands           15
 real space projection scheme for non local part
 use partial core corrections
 no Harris-corrections to forces 
 use gradient corrections 
 use of overlap-Matrix (Vanderbilt PP)
 Gauss-broadening in eV      SIGMA  =   0.05


--------------------------------------------------------------------------------------------------------


  energy-cutoff  :      500.00
  volume of cell :    64000.00
      direct lattice vectors                 reciprocal lattice vectors
    40.000000000  0.000000000  0.000000000     0.025000000  0.000000000  0.000000000
     0.000000000 40.000000000  0.000000000     0.000000000  0.025000000  0.000000000
     0.000000000  0.000000000 40.000000000     0.000000000  0.000000000  0.025000000

  length of vectors
    40.000000000 40.000000000 40.000000000     0.025000000  0.025000000  0.025000000


 
 old parameters found on file WAVECAR:
  energy-cutoff  :      500.00
  volume of cell :    64000.00
      direct lattice vectors                 reciprocal lattice vectors
    40.000000000  0.000000000  0.000000000     0.025000000  0.000000000  0.000000000
     0.000000000 40.000000000  0.000000000     0.000000000  0.025000000  0.000000000
     0.000000000  0.000000000 40.000000000     0.000000000  0.000000000  0.025000000

  length of vectors

 
 k-points in units of 2pi/SCALE and weight: K-Point Grid                            
   0.00000000  0.00000000  0.00000000       1.000
 
 k-points in reciprocal lattice and weights: K-Point Grid                            
   0.00000000  0.00000000  0.00000000       1.000
 
 position of ions in fractional coordinates (direct lattice) 
   0.49669378  0.46864832  0.49998149
   0.46288978  0.47631724  0.49998259
   0.45167126  0.50975336  0.49999502
   0.47579884  0.53551834  0.50001544
   0.50976719  0.52850683  0.50001854
   0.52169313  0.49466804  0.50000152
   0.55566816  0.48454562  0.50000499
   0.58704025  0.52105426  0.50001408
   0.56865005  0.45632805  0.49999657
   0.52778397  0.54894319  0.50003142
   0.46768903  0.56162047  0.50002569
   0.42503256  0.51555421  0.49999276
   0.44471744  0.45590417  0.49996749
   0.50490357  0.44263890  0.49997240
 
 position of ions in cartesian coordinates  (Angst):
  19.86775111 18.74593299 19.99925949
  18.51559114 19.05268952 19.99930363
  18.06685051 20.39013421 19.99980086
  19.03195365 21.42073361 20.00061767
  20.39068740 21.14027333 20.00074143
  20.86772522 19.78672148 20.00006092
  22.22672630 19.38182477 20.00019968
  23.48161006 20.84217037 20.00056316
  22.74600184 18.25312191 19.99986286
  21.11135870 21.95772764 20.00125662
  18.70756137 22.46481892 20.00102746
  17.00130233 20.62216830 19.99971027
  17.78869741 18.23616677 19.99869977
  20.19614295 17.70555618 19.99889617
 


--------------------------------------------------------------------------------------------------------


 k-point   1 :   0.0000 0.0000 0.0000  plane waves: 1624525

 maximum and minimum number of plane-waves per node :     54169    54136

 maximum number of plane-waves:   1624525
 maximum index in each direction: 
   IXMAX=   72   IYMAX=   72   IZMAX=   72
   IXMIN=  -72   IYMIN=  -72   IZMIN=  -72


 real space projection operators:
  total allocation   :       1631.01 KBytes
  max/ min on nodes  :         71.92         42.70


 parallel 3D FFT for wavefunctions:
    minimum data exchange during FFTs selected (reduces bandwidth)
 parallel 3D FFT for charge:
    minimum data exchange during FFTs selected (reduces bandwidth)


 FFT grid for exact exchange (Hartree Fock) 
  NGX =224; NGY =224; NGZ =224

 
 Radii for the augmentation spheres in the non-local exchange
 for species   1 augmentation radius   0.874 (default was   0.699)
       energy cutoff for augmentation   2000.0
 for species   2 augmentation radius   1.176 (default was   0.941)
       energy cutoff for augmentation   2000.0
 for species   3 augmentation radius   0.902 (default was   0.722)
       energy cutoff for augmentation   2000.0
 for species   4 augmentation radius   0.650 (default was   0.520)
       energy cutoff for augmentation   2000.0

 real space projection operators:
  total allocation   :        434.04 KBytes
  max/ min on nodes  :         24.33          4.50

 Maximum index for augmentation-charges in exchange           43
  SETUP_FOCK is finished

 total amount of memory used by VASP MPI-rank0   530080. kBytes
=======================================================================

   base      :      30000. kBytes
   nonlr-proj:       1051. kBytes
   fftplans  :     129164. kBytes
   grid      :     302241. kBytes
   one-center:          6. kBytes
   HF        :          4. kBytes
   wavefun   :      67614. kBytes
 
     INWAV:  cpu time     11.3116: real time     11.3299
 Broyden mixing: mesh for mixing (old mesh)
   NGX =145   NGY =145   NGZ =145
  (NGX  =588   NGY  =588   NGZ  =588)
  gives a total of ****** points

 initial charge density was supplied:
 charge density of overlapping atoms calculated
 number of electron      46.0000000 magnetization      14.0000000
 charge density for first step will be calculated from the start-wavefunctions


--------------------------------------------------------------------------------------------------------


 Maximum index for non-local projection operator          232
 Maximum index for augmentation-charges          316 (set IRDMAX)


--------------------------------------------------------------------------------------------------------


 initial charge from wavefunction
 First call to EWALD:  gamma=   0.044
 Maximum number of real-space cells 3x 3x 3
 Maximum number of reciprocal cells 3x 3x 3

    FEWALD:  cpu time      0.0066: real time      0.0066


--------------------------------------- Ionic step        1  -------------------------------------------




--------------------------------------- Iteration      1(   1)  ---------------------------------------


    POTLOK:  cpu time    592.1284: real time    592.1637
    SETDIJ:  cpu time      0.1265: real time      0.1265
    TRIAL :  cpu time    133.8387: real time    133.8391
    CORREC:  cpu time      0.0127: real time      0.0127
    CHARGE:  cpu time      3.8342: real time      3.8342
    --------------------------------------------
      LOOP:  cpu time    729.9888: real time    730.0289

 eigenvalue-minimisations  :     0
 total energy-change (2. order) :-0.1085579E+03  (-0.6502702E-05)
 number of electron      47.0000001 magnetization       1.0000001
 augmentation part        0.4313058 magnetization       0.0872712

 Free energy of the ion-electron system (eV)
  ---------------------------------------------------
  alpha Z        PSCENC =         0.15041143
  Ewald energy   TEWEN  =      4235.75152180
  -Hartree energ DENC   =     -6012.54989019
  -exchange      EXHF   =       107.21619391
  -V(xc)+E(xc)   XCENC  =       122.55558482
  PAW double counting   =      4208.90462260    -4213.51720886
  entropy T*S    EENTRO =        -0.00000000
  eigenvalues    EBANDS =      -614.28431819
  atomic energy  EATOM  =      1915.58204833
  ---------------------------------------------------
  free energy    TOTEN  =      -108.55786674 eV

  energy without entropy =     -108.55786674  energy(sigma->0) =     -108.55786674
  exchange ACFDT corr.  =        -0.00000000  see jH, gK, PRB 81, 115126


--------------------------------------------------------------------------------------------------------




--------------------------------------- Iteration      1(   2)  ---------------------------------------


    POTLOK:  cpu time    377.2343: real time    377.2349
    SETDIJ:  cpu time      0.1175: real time      0.1174
    TRIAL :  cpu time    135.6740: real time    135.6742
    CORREC:  cpu time      0.0796: real time      0.0796
    CHARGE:  cpu time      3.4615: real time      3.4616
    --------------------------------------------
      LOOP:  cpu time    516.5822: real time    516.5945

 eigenvalue-minimisations  :     0
 total energy-change (2. order) :-0.6011521E-05  (-0.6986961E-05)
 number of electron      47.0000001 magnetization       1.0000001
 augmentation part        0.4313114 magnetization       0.0872788

 Free energy of the ion-electron system (eV)
  ---------------------------------------------------
  alpha Z        PSCENC =         0.15041143
  Ewald energy   TEWEN  =      4235.75152180
  -Hartree energ DENC   =     -6012.54596554
  -exchange      EXHF   =       107.21624344
  -V(xc)+E(xc)   XCENC  =       122.55552086
  PAW double counting   =      4208.90318199    -4213.51578268
  entropy T*S    EENTRO =        -0.00000000
  eigenvalues    EBANDS =      -614.28730244
  atomic energy  EATOM  =      1915.58204833
  ---------------------------------------------------
  free energy    TOTEN  =      -108.55787275 eV

  energy without entropy =     -108.55787275  energy(sigma->0) =     -108.55787275
  exchange ACFDT corr.  =        -0.00000000  see jH, gK, PRB 81, 115126


--------------------------------------------------------------------------------------------------------


  average scaling for gradient   0.9447


 average (electrostatic) potential at core
  the test charge radii are     0.6991  0.9406  0.7215  0.5201
  (the norm of the test charge is              1.0000)
       1 -54.4818       2 -54.5911       3 -54.3271       4 -54.5762       5 -54.4825
       6 -54.8229       7 -56.6934       8 -95.9326       9 -73.1448      10 -37.4365
      11 -37.5225      12 -37.4479      13 -37.5377      14 -37.4233
 
 
 
 E-fermi :  -2.8632     XC(G=0):  -0.0253     alpha+bet : -0.0173

 Fermi energy:        -2.8631677122

 spin component 1

 k-point     1 :       0.0000    0.0000    0.0000
  band No.  band energies     occupation 
      1     -28.0470      1.00000
      2     -23.1383      1.00000
      3     -21.9380      1.00000
      4     -20.4172      1.00000
      5     -20.1398      1.00000
      6     -17.3100      1.00000
      7     -16.0316      1.00000
      8     -14.7114      1.00000
      9     -13.3364      1.00000
     10     -12.0140      1.00000
     11     -12.2453      1.00000
     12     -11.1174      1.00000
     13     -10.9754      1.00000
     14     -11.2941      1.00000
     15     -10.7537      1.00000
     16      -9.5633      1.00000
     17      -8.6447      1.00000
     18      -9.3351      1.00000
     19      -8.0420      1.00000
     20      -7.9798      1.00000
     21      -6.9891      1.00000
     22      -6.8189      1.00000
     23      -6.8740      1.00000
     24      -3.1463      1.00000
     25       0.0279      0.00000
     26      -0.4176      0.00000
     27      -0.0696      0.00000
     28       0.0144      0.00000
     29       0.1290      0.00000
     30       0.1123      0.00000
     31       0.0991      0.00000
     32       0.0982      0.00000
     33       0.1240      0.00000
     34       0.0681      0.00000
     35       0.1393      0.00000
     36      -0.3872      0.00000
     37       0.1794      0.00000
     38       0.2333      0.00000
     39       0.1892      0.00000
 Fermi energy:        -2.8631677122

 spin component 2

 k-point     1 :       0.0000    0.0000    0.0000
  band No.  band energies     occupation 
      1     -27.7368      1.00000
      2     -23.0208      1.00000
      3     -21.8722      1.00000
      4     -20.2655      1.00000
      5     -20.0428      1.00000
      6     -16.9547      1.00000
      7     -15.9923      1.00000
      8     -14.5910      1.00000
      9     -13.1981      1.00000
     10     -11.8868      1.00000
     11     -12.1662      1.00000
     12     -10.3337      1.00000
     13     -10.9545      1.00000
     14     -11.2548      1.00000
     15     -10.6641      1.00000
     16      -9.2734      1.00000
     17      -8.6237      1.00000
     18      -9.1237      1.00000
     19      -7.9658      1.00000
     20      -7.8099      1.00000
     21      -6.5269      1.00000
     22      -6.2739      1.00000
     23      -6.8929      1.00000
     24      -1.3763      0.00000
     25       0.0994      0.00000
     26      -0.3473      0.00000
     27      -0.0235      0.00000
     28       0.0601      0.00000
     29       0.0156      0.00000
     30       0.2768      0.00000
     31       0.0850      0.00000
     32       0.0989      0.00000
     33       0.1303      0.00000
     34       0.1167      0.00000
     35      -0.2284      0.00000
     36       0.1340      0.00000
     37       0.1556      0.00000
     38       0.1922      0.00000
     39       0.1875      0.00000


--------------------------------------------------------------------------------------------------------


 soft charge-density along one line, spin component           1
         0         1         2         3         4         5         6         7         8         9
 total charge-density along one line
 
 soft charge-density along one line, spin component           2
         0         1         2         3         4         5         6         7         8         9
 total charge-density along one line
 
 pseudopotential strength for first ion, spin component:           1
  9.964  13.248   0.001   0.000   0.000  -0.004  -0.000  -0.001
 13.248  17.615   0.001   0.000   0.001  -0.005  -0.000  -0.001
  0.001   0.001  -4.177   0.000  -0.000   8.143  -0.000   0.001
  0.000   0.000   0.000  -4.188   0.000  -0.000   8.164  -0.000
  0.000   0.001  -0.000   0.000  -4.178   0.001  -0.000   8.144
 -0.004  -0.005   8.143  -0.000   0.001 -17.987   0.000  -0.002
 -0.000  -0.000  -0.000   8.164  -0.000   0.000 -18.031   0.000
 -0.001  -0.001   0.001  -0.000   8.144  -0.002   0.000 -17.988
 pseudopotential strength for first ion, spin component:           2
  9.939  13.214   0.001   0.000   0.001  -0.004  -0.000  -0.001
 13.214  17.568   0.001   0.000   0.001  -0.005  -0.000  -0.002
  0.001   0.001  -4.176  -0.000  -0.000   8.146   0.000   0.001
  0.000   0.000  -0.000  -4.161  -0.000   0.000   8.122   0.000
  0.001   0.001  -0.000  -0.000  -4.177   0.001   0.000   8.148
 -0.004  -0.005   8.146   0.000   0.001 -18.005  -0.000  -0.002
 -0.000  -0.000   0.000   8.122   0.000  -0.000 -17.965  -0.000
 -0.001  -0.002   0.001   0.000   8.148  -0.002  -0.000 -18.006
 total augmentation occupancy for first ion, spin component:           1
  8.639  -3.885   0.156   0.000  -0.162   0.036   0.000  -0.028
 -3.885   1.783  -0.110  -0.000   0.091  -0.022  -0.000   0.015
  0.156  -0.110   1.728   0.000  -0.022   0.158   0.000   0.001
  0.000  -0.000   0.000   1.187   0.000   0.000   0.073   0.000
 -0.162   0.091  -0.022   0.000   1.844   0.001   0.000   0.179
  0.036  -0.022   0.158   0.000   0.001   0.015   0.000   0.000
  0.000  -0.000   0.000   0.073   0.000   0.000   0.005   0.000
 -0.028   0.015   0.001   0.000   0.179   0.000   0.000   0.018
 total augmentation occupancy for first ion, spin component:           2
 -0.024   0.025  -0.004   0.000  -0.004  -0.001   0.000  -0.001
  0.025  -0.017   0.003  -0.000   0.002   0.001  -0.000   0.000
 -0.004   0.003   0.006  -0.000  -0.000   0.000  -0.000  -0.000
  0.000  -0.000  -0.000   0.203  -0.000  -0.000   0.002   0.000
 -0.004   0.002  -0.000  -0.000   0.006  -0.000  -0.000   0.000
 -0.001   0.001   0.000  -0.000  -0.000  -0.000   0.000  -0.000
  0.000  -0.000  -0.000   0.002  -0.000   0.000  -0.000   0.000
 -0.001   0.000  -0.000   0.000   0.000  -0.000   0.000  -0.000


------------------------ aborting loop because EDIFF is reached ----------------------------------------


    FORLOC:  cpu time      0.2725: real time      0.2725
    FORHF :  cpu time     74.8616: real time     74.8622
    FORNL :  cpu time      4.1471: real time      4.1472
    STRESS:  cpu time     12.8176: real time     12.8177
    FORCOR:  cpu time     22.4307: real time     22.4308
    OFIELD:  cpu time      0.0187: real time      0.0187
 WARNING: Using user supplied parameters
     VDW_A1 = 0.383
     VDW_A2 = 5.685
     VDW_S8 = 2.31
     because the xc functional is not supported. Required parameters not
     defined in the INCAR file will be replaced with PBE defaults ones.


 ---------------------------------------------------------------------------------------------

         DFTD3 V3.0 Rev 1        
 IVDW         = 12
 DF unknown   
 parameters
 VDW_S6       =    1.0000
 VDW_S8       =    2.3100
 VDW_A1       =    0.3830
 VDW_A2       =    5.6850
 k1-k3        =   16.0000    1.3333   -4.0000
 VDW_RADIUS   =   50.2022 A
 VDW_CNRADIUS =   21.1671 A
 Edisp (eV)   -0.29675

 E6    (eV) :    -0.1464
 E8    (eV) :    -0.1504
 % E8        : 50.67
    FORVDW:  cpu time      0.0082: real time      0.0083

  FORCE on cell =-STRESS in cart. coord.  units (eV):
  Direction    XX          YY          ZZ          XY          YZ          ZX
  --------------------------------------------------------------------------------------
  Alpha Z     0.15041     0.15041     0.15041
  Ewald    2674.84603  1923.74663  -362.84131  -155.89225     0.98395     0.40703
  Hartree  2979.77350  2239.23278   793.54164  -113.33471     0.60942     0.28030
  E(xc)    -133.88487  -133.79813  -135.76482    -0.05345     0.00084     0.00027
  Local   -6199.48490 -4689.61951 -1052.12276   266.18913    -1.55326    -0.67595
  n-local    27.11962    25.45094    28.31346    -0.20942     0.00196    -0.00315
  augment   -14.92508   -16.02365   -15.54624     1.07592    -0.00023     0.00025
  Kinetic   711.23949   696.06103   785.96902     2.44491    -0.03787    -0.01125
  Fock      -47.71099   -47.89377   -43.50869     0.37854    -0.00189    -0.00055
  vdW        -0.14722    -0.05867    -0.00000     0.00491    -0.00003    -0.00002
  -------------------------------------------------------------------------------------
  Total      -3.02401    -2.75194    -1.80929     0.60358     0.00288    -0.00306
  in kB      -0.07570    -0.06889    -0.04529     0.01511     0.00007    -0.00008
  external pressure =       -0.06 kB  Pullay stress =        0.00 kB


 VOLUME and BASIS-vectors are now :
 -----------------------------------------------------------------------------
  energy-cutoff  :      500.00
  volume of cell :    64000.00
      direct lattice vectors                 reciprocal lattice vectors
    40.000000000  0.000000000  0.000000000     0.025000000  0.000000000  0.000000000
     0.000000000 40.000000000  0.000000000     0.000000000  0.025000000  0.000000000
     0.000000000  0.000000000 40.000000000     0.000000000  0.000000000  0.025000000

  length of vectors
    40.000000000 40.000000000 40.000000000     0.025000000  0.025000000  0.025000000


 FORCES acting on ions:
    Electron-Ion                     Ewald-Force                    Non-Local-Force
 -----------------------------------------------------------------------------------------------
   0.281E+02 0.174E+03 0.126E+00   -.265E+02 -.174E+03 -.127E+00   0.160E-01 0.123E+01 0.305E-02
   0.166E+03 0.131E+03 0.737E-01   -.164E+03 -.130E+03 -.723E-01   0.519E+00 0.281E+00 -.804E-03
   0.209E+03 -.446E+02 0.347E-01   -.208E+03 0.445E+02 -.356E-01   0.102E+01 -.246E+00 0.149E-02
   0.982E+02 -.185E+03 -.924E-01   -.971E+02 0.184E+03 0.922E-01   0.351E+00 -.478E+00 -.170E-02
   -.454E+02 -.164E+03 -.114E+00   0.469E+02 0.164E+03 0.114E+00   -.586E+00 -.130E+01 -.408E-02
   -.173E+02 -.206E+01 -.220E-03   0.169E+02 0.228E+01 -.830E-03   0.153E+01 -.663E+00 0.109E-02
   -.711E+02 -.602E+02 -.626E-01   0.663E+02 0.606E+02 0.640E-01   0.557E+01 -.127E+01 -.258E-02
   -.271E+03 -.189E+03 -.600E-01   0.274E+03 0.190E+03 0.597E-01   -.299E+01 -.281E+01 -.479E-03
   -.212E+03 0.323E+03 0.676E-01   0.235E+03 -.370E+03 -.811E-01   -.186E+02 0.406E+02 0.119E-01
   -.355E+02 -.760E+02 -.471E-01   0.394E+02 0.797E+02 0.497E-01   -.375E+01 -.422E+01 -.256E-02
   0.314E+02 -.812E+02 -.331E-01   -.327E+02 0.860E+02 0.351E-01   0.165E+01 -.532E+01 -.207E-02
   0.845E+02 -.182E+02 0.847E-02   -.893E+02 0.193E+02 -.890E-02   0.544E+01 -.119E+01 0.466E-03
   0.618E+02 0.614E+02 0.443E-01   -.650E+02 -.652E+02 -.470E-01   0.370E+01 0.417E+01 0.309E-02
   -.280E+01 0.863E+02 0.399E-01   0.502E+01 -.913E+02 -.416E-01   -.172E+01 0.535E+01 0.182E-02
 -----------------------------------------------------------------------------------------------
   0.103E+02 -.394E+02 -.138E-01   -.131E-12 -.142E-13 0.347E-16   -.788E+01 0.341E+02 0.865E-02
 
 
 POSITION                                       TOTAL-FORCE (eV/Angst)
 -----------------------------------------------------------------------------------
     19.86775     18.74593     19.99926        -0.053883      0.169907      0.001797
     18.51559     19.05269     19.99930         0.160327      0.133837      0.000075
     18.06685     20.39013     19.99980         0.223754     -0.035644      0.000878
     19.03195     21.42073     20.00062         0.071657     -0.212224     -0.001400
     20.39069     21.14027     20.00074        -0.101482     -0.091407     -0.003087
     20.86773     19.78672     20.00006         0.009893     -0.026496      0.000405
     22.22673     19.38182     20.00020         0.095901     -0.245179     -0.000972
     23.48161     20.84217     20.00056        -0.370906     -0.378978      0.000202
     22.74600     18.25312     19.99986        -0.288890      0.741448      0.000567
     21.11136     21.95773     20.00126        -0.169177     -0.207246      0.000378
     18.70756     22.46482     20.00103         0.083765     -0.261323      0.000294
     17.00130     20.62217     19.99971         0.253415     -0.053721      0.000249
     17.78870     18.23617     19.99870         0.166083      0.202569      0.000528
     20.19614     17.70556     19.99890        -0.080457      0.264457      0.000086
 -----------------------------------------------------------------------------------
    total drift:                                0.013288     -0.006183     -0.003484


--------------------------------------------------------------------------------------------------------



  FREE ENERGIE OF THE ION-ELECTRON SYSTEM (eV)
  ---------------------------------------------------
  free  energy   TOTEN  =      -108.85462549 eV

  energy  without entropy=     -108.85462549  energy(sigma->0) =     -108.85462549
 


--------------------------------------------------------------------------------------------------------


    POTLOK:  cpu time    361.8424: real time    361.8458


--------------------------------------------------------------------------------------------------------


 writing wavefunctions
     LOOP+:  cpu time   1771.4706: real time   1772.0159
    4ORBIT:  cpu time      0.0000: real time      0.0000

 total amount of memory used by VASP MPI-rank0   532708. kBytes
=======================================================================

   base      :      30000. kBytes
   nonlr-proj:       3679. kBytes
   fftplans  :     129164. kBytes
   grid      :     302241. kBytes
   one-center:          6. kBytes
   HF        :          4. kBytes
   wavefun   :      67614. kBytes
   fock_wrk  :          0. kBytes
 
  
  
 General timing and accounting informations for this job:
 ========================================================
  
                  Total CPU time used (sec):     1822.067
                            User time (sec):      767.634
                          System time (sec):     1054.433
                         Elapsed time (sec):     1823.674
  
                   Maximum memory used (kb):     1379136.
                   Average memory used (kb):          N/A
  
                          Minor page faults:      3728998
                          Major page faults:            0
                 Voluntary context switches:         4748
