
                                 *****************
                                 * O   R   C   A *
                                 *****************

                                            #,                                       
                                            ###                                      
                                            ####                                     
                                            #####                                    
                                            ######                                   
                                           ########,                                 
                                     ,,################,,,,,                         
                               ,,#################################,,                 
                          ,,##########################################,,             
                       ,#########################################, ''#####,          
                    ,#############################################,,   '####,        
                  ,##################################################,,,,####,       
                ,###########''''           ''''###############################       
              ,#####''   ,,,,##########,,,,          '''####'''          '####       
            ,##' ,,,,###########################,,,                        '##       
           ' ,,###''''                  '''############,,,                           
         ,,##''                                '''############,,,,        ,,,,,,###''
      ,#''                                            '''#######################'''  
     '                                                          ''''####''''         
             ,#######,   #######,   ,#######,      ##                                
            ,#'     '#,  ##    ##  ,#'     '#,    #''#        ,####,   ,####,        
            ##       ##  ##   ,#'  ##            #'  '#       #'       #'  '#        
            ##       ##  #######   ##           ,######,      #####,   #    #        
            '#,     ,#'  ##    ##  '#,     ,#' ,#      #,     #,   #   #,  ,#        
             '#######'   ##     ##  '#######'  #'      '#     '####' # '####'        



                #########################################################
                #                        -***-                          #
                #          Department of theory and spectroscopy        #
                #                                                       #
                #                      Frank Neese                      #
                #                                                       #
                #     Directorship, Architecture, Infrastructure        #
                #                    SHARK, DRIVERS                     #
                #        Core code/Algorithms in most modules           #
                #                                                       #
                #        Max Planck Institute fuer Kohlenforschung      #
                #                Kaiser Wilhelm Platz 1                 #
                #                 D-45470 Muelheim/Ruhr                 #
                #                      Germany                          #
                #                                                       #
                #                  All rights reserved                  #
                #                        -***-                          #
                #########################################################


                         Program Version 6.0.0  -   RELEASE  -


 With contributions from (in alphabetic order):
   Daniel Aravena         : Magnetic Suceptibility
   Michael Atanasov       : Ab Initio Ligand Field Theory (pilot matlab implementation)
   Alexander A. Auer      : GIAO ZORA, VPT2 properties, NMR spectrum
   Ute Becker             : All parallelization in ORCA, NUMFREQ, NUMCALC
   Giovanni Bistoni       : ED, misc. LED, open-shell LED, HFLD
   Martin Brehm           : Molecular dynamics
   Dmytro Bykov           : pre 5.0 version of the SCF Hessian
   Marcos Casanova-Páez   : Triplet and SCS-CIS(D). UHF-(DLPNO)-IP/EA/STEOM-CCSD. UHF-CVS-IP/STEOM-CCSD
   Vijay G. Chilkuri      : MRCI spin determinant printing, contributions to CSF-ICE
   Pauline Colinet        : FMM embedding
   Dipayan Datta          : RHF DLPNO-CCSD density
   Achintya Kumar Dutta   : EOM-CC, STEOM-CC
   Nicolas Foglia         : Exact transition moments, OPA infrastructure, MCD improvements
   Dmitry Ganyushin       : Spin-Orbit,Spin-Spin,Magnetic field MRCI
   Miquel Garcia          : C-PCM and meta-GGA Hessian, CCSD/C-PCM, Gaussian charge scheme
   Tiago L. C. Gouveia    : GS-ROHF, GS-ROCIS
   Yang Guo               : DLPNO-NEVPT2, F12-NEVPT2, CIM, IAO-localization
   Andreas Hansen         : Spin unrestricted coupled pair/coupled cluster methods
   Ingolf Harden          : AUTO-CI MPn and infrastructure 
   Benjamin Helmich-Paris : MC-RPA, TRAH-(SCF,CASSCF), AVAS, COSX integrals, SCF dyn. polar.
   Lee Huntington         : MR-EOM, pCC
   Robert Izsak           : Overlap fitted RIJCOSX, COSX-SCS-MP3, EOM
   Riya Kayal             : Wick's Theorem for AUTO-CI, AUTO-CI UHF-CCSDT
   Emily Kempfer          : AUTO-CI, RHF CISDT and CCSDT
   Christian Kollmar      : KDIIS, OOCD, Brueckner-CCSD(T), CCSD density, CASPT2, CASPT2-K, improved NEVPT2
   Axel Koslowski         : Symmetry handling
   Simone Kossmann        : Meta GGA functionals, TD-DFT gradient, OOMP2, (MP2 Hessian; deprecated post 5.0)
   Lucas Lang             : DCDCAS
   Marvin Lechner         : AUTO-CI (C++ implementation), FIC-MRCC
   Spencer Leger          : CASSCF response
   Dagmar Lenk            : GEPOL surface, SMD, ORCA-2-JSON
   Dimitrios Liakos       : Extrapolation schemes; Compound Job, initial MDCI parallelization
   Dimitrios Manganas     : Further ROCIS development; embedding schemes. LFT, Crystal Embedding
   Dimitrios Pantazis     : SARC Basis sets
   Anastasios Papadopoulos: AUTO-CI, single reference methods and gradients
   Taras Petrenko         : pre 6.0 DFT Hessian and TD-DFT gradient, (ASA, deprecated), ECA, 1-Electron XAS/XES, NRVS
   Peter Pinski           : DLPNO-MP2, DLPNO-MP2 Gradient
   Christoph Reimann      : Effective Core Potentials
   Marius Retegan         : Local ZFS, SOC
   Christoph Riplinger    : Optimizer, TS searches, QM/MM, DLPNO-CCSD(T), (RO)-DLPNO pert. Triples
   Michael Roemelt        : Original ROCIS implementation
   Masaaki Saitow         : Open-shell DLPNO-CCSD energy and density
   Barbara Sandhoefer     : DKH picture change effects
   Kantharuban Sivalingam : CASSCF convergence/infrastructure, NEVPT2 and variants, FIC-MRCI
   Bernardo de Souza      : ESD, SOC TD-DFT
   Georgi Stoychev        : AutoAux, RI-MP2 NMR, DLPNO-MP2 response, X2C
   Van Anh Tran           : RI-MP2 g-tensors
   Willem Van den Heuvel  : Paramagnetic NMR
   Zikuan Wang            : NOTCH, Electric field optimization 
   Frank Wennmohs         : Technical directorship and infrastructure
   Hang Xu                : AUTO-CI-Response properties 


 We gratefully acknowledge several colleagues who have allowed us to
 interface, adapt or use parts of their codes:
   Stefan Grimme, W. Hujo, H. Kruse, P. Pracht,  : VdW corrections, initial TS optimization,
                  C. Bannwarth, S. Ehlert,         DFT functionals, gCP, sTDA/sTD-DF
                  L. Wittmann, M. Mueller
   Ed Valeev, F. Pavosevic, A. Kumar             : LibInt (2-el integral package), F12 methods
   Garnet Chan, S. Sharma, J. Yang, R. Olivares  : DMRG
   Ulf Ekstrom                                   : XCFun DFT Library
   Mihaly Kallay                                 : mrcc  (arbitrary order and MRCC methods)
   Frank Weinhold                                : gennbo (NPA and NBO analysis)
   Simon Mueller                                 : openCOSMO-RS
   Christopher J. Cramer and Donald G. Truhlar   : smd solvation model
   Lars Goerigk                                  : TD-DFT with DH, B97 family of functionals
   V. Asgeirsson, H. Jonsson                     : NEB implementation
   FAccTs GmbH                                   : IRC, NEB, NEB-TS, DLPNO-Multilevel, CI-OPT
                                                   MM, QMMM, 2- and 3-layer-ONIOM, Crystal-QMMM,
                                                   LR-CPCM, SF, NACMEs, symmetry and pop. for TD-DFT,
                                                   nearIR, NL-DFT gradient (VV10), updates on ESD,
                                                   ML-optimized integration grids, MBIS, APM,
                                                   GOAT, DOCKER, SOLVATOR, interface openCOSMO-RS
   S Lehtola, MJT Oliveira, MAL Marques          : LibXC Library
   Liviu Ungur et al                             : ANISO software


 Your calculation uses the libint2 library for the computation of 2-el integrals
 For citations please refer to: http://libint.valeyev.net

 Your ORCA version has been built with support for libXC version: 6.2.2
 For citations please refer to: https://libxc.gitlab.io

 This ORCA versions uses:
   CBLAS   interface :  Fast vector & matrix operations
   LAPACKE interface :  Fast linear algebra routines
   SCALAPACK package :  Parallel linear algebra routines
   Shared memory     :  Shared parallel matrices
   BLAS/LAPACK       :  OpenBLAS 0.3.27  USE64BITINT DYNAMIC_ARCH NO_AFFINITY Sandybridge SINGLE_THREADED
        Core in use  :  Sandybridge
   Copyright (c) 2011-2014, The OpenBLAS Project


NOTE: MaxCore=3500 MB was set to SCF,MP2,MDCI,CIPSI,MRCI and CIS
      => If you want to overwrite this, your respective input block should be placed after the MaxCore statement
Your calculation utilizes the atom-pairwise dispersion correction
with the Becke-Johnson damping scheme (D3BJ)


Your calculation utilizes the SMD solvation module
Please cite in your paper:
A.V. Marenich, C.J. Cramer, D.G. Truhlar J. Phys. Chem. B, 113, (2009), 6378 

Warning: RI is on but no J-basis has been assigned. Assigning Def2/J (nothing to worry about!)
================================================================================

----- Orbital basis set information -----
Your calculation utilizes the basis: def2-SV(P)
   F. Weigend and R. Ahlrichs, Phys. Chem. Chem. Phys. 7, 3297 (2005).

----- AuxJ basis set information -----
Your calculation utilizes the auxiliary basis: def2/J
   F. Weigend, Phys. Chem. Chem. Phys. 8, 1057 (2006).

================================================================================
                                        WARNINGS
                       Please study these warnings very carefully!
================================================================================


WARNING: Geometry Optimization
  ===> : Switching off AutoStart
         For restart on a previous wavefunction, please use MOREAD

================================================================================
                                       INPUT FILE
================================================================================
NAME = cs_rporg_075_red_opt_03.inp
|  1> !PBE0 opt def2-SV(p) d3 TightSCF SlowConv RIJCOSX defgrid2
|  2> 
|  3> %pal
|  4> nprocs 8
|  5> end
|  6> 
|  7> %scf
|  8> MaxIter 1500
|  9> end
| 10> 
| 11> %maxcore 3500
| 12> 
| 13> !CPCM
| 14> %cpcm smd true
| 15> SMDsolvent "MeCN"
| 16> surfacetype gepol_ses
| 17> rsolv 2.19
| 18> end 
| 19> 
| 20> * xyz 0 1
| 21> C          -0.22997754219743     -1.20609091856311     -0.00046087004095
| 22> C           1.16128384069195     -1.20031253591911      0.00041394587123
| 23> C           1.87254503831811     -0.00003037040882      0.00072012391754
| 24> C           1.16131377140118      1.20026930808148      0.00041360790641
| 25> C          -0.22994707632405      1.20608173416170     -0.00046177829750
| 26> C          -0.95218511536342      0.00000427823419     -0.00003761551285
| 27> N          -2.33340895991450      0.00002157595282      0.04653779431621
| 28> H          -2.79855452143895      0.84821355690402     -0.25483389378867
| 29> H          -2.79857532928795     -0.84816111010491     -0.25482834496791
| 30> H          -0.77344381556999      2.15676174884881      0.00298430668171
| 31> H           1.69817818740019      2.15419904894576     -0.00079679497611
| 32> H           2.96571339060225     -0.00004426352233      0.00028554339021
| 33> H           1.69812535441562     -2.15425546581862     -0.00079688995407
| 34> H          -0.77349762273302     -2.15675758679187      0.00298456545474
| 35> *
| 36> 
| 37>                          ****END OF INPUT****
================================================================================

                       *****************************
                       * Geometry Optimization Run *
                       *****************************

Geometry optimization settings:
Update method            Update   .... BFGS
Choice of coordinates    CoordSys .... (2022) Redundant Internals
Initial Hessian          InHess   .... Almloef's Model
Max. no of cycles        MaxIter  .... 50

Convergence Tolerances:
Energy Change            TolE     ....  5.0000e-06 Eh
Max. Gradient            TolMAXG  ....  3.0000e-04 Eh/bohr
RMS Gradient             TolRMSG  ....  1.0000e-04 Eh/bohr
Max. Displacement        TolMAXD  ....  4.0000e-03 bohr
RMS Displacement         TolRMSD  ....  2.0000e-03 bohr
Strict Convergence                .... False

------------------------------------------------------------------------------
                        ORCA OPTIMIZATION COORDINATE SETUP
------------------------------------------------------------------------------

The optimization will be done in redundant internal coordinates (2022)
Making redundant internal coordinates   ...  (2022 redundants) done
Evaluating the initial hessian          ...  (Almloef) done
Evaluating the coordinates              ...  done
Calculating the B-matrix                .... done
Calculating the G-matrix                .... done
Diagonalizing the G-matrix              .... done
The first mode is                       ....   27
The number of degrees of freedom        ....   36

    -----------------------------------------------------------------
                    Redundant Internal Coordinates


    -----------------------------------------------------------------
         Definition                    Initial Value    Approx d2E/dq
    -----------------------------------------------------------------
      1. B(C   1,C   0)                  1.3913         0.621880   
      2. B(C   2,C   1)                  1.3952         0.612985   
      3. B(C   3,C   2)                  1.3952         0.612985   
      4. B(C   4,C   3)                  1.3913         0.621881   
      5. B(C   5,C   4)                  1.4058         0.589581   
      6. B(C   5,C   0)                  1.4058         0.589582   
      7. B(N   6,C   5)                  1.3820         0.576268   
      8. B(H   7,N   6)                  1.0132         0.427620   
      9. B(H   8,N   6)                  1.0132         0.427619   
     10. B(H   9,C   4)                  1.0951         0.353446   
     11. B(H  10,C   3)                  1.0946         0.354032   
     12. B(H  11,C   2)                  1.0932         0.355933   
     13. B(H  12,C   1)                  1.0946         0.354031   
     14. B(H  13,C   0)                  1.0951         0.353446   
     15. A(C   1,C   0,H  13)          119.9954         0.351977   
     16. A(C   1,C   0,C   5)          120.6751         0.430393   
     17. A(C   5,C   0,H  13)          119.3290         0.348822   
     18. A(C   0,C   1,C   2)          120.8880         0.433414   
     19. A(C   2,C   1,H  12)          119.9808         0.351219   
     20. A(C   0,C   1,H  12)          119.1311         0.352076   
     21. A(C   3,C   2,H  11)          120.6494         0.351538   
     22. A(C   1,C   2,H  11)          120.6493         0.351538   
     23. A(C   1,C   2,C   3)          118.7013         0.432293   
     24. A(C   2,C   3,H  10)          119.9809         0.351220   
     25. A(C   2,C   3,C   4)          120.8880         0.433415   
     26. A(C   4,C   3,H  10)          119.1310         0.352076   
     27. A(C   5,C   4,H   9)          119.3290         0.348822   
     28. A(C   3,C   4,H   9)          119.9954         0.351977   
     29. A(C   3,C   4,C   5)          120.6751         0.430393   
     30. A(C   0,C   5,N   6)          120.8950         0.421797   
     31. A(C   0,C   5,C   4)          118.1724         0.426297   
     32. A(C   4,C   5,N   6)          120.8950         0.421796   
     33. A(H   7,N   6,H   8)          113.6746         0.302113   
     34. A(C   5,N   6,H   8)          116.6668         0.353532   
     35. A(C   5,N   6,H   7)          116.6669         0.353532   
     36. D(H  12,C   1,C   0,C   5)   -179.9488         0.026771   
     37. D(C   2,C   1,C   0,C   5)     -0.0483         0.026771   
     38. D(C   2,C   1,C   0,H  13)   -179.7780         0.026771   
     39. D(H  12,C   1,C   0,H  13)      0.3216         0.026771   
     40. D(C   3,C   2,C   1,C   0)      0.0132         0.025966   
     41. D(C   3,C   2,C   1,H  12)    179.9128         0.025966   
     42. D(H  11,C   2,C   1,H  12)     -0.0320         0.025966   
     43. D(H  11,C   2,C   1,C   0)   -179.9316         0.025966   
     44. D(H  10,C   3,C   2,H  11)      0.0319         0.025966   
     45. D(H  10,C   3,C   2,C   1)   -179.9129         0.025966   
     46. D(C   4,C   3,C   2,H  11)    179.9316         0.025966   
     47. D(C   4,C   3,C   2,C   1)     -0.0133         0.025966   
     48. D(H   9,C   4,C   3,C   2)    179.7779         0.026771   
     49. D(C   5,C   4,C   3,H  10)    179.9489         0.026771   
     50. D(C   5,C   4,C   3,C   2)      0.0484         0.026771   
     51. D(H   9,C   4,C   3,H  10)     -0.3216         0.026771   
     52. D(N   6,C   5,C   4,H   9)     -2.0239         0.023920   
     53. D(C   0,C   5,C   4,H   9)   -179.8123         0.023920   
     54. D(C   0,C   5,C   4,C   3)     -0.0810         0.023920   
     55. D(N   6,C   5,C   0,H  13)      2.0240         0.023920   
     56. D(N   6,C   5,C   0,C   1)   -177.7074         0.023920   
     57. D(N   6,C   5,C   4,C   3)    177.7074         0.023920   
     58. D(C   4,C   5,C   0,H  13)    179.8124         0.023920   
     59. D(C   4,C   5,C   0,C   1)      0.0810         0.023920   
     60. D(H   8,N   6,C   5,C   4)    160.6510         0.026613   
     61. D(H   8,N   6,C   5,C   0)    -21.6210         0.026613   
     62. D(H   7,N   6,C   5,C   4)     21.6213         0.026613   
     63. D(H   7,N   6,C   5,C   0)   -160.6507         0.026613   
    -----------------------------------------------------------------

Number of atoms                         .... 14
Number of degrees of freedom            .... 63


         *************************************************************
         *                GEOMETRY OPTIMIZATION CYCLE   1            *
         *************************************************************
---------------------------------
CARTESIAN COORDINATES (ANGSTROEM)
---------------------------------
  C     -0.229978   -1.206091   -0.000461
  C      1.161284   -1.200313    0.000414
  C      1.872545   -0.000030    0.000720
  C      1.161314    1.200269    0.000414
  C     -0.229947    1.206082   -0.000462
  C     -0.952185    0.000004   -0.000038
  N     -2.333409    0.000022    0.046538
  H     -2.798555    0.848214   -0.254834
  H     -2.798575   -0.848161   -0.254828
  H     -0.773444    2.156762    0.002984
  H      1.698178    2.154199   -0.000797
  H      2.965713   -0.000044    0.000286
  H      1.698125   -2.154255   -0.000797
  H     -0.773498   -2.156758    0.002985

----------------------------
CARTESIAN COORDINATES (A.U.)
----------------------------
  NO LB      ZA    FRAG     MASS         X           Y           Z
   0 C     6.0000    0    12.011   -0.434595   -2.279182   -0.000871
   1 C     6.0000    0    12.011    2.194508   -2.268262    0.000782
   2 C     6.0000    0    12.011    3.538597   -0.000057    0.001361
   3 C     6.0000    0    12.011    2.194565    2.268180    0.000782
   4 C     6.0000    0    12.011   -0.434537    2.279164   -0.000873
   5 C     6.0000    0    12.011   -1.799369    0.000008   -0.000071
   6 N     7.0000    0    14.007   -4.409504    0.000041    0.087944
   7 H     1.0000    0     1.008   -5.288502    1.602891   -0.481566
   8 H     1.0000    0     1.008   -5.288541   -1.602792   -0.481556
   9 H     1.0000    0     1.008   -1.461597    4.075689    0.005640
  10 H     1.0000    0     1.008    3.209092    4.070846   -0.001506
  11 H     1.0000    0     1.008    5.604386   -0.000084    0.000540
  12 H     1.0000    0     1.008    3.208992   -4.070953   -0.001506
  13 H     1.0000    0     1.008   -1.461699   -4.075681    0.005640

--------------------------------
INTERNAL COORDINATES (ANGSTROEM)
--------------------------------
 C      0   0   0     0.000000000000     0.00000000     0.00000000
 C      1   0   0     1.391273657671     0.00000000     0.00000000
 C      2   1   0     1.395195277313   120.88803217     0.00000000
 C      3   2   1     1.395195085705   118.70129336     0.00000000
 C      4   3   2     1.391273264679   120.88801016     0.00000000
 C      1   2   3     1.405791443145   120.67510827   359.95167312
 N      6   1   2     1.382008892105   120.89500264   182.29259305
 H      7   6   1     1.013220076956   116.66685739   199.34933037
 H      7   6   1     1.013220198195   116.66683817   338.37898951
 H      5   4   3     1.095076742241   119.99535272   179.77790041
 H      4   3   2     1.094626336585   119.98087728   180.08710790
 H      3   2   1     1.093168438754   120.64932554   180.06838612
 H      2   1   3     1.094626598656   119.13105656   180.09953395
 H      1   2   3     1.095076738431   119.99535763   180.22204467

---------------------------
INTERNAL COORDINATES (A.U.)
---------------------------
 C      0   0   0     0.000000000000     0.00000000     0.00000000
 C      1   0   0     2.629126190336     0.00000000     0.00000000
 C      2   1   0     2.636536977461   120.88803217     0.00000000
 C      3   2   1     2.636536615376   118.70129336     0.00000000
 C      4   3   2     2.629125447690   120.88801016     0.00000000
 C      1   2   3     2.656560828954   120.67510827   359.95167312
 N      6   1   2     2.611618320722   120.89500264   182.29259305
 H      7   6   1     1.914708458838   116.66685739   199.34933037
 H      7   6   1     1.914708687947   116.66683817   338.37898951
 H      5   4   3     2.069395138463   119.99535272   179.77790041
 H      4   3   2     2.068543995124   119.98087728   180.08710790
 H      3   2   1     2.065788967492   120.64932554   180.06838612
 H      2   1   3     2.068544490366   119.13105656   180.09953395
 H      1   2   3     2.069395131262   119.99535763   180.22204467

---------------------
BASIS SET INFORMATION
---------------------
There are 3 groups of distinct atoms

 Group   1 Type C   : 7s4p1d contracted to 3s2p1d pattern {511/31/1}
 Group   2 Type N   : 7s4p1d contracted to 3s2p1d pattern {511/31/1}
 Group   3 Type H   : 4s contracted to 2s pattern {31}

Atom   0C    basis set group =>   1
Atom   1C    basis set group =>   1
Atom   2C    basis set group =>   1
Atom   3C    basis set group =>   1
Atom   4C    basis set group =>   1
Atom   5C    basis set group =>   1
Atom   6N    basis set group =>   2
Atom   7H    basis set group =>   3
Atom   8H    basis set group =>   3
Atom   9H    basis set group =>   3
Atom  10H    basis set group =>   3
Atom  11H    basis set group =>   3
Atom  12H    basis set group =>   3
Atom  13H    basis set group =>   3
---------------------------------
AUXILIARY/J BASIS SET INFORMATION
---------------------------------
There are 3 groups of distinct atoms

 Group   1 Type C   : 12s5p4d2f1g contracted to 6s4p3d1f1g pattern {711111/2111/211/2/1}
 Group   2 Type N   : 12s5p4d2f1g contracted to 6s4p3d1f1g pattern {711111/2111/211/2/1}
 Group   3 Type H   : 5s2p1d contracted to 3s1p1d pattern {311/2/1}

Atom   0C    basis set group =>   1
Atom   1C    basis set group =>   1
Atom   2C    basis set group =>   1
Atom   3C    basis set group =>   1
Atom   4C    basis set group =>   1
Atom   5C    basis set group =>   1
Atom   6N    basis set group =>   2
Atom   7H    basis set group =>   3
Atom   8H    basis set group =>   3
Atom   9H    basis set group =>   3
Atom  10H    basis set group =>   3
Atom  11H    basis set group =>   3
Atom  12H    basis set group =>   3
Atom  13H    basis set group =>   3


           ************************************************************
           *        Program running with 8 parallel MPI-processes     *
           *              working on a common directory               *
           ************************************************************
------------------------------------------------------------------------------
                             ORCA STARTUP CALCULATIONS
                           -- RI-GTO INTEGRALS CHOSEN --
------------------------------------------------------------------------------
------------------------------------------------------------------------------
                   ___                                                        
                  /   \      - P O W E R E D   B Y -                         
                 /     \                                                     
                 |  |  |   _    _      __       _____    __    __             
                 |  |  |  | |  | |    /  \     |  _  \  |  |  /  |          
                  \  \/   | |  | |   /    \    | | | |  |  | /  /          
                 / \  \   | |__| |  /  /\  \   | |_| |  |  |/  /          
                |  |  |   |  __  | /  /__\  \  |    /   |      \           
                |  |  |   | |  | | |   __   |  |    \   |  |\   \          
                \     /   | |  | | |  |  |  |  | |\  \  |  | \   \       
                 \___/    |_|  |_| |__|  |__|  |_| \__\ |__|  \__/        
                                                                              
                      - O R C A' S   B I G   F R I E N D -                    
                                      &                                       
                       - I N T E G R A L  F E E D E R -                       
                                                                              
 v1 FN, 2020, v2 2021, v3 2022-2024                                           
------------------------------------------------------------------------------


----------------------
SHARK INTEGRAL PACKAGE
----------------------

Number of atoms                             ...     14
Number of basis functions                   ...    112
Number of shells                            ...     56
Maximum angular momentum                    ...      2
Integral batch strategy                     ... SHARK/LIBINT Hybrid
RI-J (if used) integral strategy            ... SPLIT-RIJ (Revised 2003 algorithm where possible)
Printlevel                                  ...      1
Contraction scheme used                     ... SEGMENTED contraction
Prescreening option                         ... SCHWARTZ
   Thresh                                   ... 2.500e-11
   Tcut                                     ... 2.500e-12
   Tpresel                                  ... 2.500e-12 
Coulomb Range Separation                    ... NOT USED
Exchange Range Separation                   ... NOT USED
Multipole approximations                    ... NOT USED
Finite Nucleus Model                        ... NOT USED
CABS basis                                  ... NOT available
Auxiliary Coulomb fitting basis             ... AVAILABLE
   # of basis functions in Aux-J            ...    420
   # of shells in Aux-J                     ...    140
   Maximum angular momentum in Aux-J        ...      4
Auxiliary J/K fitting basis                 ... NOT available
Auxiliary Correlation fitting basis         ... NOT available
Auxiliary 'external' fitting basis          ... NOT available

Checking pre-screening integrals            ... done (  0.1 sec) Dimension = 56
Check shell pair data                       ... done (  0.1 sec)
Shell pair information
Shell pair cut-off parameter TPreSel        ...   2.5e-12
Total number of shell pairs                 ...      1596
Shell pairs after pre-screening             ...      1560
Total number of primitive shell pairs       ...      6440
Primitive shell pairs kept                  ...      4728
          la=0 lb=0:    606 shell pairs
          la=1 lb=0:    485 shell pairs
          la=1 lb=1:    105 shell pairs
          la=2 lb=0:    238 shell pairs
          la=2 lb=1:     98 shell pairs
          la=2 lb=2:     28 shell pairs

Calculating one electron integrals          ... done (  0.0 sec)
Calculating RI/J V-Matrix + Cholesky decomp.... done (  0.1 sec)
Calculating Nuclear repulsion               ... done (  0.0 sec) ENN=    271.231613886548 Eh

Diagonalization of the overlap matrix:
Smallest eigenvalue                        ... 2.855e-04
Time for diagonalization                   ...    0.003 sec
Threshold for overlap eigenvalues          ... 1.000e-07
Number of eigenvalues below threshold      ... 0
Time for construction of square roots      ...    0.020 sec
Total time needed                          ...    0.089 sec

-------------------
DFT GRID GENERATION
-------------------

General Integration Accuracy     IntAcc      ... 4.388
Radial Grid Type                 RadialGrid  ... OptM3 with GC (2021)
Angular Grid (max. ang.)         AngularGrid ... 4 (Lebedev-302)
Angular grid pruning method      GridPruning ... 4 (adaptive)
Weight generation scheme         WeightScheme... mBecke (2022)
Basis function cutoff            BFCut       ... 1.0000e-11
Integration weight cutoff        WCut        ... 1.0000e-14
Partially contracted basis set               ... off
Rotationally invariant grid construction     ... off
Angular grids for H and He will be reduced by one unit

Total number of grid points                  ...    64720
Total number of batches                      ...     1017
Average number of points per batch           ...       63
Average number of grid points per atom       ...     4623

--------------------
COSX GRID GENERATION
--------------------

GRIDX 1
-------
General Integration Accuracy     IntAcc      ... 3.816
Radial Grid Type                 RadialGrid  ... OptM3 with GC (2021)
Angular Grid (max. ang.)         AngularGrid ... 1 (Lebedev-50)
Angular grid pruning method      GridPruning ... 4 (adaptive)
Weight generation scheme         WeightScheme... mBecke (2022)
Basis function cutoff            BFCut       ... 1.0000e-11
Integration weight cutoff        WCut        ... 1.0000e-14
Partially contracted basis set               ... on
Rotationally invariant grid construction     ... off
Angular grids for H and He will be reduced by one unit

Total number of grid points                  ...     8304
Total number of batches                      ...       71
Average number of points per batch           ...      116
Average number of grid points per atom       ...      593
UseSFitting                                  ... on

GRIDX 2
-------
General Integration Accuracy     IntAcc      ... 4.020
Radial Grid Type                 RadialGrid  ... OptM3 with GC (2021)
Angular Grid (max. ang.)         AngularGrid ... 2 (Lebedev-110)
Angular grid pruning method      GridPruning ... 4 (adaptive)
Weight generation scheme         WeightScheme... mBecke (2022)
Basis function cutoff            BFCut       ... 1.0000e-11
Integration weight cutoff        WCut        ... 1.0000e-14
Partially contracted basis set               ... on
Rotationally invariant grid construction     ... off
Angular grids for H and He will be reduced by one unit

Total number of grid points                  ...    17980
Total number of batches                      ...      147
Average number of points per batch           ...      122
Average number of grid points per atom       ...     1284
UseSFitting                                  ... on

GRIDX 3
-------
General Integration Accuracy     IntAcc      ... 4.338
Radial Grid Type                 RadialGrid  ... OptM3 with GC (2021)
Angular Grid (max. ang.)         AngularGrid ... 3 (Lebedev-194)
Angular grid pruning method      GridPruning ... 4 (adaptive)
Weight generation scheme         WeightScheme... mBecke (2022)
Basis function cutoff            BFCut       ... 1.0000e-11
Integration weight cutoff        WCut        ... 1.0000e-14
Partially contracted basis set               ... on
Rotationally invariant grid construction     ... off
Angular grids for H and He will be reduced by one unit

Total number of grid points                  ...    39550
Total number of batches                      ...      317
Average number of points per batch           ...      124
Average number of grid points per atom       ...     2825
UseSFitting                                  ... on
Initializing property integral containers    ... done (  0.1 sec)

SHARK setup successfully completed in   3.0 seconds

Maximum memory used throughout the entire STARTUP-calculation: 16.5 MB


           ************************************************************
           *        Program running with 8 parallel MPI-processes     *
           *              working on a common directory               *
           ************************************************************
-------------------------------------------------------------------------------
                                 ORCA GUESS
                   Start orbitals & Density for SCF / CASSCF
-------------------------------------------------------------------------------

------------
SCF SETTINGS
------------
Hamiltonian:
 Density Functional     Method          .... DFT(GTOs)
 Exchange Functional    Exchange        .... PBE
   PBE kappa parameter   XKappa         ....  0.804000
   PBE mue parameter    XMuePBE         ....  0.219520
 Correlation Functional Correlation     .... PBE
   PBE beta parameter  CBetaPBE         ....  0.066725
 LDA part of GGA corr.  LDAOpt          .... PW91-LDA
 Gradients option       PostSCFGGA      .... off
 Hybrid DFT is turned on
   Fraction HF Exchange ScalHFX         ....  0.250000
   Scaling of DF-GGA-X  ScalDFX         ....  0.750000
   Scaling of DF-GGA-C  ScalDFC         ....  1.000000
   Scaling of DF-LDA-C  ScalLDAC        ....  1.000000
   Perturbative correction              ....  0.000000
   NL short-range parameter             ....  6.900000
 RI-approximation to the Coulomb term is turned on
   Number of AuxJ basis functions       .... 420
   RIJ-COSX (HFX calculated with COS-X)).... on


General Settings:
 Integral files         IntName         .... cs_rporg_075_red_opt_03
 Hartree-Fock type      HFTyp           .... RHF
 Total Charge           Charge          ....    0
 Multiplicity           Mult            ....    1
 Number of Electrons    NEL             ....   50
 Basis Dimension        Dim             ....  112
 Nuclear Repulsion      ENuc            ....    271.2316138865 Eh

Convergence Acceleration:
 AO-DIIS                CNVDIIS         .... on
   Start iteration      DIISMaxIt       ....     0
   Startup error        DIISStart       ....  0.200000
   # of expansion vecs  DIISMaxEq       ....     5
   Bias factor          DIISBfac        ....   1.050
   Max. coefficient     DIISMaxC        ....  10.000
 MO-DIIS                CNVKDIIS        .... off
 Trust-Rad. Augm. Hess. CNVTRAH         .... auto
   Auto Start mean grad. ratio tolernc. ....  1.125000
   Auto Start start iteration           ....    50
   Auto Start num. interpolation iter.  ....    10
   Max. Number of Micro iterations      ....    24
   Max. Number of Macro iterations      .... Maxiter - #DIIS iter
   Number of Davidson start vectors     ....     2
   Converg. threshold    (grad. norm)   ....   1.000e-05
   Grad. Scal. Fac. for Micro threshold ....   0.100
   Minimum threshold for Micro iter.    ....   1.000e-02
   NR start threshold (gradient norm)   ....   1.000e-04
   Initial trust radius                 ....   0.400
   Minimum AH scaling param. (alpha)    ....   1.000
   Maximum AH scaling param. (alpha)    .... 1000.000
   Quad. conv. algorithm                .... NR
   White noise on init. David. guess    .... on
   Maximum white noise                  ....   0.010
   Pseudo random numbers                .... off
   Inactive MOs                         .... canonical
   Orbital update algorithm             .... Taylor
   Preconditioner                       .... Diag
   Full preconditioner red. dimension   ....   250
 SOSCF                  CNVSOSCF        .... on
   Start iteration      SOSCFMaxIt      ....   150
   Startup grad/error   SOSCFStart      ....  0.001000
   Hessian update       SOSCFHessUp     .... L-BFGS
 Level Shifting         CNVShift        .... on
   Level shift para.    LevelShift      ....    0.2500
   Turn off err/grad.   ShiftErr        ....    0.0000
 Zerner damping         CNVZerner       .... off
 Static damping         CNVDamp         .... on
   Fraction old density DampFac         ....    0.8500
   Max. Damping (<1)    DampMax         ....    0.9800
   Min. Damping (>=0)   DampMin         ....    0.0000
   Turn off err/grad.   DampErr         ....    0.0300

SCF Procedure:
 Maximum # iterations   MaxIter         ....  1500
 SCF integral mode      SCFMode         .... Direct
   Integral package                     .... SHARK and LIBINT hybrid scheme
 Reset frequency        DirectResetFreq ....    20
 Integral Threshold     Thresh          ....  2.500e-11 Eh
 Primitive CutOff       TCut            ....  2.500e-12 Eh

Convergence Tolerance:
 Convergence Check Mode ConvCheckMode   .... Total+1el-Energy
 Convergence forced     ConvForced      .... 0
 Energy Change          TolE            ....  1.000e-08 Eh
 1-El. energy change                    ....  1.000e-05 Eh
 Orbital Gradient       TolG            ....  1.000e-05
 Orbital Rotation angle TolX            ....  1.000e-05
 DIIS Error             TolErr          ....  5.000e-07

------------------------------
INITIAL GUESS: MODEL POTENTIAL
------------------------------
Loading Hartree-Fock densities                     ... done
Calculating cut-offs                               ... done
Initializing the effective Hamiltonian             ... done
Setting up the integral package (SHARK)            ... done
Starting the Coulomb interaction                   ... done (   0.1 sec)
Making the grid                                    ... done (   0.2 sec)
Mapping shells                                     ... done
Starting the XC term evaluation                    ... done (   0.0 sec)
  promolecular density results
     # of electrons  =     49.996450355
     EX              =    -39.278937300
     EC              =     -1.643062723
     EX+EC           =    -40.922000023
Transforming the Hamiltonian                       ... done (   0.1 sec)
Diagonalizing the Hamiltonian                      ... done (   0.0 sec)
Back transforming the eigenvectors                 ... done (   0.1 sec)
Now organizing SCF variables                       ... done
                      ------------------
                      INITIAL GUESS DONE (   0.9 sec)
                      ------------------
             **** ENERGY FILE WAS UPDATED (cs_rporg_075_red_opt_03.en.tmp) ****
Finished Guess after   1.8 sec
Maximum memory used throughout the entire GUESS-calculation: 9.2 MB


           ************************************************************
           *        Program running with 8 parallel MPI-processes     *
           *              working on a common directory               *
           ************************************************************

-------------------------------------------------------------------------------------------
                                      ORCA LEAN-SCF
                              memory conserving SCF solver
-------------------------------------------------------------------------------------------

--------------------
CPCM SOLVATION MODEL
--------------------
CPCM parameters:
  Epsilon                                         ...      35.6880
  Refrac                                          ...       1.3442
  Rsolv                                           ...       2.1900
  Surface type                                    ...    GEPOL SES
  Discretization scheme                           ... Constant num. charges
  Epsilon function type                           ...         CPCM
Solvent:                                          ... ACETONITRILE
SMD-CDS solvent descriptors:
  Soln                                            ...       1.3442
  Soln25                                          ...       1.3416
  Sola                                            ...       0.0700
  Solb                                            ...       0.3200
  Solg                                            ...      41.2500
  Solc                                            ...       0.0000
  Solh                                            ...       0.0000
Radii:
  Scheme                                          ... Element-dependent radii
  Radius for C  used is    3.4960 Bohr (=   1.8500 Ang.)
  Radius for N  used is    3.5716 Bohr (=   1.8900 Ang.)
  Radius for H  used is    2.2677 Bohr (=   1.2000 Ang.)
Calculating surface                               ...        done! (  0.0s)
Cavity surface points                             ...          456
Cavity Volume                                     ...     749.1469
Cavity Surface-area                               ...     457.6483
Calculating surface distance matrix               ...        done! (  0.0s)
Performing Cholesky decomposition & store         ...        done! (  0.0s)
Overall time for CPCM initialization              ...                 0.1s

----------------------------------------D-I-I-S--------------------------------------------
Iteration    Energy (Eh)           Delta-E    RMSDP     MaxDP     DIISErr   Damp  Time(sec)
-------------------------------------------------------------------------------------------
               ***  Starting incremental Fock matrix formation  ***
    1    -286.8860678439637582     0.00e+00  2.12e-03  3.78e-02  2.10e-01  0.850   2.6
    2    -286.9261536443544287    -4.01e-02  2.00e-03  3.26e-02  1.58e-01  0.850   3.3
                               ***Turning on AO-DIIS***
    3    -286.9541250685757063    -2.80e-02  1.25e-03  1.55e-02  1.11e-01  0.850   2.7
    4    -286.9730644287548671    -1.89e-02  9.11e-04  1.04e-02  8.91e-02  0.850   5.2
    5    -286.9870397074266180    -1.40e-02  7.23e-04  8.38e-03  7.48e-02  0.850   5.6
    6    -286.9980085929651636    -1.10e-02  6.00e-04  7.37e-03  6.32e-02  0.850   5.1
    7    -287.0068930408888832    -8.88e-03  5.07e-04  6.39e-03  5.31e-02  0.850   4.9
    8    -287.0141728825425957    -7.28e-03  4.31e-04  5.23e-03  4.43e-02  0.850   5.8
    9    -287.0201614222326612    -5.99e-03  3.66e-04  4.28e-03  3.71e-02  0.850   5.8
   10    -287.0251071209315228    -4.95e-03  3.10e-04  3.61e-03  3.12e-02  0.850   4.0
   11    -287.0292084094791676    -4.10e-03  2.61e-04  3.08e-03  2.63e-02  0.850   3.5
   12    -287.0326222352376249    -3.41e-03  1.47e-03  1.74e-02  2.21e-02  0.000   4.9
   13    -287.0508062767264050    -1.82e-02  5.60e-05  1.32e-03  1.86e-03  0.000   3.2
                              *** Initializing SOSCF ***
---------------------------------------S-O-S-C-F--------------------------------------
Iteration    Energy (Eh)           Delta-E    RMSDP     MaxDP     MaxGrad    Time(sec)
--------------------------------------------------------------------------------------
   14    -287.0508161774369569    -9.90e-06  1.89e-05  2.04e-04  2.30e-04     4.8
               *** Restarting incremental Fock matrix formation ***
   15    -287.0508048689510474     1.13e-05  4.83e-05  1.07e-03  4.81e-05     4.0
   16    -287.0508049107980355    -4.18e-08  1.28e-05  2.51e-04  5.08e-05     3.0
   17    -287.0508049919122300    -8.11e-08  7.42e-06  1.58e-04  5.93e-06     3.0
   18    -287.0508049944745039    -2.56e-09  5.21e-07  1.18e-05  3.61e-06     3.6
                 **** Energy Check signals convergence ****

               *****************************************************
               *                     SUCCESS                       *
               *           SCF CONVERGED AFTER  18 CYCLES          *
               *****************************************************

Recomputing exchange energy using gridx3       ... done (    0.802 sec)
Old exchange energy                            :    -10.031134402 Eh
New exchange energy                            :    -10.031136880 Eh
Exchange energy change after final integration :     -0.000002478 Eh
Total energy after final integration           :   -287.050807472 Eh

SMD CDS free energy correction energy :                -0.87764     Kcal/mol
Total Energy after SMD CDS correction =              -287.052206073 Eh
             **** ENERGY FILE WAS UPDATED (cs_rporg_075_red_opt_03.en.tmp) ****

----------------
TOTAL SCF ENERGY
----------------

Total Energy       :       -287.05220607309525 Eh           -7811.08764 eV

Components:
Nuclear Repulsion  :        271.23161388654768 Eh            7380.58744 eV
Electronic Energy  :       -558.26822811043758 Eh          -15191.25080 eV
One Electron Energy:       -924.14940405374330 Eh          -25147.38375 eV
Two Electron Energy:        365.88117594330578 Eh            9956.13296 eV
CPCM Dielectric    :         -0.01419077058467 Eh              -0.38615 eV
SMD CDS (Gcds)     :         -0.00139860071657 Eh              -0.03806 eV

Virial components:
Potential Energy   :       -571.33148406105693 Eh          -15546.72006 eV
Kinetic Energy     :        284.27927798796162 Eh            7735.63243 eV
Virial Ratio       :          2.00975423922827

DFT components:
N(Alpha)           :       25.000004174806 electrons
N(Beta)            :       25.000004174806 electrons
N(Total)           :       50.000008349612 electrons
E(X)               :      -29.994822844259 Eh       
E(C)               :       -1.663467477776 Eh       
E(XC)              :      -31.658290322035 Eh       

CPCM Solvation Model Properties:
Surface-charge          :         -0.02936758306272
Corrected charge        :         -0.00000000000000
Outlying charge corr.   :          0.00007066763533 Eh               0.00192 eV
Free-energy (cav+disp)  :         -0.00139860071657 Eh              -0.03806 eV

---------------
SCF CONVERGENCE
---------------

  Last Energy change         ...    2.5623e-09  Tolerance :   1.0000e-08
  Last MAX-Density change    ...    1.1760e-05  Tolerance :   1.0000e-07
  Last RMS-Density change    ...    5.2145e-07  Tolerance :   5.0000e-09
  Last DIIS Error            ...    2.2956e-04  Tolerance :   5.0000e-07
  Last Orbital Gradient      ...    3.6147e-06  Tolerance :   1.0000e-05
  Last Orbital Rotation      ...    8.8903e-06  Tolerance :   1.0000e-05


----------------
ORBITAL ENERGIES
----------------

  NO   OCC          E(Eh)            E(eV) 
   0   2.0000     -14.382421      -391.3656 
   1   2.0000     -10.275299      -279.6051 
   2   2.0000     -10.232109      -278.4299 
   3   2.0000     -10.232093      -278.4294 
   4   2.0000     -10.224965      -278.2354 
   5   2.0000     -10.224962      -278.2354 
   6   2.0000     -10.221220      -278.1335 
   7   2.0000      -0.932560       -25.3763 
   8   2.0000      -0.852821       -23.2064 
   9   2.0000      -0.757087       -20.6014 
  10   2.0000      -0.736791       -20.0491 
  11   2.0000      -0.622610       -16.9421 
  12   2.0000      -0.608602       -16.5609 
  13   2.0000      -0.537249       -14.6193 
  14   2.0000      -0.517679       -14.0868 
  15   2.0000      -0.485069       -13.1994 
  16   2.0000      -0.440818       -11.9953 
  17   2.0000      -0.438947       -11.9444 
  18   2.0000      -0.426024       -11.5927 
  19   2.0000      -0.402211       -10.9447 
  20   2.0000      -0.366801        -9.9812 
  21   2.0000      -0.347280        -9.4500 
  22   2.0000      -0.326528        -8.8853 
  23   2.0000      -0.266286        -7.2460 
  24   2.0000      -0.214485        -5.8364 
  25   0.0000      -0.000776        -0.0211 
  26   0.0000       0.017138         0.4663 
  27   0.0000       0.083486         2.2718 
  28   0.0000       0.097923         2.6646 
  29   0.0000       0.114469         3.1149 
  30   0.0000       0.144107         3.9214 
  31   0.0000       0.152542         4.1509 
  32   0.0000       0.172581         4.6962 
  33   0.0000       0.183738         4.9998 
  34   0.0000       0.188309         5.1242 
  35   0.0000       0.274505         7.4697 
*Only the first 10 virtual orbitals were printed.

                    ********************************
                    * MULLIKEN POPULATION ANALYSIS *
                    ********************************

-----------------------
MULLIKEN ATOMIC CHARGES
-----------------------
   0 C :   -0.196022
   1 C :   -0.129376
   2 C :   -0.147167
   3 C :   -0.129377
   4 C :   -0.196026
   5 C :    0.136572
   6 N :   -0.456314
   7 H :    0.279902
   8 H :    0.279902
   9 H :    0.103114
  10 H :    0.119420
  11 H :    0.112840
  12 H :    0.119420
  13 H :    0.103115
Sum of atomic charges:    0.0000000

--------------------------------
MULLIKEN REDUCED ORBITAL CHARGES
--------------------------------
  0 C s       :     3.273018  s :     3.273018
      pz      :     1.078313  p :     2.888417
      px      :     0.913810
      py      :     0.896295
      dz2     :     0.003414  d :     0.034587
      dxz     :     0.005241
      dyz     :     0.002919
      dx2y2   :     0.009461
      dxy     :     0.013552

  1 C s       :     3.212890  s :     3.212890
      pz      :     0.982923  p :     2.878040
      px      :     0.962694
      py      :     0.932423
      dz2     :     0.003309  d :     0.038446
      dxz     :     0.006997
      dyz     :     0.003566
      dx2y2   :     0.011364
      dxy     :     0.013210

  2 C s       :     3.205998  s :     3.205998
      pz      :     1.060961  p :     2.904717
      px      :     0.883728
      py      :     0.960029
      dz2     :     0.003323  d :     0.036451
      dxz     :     0.002288
      dyz     :     0.006240
      dx2y2   :     0.014404
      dxy     :     0.010197

  3 C s       :     3.212893  s :     3.212893
      pz      :     0.982924  p :     2.878039
      px      :     0.962690
      py      :     0.932425
      dz2     :     0.003309  d :     0.038446
      dxz     :     0.006997
      dyz     :     0.003567
      dx2y2   :     0.011363
      dxy     :     0.013210

  4 C s       :     3.273024  s :     3.273024
      pz      :     1.078313  p :     2.888415
      px      :     0.913813
      py      :     0.896290
      dz2     :     0.003414  d :     0.034587
      dxz     :     0.005241
      dyz     :     0.002919
      dx2y2   :     0.009461
      dxy     :     0.013552

  5 C s       :     2.936649  s :     2.936649
      pz      :     0.941186  p :     2.864008
      px      :     0.907869
      py      :     1.014952
      dz2     :     0.004156  d :     0.062772
      dxz     :     0.016747
      dyz     :     0.006779
      dx2y2   :     0.019230
      dxy     :     0.015860

  6 N s       :     3.428713  s :     3.428713
      pz      :     1.724016  p :     4.006100
      px      :     1.138202
      py      :     1.143882
      dz2     :     0.001967  d :     0.021500
      dxz     :     0.003876
      dyz     :     0.003609
      dx2y2   :     0.005108
      dxy     :     0.006941

  7 H s       :     0.720098  s :     0.720098

  8 H s       :     0.720098  s :     0.720098

  9 H s       :     0.896886  s :     0.896886

 10 H s       :     0.880580  s :     0.880580

 11 H s       :     0.887160  s :     0.887160

 12 H s       :     0.880580  s :     0.880580

 13 H s       :     0.896885  s :     0.896885



                     *******************************
                     * LOEWDIN POPULATION ANALYSIS *
                     *******************************

----------------------
LOEWDIN ATOMIC CHARGES
----------------------
   0 C :   -0.185646
   1 C :   -0.134006
   2 C :   -0.191002
   3 C :   -0.134008
   4 C :   -0.185647
   5 C :   -0.005324
   6 N :   -0.355242
   7 H :    0.250871
   8 H :    0.250871
   9 H :    0.138357
  10 H :    0.138562
  11 H :    0.135295
  12 H :    0.138562
  13 H :    0.138357

-------------------------------
LOEWDIN REDUCED ORBITAL CHARGES
-------------------------------
  0 C s       :     2.898318  s :     2.898318
      pz      :     1.066735  p :     3.200223
      px      :     1.076694
      py      :     1.056794
      dz2     :     0.007042  d :     0.087104
      dxz     :     0.010662
      dyz     :     0.005056
      dx2y2   :     0.028091
      dxy     :     0.036252

  1 C s       :     2.899844  s :     2.899844
      pz      :     0.974900  p :     3.139723
      px      :     1.085173
      py      :     1.079650
      dz2     :     0.006853  d :     0.094439
      dxz     :     0.014631
      dyz     :     0.006628
      dx2y2   :     0.031371
      dxy     :     0.034957

  2 C s       :     2.896936  s :     2.896936
      pz      :     1.051248  p :     3.203265
      px      :     1.070212
      py      :     1.081805
      dz2     :     0.006972  d :     0.090801
      dxz     :     0.003476
      dyz     :     0.013293
      dx2y2   :     0.037447
      dxy     :     0.029612

  3 C s       :     2.899844  s :     2.899844
      pz      :     0.974901  p :     3.139724
      px      :     1.085172
      py      :     1.079651
      dz2     :     0.006853  d :     0.094439
      dxz     :     0.014630
      dyz     :     0.006628
      dx2y2   :     0.031370
      dxy     :     0.034958

  4 C s       :     2.898318  s :     2.898318
      pz      :     1.066735  p :     3.200224
      px      :     1.076694
      py      :     1.056795
      dz2     :     0.007042  d :     0.087104
      dxz     :     0.010662
      dyz     :     0.005056
      dx2y2   :     0.028091
      dxy     :     0.036252

  5 C s       :     2.838413  s :     2.838413
      pz      :     0.933421  p :     3.016379
      px      :     0.976466
      py      :     1.106492
      dz2     :     0.009375  d :     0.150532
      dxz     :     0.034151
      dyz     :     0.013804
      dx2y2   :     0.051228
      dxy     :     0.041974

  6 N s       :     3.173373  s :     3.173373
      pz      :     1.715859  p :     4.136914
      px      :     1.200025
      py      :     1.221030
      dz2     :     0.003144  d :     0.044956
      dxz     :     0.006501
      dyz     :     0.005962
      dx2y2   :     0.013096
      dxy     :     0.016251

  7 H s       :     0.749129  s :     0.749129

  8 H s       :     0.749129  s :     0.749129

  9 H s       :     0.861643  s :     0.861643

 10 H s       :     0.861438  s :     0.861438

 11 H s       :     0.864705  s :     0.864705

 12 H s       :     0.861438  s :     0.861438

 13 H s       :     0.861643  s :     0.861643



                      *****************************
                      * MAYER POPULATION ANALYSIS *
                      *****************************

  NA   - Mulliken gross atomic population
  ZA   - Total nuclear charge
  QA   - Mulliken gross atomic charge
  VA   - Mayer's total valence
  BVA  - Mayer's bonded valence
  FA   - Mayer's free valence

  ATOM       NA         ZA         QA         VA         BVA        FA
  0 C      6.1960     6.0000    -0.1960     3.7932     3.7932     0.0000
  1 C      6.1294     6.0000    -0.1294     3.8294     3.8294    -0.0000
  2 C      6.1472     6.0000    -0.1472     3.7722     3.7722     0.0000
  3 C      6.1294     6.0000    -0.1294     3.8294     3.8294    -0.0000
  4 C      6.1960     6.0000    -0.1960     3.7932     3.7932     0.0000
  5 C      5.8634     6.0000     0.1366     4.0134     4.0134     0.0000
  6 N      7.4563     7.0000    -0.4563     3.0526     3.0526    -0.0000
  7 H      0.7201     1.0000     0.2799     0.8957     0.8957     0.0000
  8 H      0.7201     1.0000     0.2799     0.8957     0.8957     0.0000
  9 H      0.8969     1.0000     0.1031     0.9603     0.9603    -0.0000
 10 H      0.8806     1.0000     0.1194     0.9468     0.9468    -0.0000
 11 H      0.8872     1.0000     0.1128     0.9487     0.9487     0.0000
 12 H      0.8806     1.0000     0.1194     0.9468     0.9468    -0.0000
 13 H      0.8969     1.0000     0.1031     0.9603     0.9603     0.0000

  Mayer bond orders larger than 0.100000
B(  0-C ,  1-C ) :   1.4025 B(  0-C ,  5-C ) :   1.3221 B(  0-C , 13-H ) :   0.9666 
B(  1-C ,  2-C ) :   1.3657 B(  1-C , 12-H ) :   0.9620 B(  2-C ,  3-C ) :   1.3657 
B(  2-C , 11-H ) :   0.9695 B(  3-C ,  4-C ) :   1.4025 B(  3-C , 10-H ) :   0.9620 
B(  4-C ,  5-C ) :   1.3221 B(  4-C ,  9-H ) :   0.9666 B(  5-C ,  6-N ) :   1.2288 
B(  6-N ,  7-H ) :   0.8675 B(  6-N ,  8-H ) :   0.8675 

-------
TIMINGS
-------

Total SCF time: 0 days 0 hours 1 min 20 sec 

Total time                  ....      80.117 sec
Sum of individual times     ....      77.330 sec  ( 96.5%)

SCF preparation             ....       1.171 sec  (  1.5%)
Fock matrix formation       ....      45.832 sec  ( 57.2%)
  Startup                   ....       4.768 sec  ( 10.4% of F)
  Split-RI-J                ....       8.521 sec  ( 18.6% of F)
  Chain of spheres X        ....      12.917 sec  ( 28.2% of F)
  XC integration            ....       7.942 sec  ( 17.3% of F)
    XC Preparation          ....       0.000 sec  (  0.0% of XC)
    Basis function eval.    ....       0.587 sec  (  7.4% of XC)
    Density eval.           ....       0.251 sec  (  3.2% of XC)
    XC-Functional eval.     ....       0.147 sec  (  1.8% of XC)
    XC-Potential eval.      ....       0.267 sec  (  3.4% of XC)
  CPCM terms                ....       5.390 sec  ( 11.8% of F)
Diagonalization             ....       0.000 sec  (  0.0%)
Density matrix formation    ....       8.117 sec  ( 10.1%)
Total Energy calculation    ....       3.693 sec  (  4.6%)
Population analysis         ....       1.454 sec  (  1.8%)
Orbital Transformation      ....       0.563 sec  (  0.7%)
Orbital Orthonormalization  ....       0.000 sec  (  0.0%)
DIIS solution               ....      15.187 sec  ( 19.0%)
SOSCF solution              ....       1.313 sec  (  1.6%)
Finished LeanSCF after  80.6 sec

Maximum memory used throughout the entire LEANSCF-calculation: 12.5 MB


-------------------------------------------------------------------------------
                          DFT DISPERSION CORRECTION                            
                                                                               
                              DFTD3 V3.1  Rev 1                                
                          USING Becke-Johnson damping                          
-------------------------------------------------------------------------------
The PBE0 functional is recognized
Active option DFTDOPT                   ...         4   

molecular C6(AA) [au] = 2151.364454 


            DFT-D V3
 parameters
 s6 scaling factor         :     1.0000 
 a1 scaling factor         :     0.4145 
 s8 scaling factor         :     1.2177 
 a2 scaling factor         :     4.8593 
 ad hoc parameters k1-k3   :    16.0000     1.3333    -4.0000 

 Edisp/kcal,au: -7.171808512950  -0.011429003138 
 E6   /kcal   :  -4.485686859 
 E8   /kcal   :  -2.686121654 
 % E8         :  37.453895331 

-------------------------   ----------------
Dispersion correction           -0.011429003
-------------------------   ----------------


-------------------------   --------------------
FINAL SINGLE POINT ENERGY      -287.063635076233
-------------------------   --------------------



           ************************************************************
           *        Program running with 8 parallel MPI-processes     *
           *              working on a common directory               *
           ************************************************************
------------------------------------------------------------------------------
                         ORCA SCF GRADIENT CALCULATION
------------------------------------------------------------------------------

Nuc. rep. gradient        (SHARK) ... done (  0.0 sec)
HCore & Overlap gradient  (SHARK) ... done (  0.0 sec)
Split-RIJ-J gradient      (SHARK) ... done (  0.5 sec)
COSX-gradient                     ... done (  2.9 sec)
XC gradient                       ... done (  0.8 sec)
CPCM gradient                     ... done (  0.1 sec)
SMD gradient                      ... done (  0.1 sec)
Dispersion correction             ... done (  0.1 sec)

-------------------
DISPERSION GRADIENT
-------------------

   1   C   :   -0.000025654   -0.000188696    0.000004612
   2   C   :    0.000163090   -0.000173945    0.000001939
   3   C   :    0.000224788   -0.000000003    0.000000726
   4   C   :    0.000163095    0.000173941    0.000001939
   5   C   :   -0.000025649    0.000188697    0.000004612
   6   C   :   -0.000169398    0.000000002    0.000001683
   7   N   :   -0.000272652    0.000000003    0.000004302
   8   H   :   -0.000136179    0.000040767   -0.000011922
   9   H   :   -0.000136180   -0.000040763   -0.000011922
  10   H   :   -0.000049470    0.000152838    0.000001840
  11   H   :    0.000082015    0.000131221    0.000000140
  12   H   :    0.000149655   -0.000000002    0.000000069
  13   H   :    0.000082012   -0.000131223    0.000000140
  14   H   :   -0.000049473   -0.000152837    0.000001840

Difference to translation invariance:
           :    0.0000000000   -0.0000000000   -0.0000000000

Difference to rotation invariance:
           :    0.0000000000   -0.0000000000   -0.0000000000

Norm of the Dispersion gradient    ...    0.0007088591
RMS gradient                       ...    0.0001093793
MAX gradient                       ...    0.0002726519

------------------
CARTESIAN GRADIENT
------------------

   1   C   :   -0.000411803    0.002596697   -0.000207957
   2   C   :   -0.000214442    0.001072895   -0.000097434
   3   C   :   -0.001711719    0.000000329   -0.000015998
   4   C   :   -0.000214541   -0.001073081   -0.000097374
   5   C   :   -0.000411255   -0.002597032   -0.000207762
   6   C   :    0.007496184   -0.000000013    0.000337452
   7   N   :   -0.006304501    0.000000222   -0.002125126
   8   H   :    0.001034227   -0.001394349    0.000911779
   9   H   :    0.001034279    0.001394247    0.000911775
  10   H   :    0.000156486    0.000106149    0.000250527
  11   H   :   -0.000064716   -0.000340629    0.000023796
  12   H   :   -0.000480031    0.000000020    0.000042247
  13   H   :   -0.000064725    0.000340559    0.000023726
  14   H   :    0.000156557   -0.000106014    0.000250349

Difference to translation invariance:
           :    0.0000000000    0.0000000000    0.0000000000

Difference to rotation invariance:
           :    0.0000015166   -0.0000246681   -0.0000008696

Norm of the Cartesian gradient     ...    0.0113219583
RMS gradient                       ...    0.0017470161
MAX gradient                       ...    0.0074961838

-------
TIMINGS
-------

Total SCF gradient time     ....        4.708 sec

Densities                   ....       0.000 sec  (  0.0%)
One electron gradient       ....       0.040 sec  (  0.8%)
RI-J Coulomb gradient       ....       0.498 sec  ( 10.6%)
COSX gradient               ....       2.904 sec  ( 61.7%)
XC gradient                 ....       0.787 sec  ( 16.7%)
CPCM gradient               ....       0.077 sec  (  1.6%)
   A-Matrix (El+Nuc)        ....       0.009 sec  (  0.2%)
   Potential                ....       0.068 sec  (  1.4%)
SMD gradient                ....       0.141 sec  (  3.0%)

Maximum memory used throughout the entire SCFGRAD-calculation: 27.4 MB
------------------------------------------------------------------------------
                         ORCA GEOMETRY RELAXATION STEP
------------------------------------------------------------------------------

Reading the OPT-File                    .... done
Getting information on internals        .... done
Copying old internal coords+grads       .... done
Making the new internal coordinates     .... (2022 redundants) done
Validating the new internal coordinates .... (2022 redundants) done
Calculating the B-matrix                .... done
Calculating the G,G- and P matrices     .... done
Transforming gradient to internals      .... done
Projecting the internal gradient        .... done
Number of atoms                         ....  14
Number of internal coordinates          ....  63
Current Energy                          ....  -287.063635076 Eh
Current gradient norm                   ....     0.011321958 Eh/bohr
Maximum allowed component of the step   ....  0.300
Current trust radius                    ....  0.300
Evaluating the initial hessian          ....  (Almloef) done
Projecting the Hessian                  .... done
Forming the augmented Hessian           .... done
Diagonalizing the augmented Hessian     .... done
Last element of RFO vector              ....  0.999747333
Lowest eigenvalues of augmented Hessian:
 -0.000106448  0.024172911  0.025038055  0.025186289  0.025445264
Length of the computed step             ....  0.022483902
The final length of the internal step   ....  0.022483902
Converting the step to Cartesian space:
 Initial RMS(Int)=    0.0028327053
Transforming coordinates:
 Iter   0:  RMS(Cart)=    0.0031503260 RMS(Int)=    1.1186182881
done
Storing new coordinates                 .... done

                                .--------------------.
          ----------------------|Geometry convergence|-------------------------
          Item                value                   Tolerance       Converged
          ---------------------------------------------------------------------
          RMS gradient        0.0009219844            0.0001000000      NO
          MAX gradient        0.0042236117            0.0003000000      NO
          RMS step            0.0028327053            0.0020000000      NO
          MAX step            0.0073671857            0.0040000000      NO
          ........................................................
          Max(Bonds)      0.0039      Max(Angles)    0.16
          Max(Dihed)        0.42      Max(Improp)    0.00
          ---------------------------------------------------------------------

The optimization has not yet converged - more geometry cycles are needed


    ---------------------------------------------------------------------------
                         Redundant Internal Coordinates
                            (Angstroem and degrees)

        Definition                    Value    dE/dq     Step     New-Value
    ----------------------------------------------------------------------------
     1. B(C   1,C   0)                1.3913 -0.001376  0.0012    1.3924   
     2. B(C   2,C   1)                1.3952 -0.001988  0.0017    1.3969   
     3. B(C   3,C   2)                1.3952 -0.001988  0.0017    1.3969   
     4. B(C   4,C   3)                1.3913 -0.001376  0.0012    1.3924   
     5. B(C   5,C   4)                1.4058 -0.002762  0.0025    1.4083   
     6. B(C   5,C   0)                1.4058 -0.002762  0.0025    1.4083   
     7. B(N   6,C   5)                1.3820  0.004224 -0.0039    1.3781   
     8. B(H   7,N   6)                1.0132 -0.001913  0.0024    1.0156   
     9. B(H   8,N   6)                1.0132 -0.001913  0.0024    1.0156   
    10. B(H   9,C   4)                1.0951  0.000015 -0.0000    1.0951   
    11. B(H  10,C   3)                1.0946 -0.000329  0.0005    1.0951   
    12. B(H  11,C   2)                1.0932 -0.000480  0.0007    1.0939   
    13. B(H  12,C   1)                1.0946 -0.000329  0.0005    1.0951   
    14. B(H  13,C   0)                1.0951  0.000015 -0.0000    1.0951   
    15. A(C   1,C   0,H  13)          120.00 -0.000204    0.03    120.03   
    16. A(C   1,C   0,C   5)          120.68  0.000018   -0.00    120.67   
    17. A(C   5,C   0,H  13)          119.33  0.000186   -0.03    119.30   
    18. A(C   0,C   1,C   2)          120.89 -0.000200    0.03    120.91   
    19. A(C   2,C   1,H  12)          119.98 -0.000014    0.01    119.99   
    20. A(C   0,C   1,H  12)          119.13  0.000214   -0.03    119.10   
    21. A(C   3,C   2,H  11)          120.65 -0.000022    0.01    120.65   
    22. A(C   1,C   2,H  11)          120.65 -0.000022    0.01    120.65   
    23. A(C   1,C   2,C   3)          118.70  0.000045   -0.01    118.69   
    24. A(C   2,C   3,H  10)          119.98 -0.000014    0.01    119.99   
    25. A(C   2,C   3,C   4)          120.89 -0.000200    0.03    120.91   
    26. A(C   4,C   3,H  10)          119.13  0.000214   -0.03    119.10   
    27. A(C   5,C   4,H   9)          119.33  0.000186   -0.03    119.30   
    28. A(C   3,C   4,H   9)          120.00 -0.000204    0.03    120.03   
    29. A(C   3,C   4,C   5)          120.68  0.000018   -0.00    120.67   
    30. A(C   0,C   5,N   6)          120.90 -0.000158    0.02    120.91   
    31. A(C   0,C   5,C   4)          118.17  0.000318   -0.04    118.13   
    32. A(C   4,C   5,N   6)          120.90 -0.000158    0.02    120.91   
    33. A(H   7,N   6,H   8)          113.67  0.000345   -0.16    113.51   
    34. A(C   5,N   6,H   8)          116.67 -0.000044   -0.06    116.61   
    35. A(C   5,N   6,H   7)          116.67 -0.000044   -0.06    116.61   
    36. D(H  12,C   1,C   0,C   5)   -179.95 -0.000028    0.06   -179.89   
    37. D(C   2,C   1,C   0,C   5)     -0.05  0.000016   -0.04     -0.09   
    38. D(C   2,C   1,C   0,H  13)   -179.78  0.000095   -0.21   -179.99   
    39. D(H  12,C   1,C   0,H  13)      0.32  0.000051   -0.12      0.21   
    40. D(C   3,C   2,C   1,C   0)      0.01  0.000015   -0.04     -0.02   
    41. D(C   3,C   2,C   1,H  12)    179.91  0.000060   -0.14    179.78   
    42. D(H  11,C   2,C   1,H  12)     -0.03  0.000004   -0.01     -0.04   
    43. D(H  11,C   2,C   1,C   0)   -179.93 -0.000041    0.09   -179.84   
    44. D(H  10,C   3,C   2,H  11)      0.03 -0.000004    0.01      0.04   
    45. D(H  10,C   3,C   2,C   1)   -179.91 -0.000059    0.14   -179.78   
    46. D(C   4,C   3,C   2,H  11)    179.93  0.000041   -0.09    179.84   
    47. D(C   4,C   3,C   2,C   1)     -0.01 -0.000015    0.04      0.02   
    48. D(H   9,C   4,C   3,C   2)    179.78 -0.000095    0.21    179.99   
    49. D(C   5,C   4,C   3,H  10)    179.95  0.000028   -0.06    179.89   
    50. D(C   5,C   4,C   3,C   2)      0.05 -0.000016    0.04      0.09   
    51. D(H   9,C   4,C   3,H  10)     -0.32 -0.000051    0.12     -0.21   
    52. D(N   6,C   5,C   4,H   9)     -2.02  0.000180   -0.42     -2.45   
    53. D(C   0,C   5,C   4,H   9)   -179.81  0.000125   -0.29   -180.10   
    54. D(C   0,C   5,C   4,C   3)     -0.08  0.000045   -0.11     -0.19   
    55. D(N   6,C   5,C   0,H  13)      2.02 -0.000180    0.42      2.45   
    56. D(N   6,C   5,C   0,C   1)   -177.71 -0.000100    0.25   -177.46   
    57. D(N   6,C   5,C   4,C   3)    177.71  0.000100   -0.25    177.46   
    58. D(C   4,C   5,C   0,H  13)    179.81 -0.000125    0.29    180.10   
    59. D(C   4,C   5,C   0,C   1)      0.08 -0.000045    0.11      0.19   
    60. D(H   8,N   6,C   5,C   4)    160.65  0.000209   -0.14    160.51   
    61. D(H   8,N   6,C   5,C   0)    -21.62  0.000276   -0.29    -21.91   
    62. D(H   7,N   6,C   5,C   4)     21.62 -0.000276    0.29     21.91   
    63. D(H   7,N   6,C   5,C   0)   -160.65 -0.000209    0.14   -160.51   
    ----------------------------------------------------------------------------

Geometry step timings:
Preparation and reading OPT file:      0.005 s ( 8.527 %)
Internal coordinates            :      0.000 s ( 0.078 %)
B/P matrices and projection     :      0.001 s ( 1.470 %)
Hessian update/contruction      :      0.030 s (54.343 %)
Making the step                 :      0.001 s ( 1.068 %)
Converting the step to Cartesian:      0.000 s ( 0.188 %)
Storing new data                :      0.009 s (15.503 %)
Checking convergence            :      0.000 s ( 0.016 %)
Final printing                  :      0.010 s (18.783 %)
Total time                      :      0.055 s

Time for energy+gradient        :     96.437 s
Time for complete geometry iter :     99.590 s

         *************************************************************
         *                GEOMETRY OPTIMIZATION CYCLE   2            *
         *************************************************************
---------------------------------
CARTESIAN COORDINATES (ANGSTROEM)
---------------------------------
  C     -0.230856   -1.207977   -0.000836
  C      1.161572   -1.201707    0.001293
  C      1.873818   -0.000031    0.002644
  C      1.161602    1.201663    0.001293
  C     -0.230826    1.207968   -0.000838
  C     -0.954766    0.000004    0.000127
  N     -2.331979    0.000021    0.050414
  H     -2.798294    0.849416   -0.253720
  H     -2.798315   -0.849363   -0.253717
  H     -0.774510    2.158521   -0.001738
  H      1.698519    2.156124   -0.001391
  H      2.967699   -0.000045    0.001721
  H      1.698467   -2.156180   -0.001393
  H     -0.774563   -2.158517   -0.001735

----------------------------
CARTESIAN COORDINATES (A.U.)
----------------------------
  NO LB      ZA    FRAG     MASS         X           Y           Z
   0 C     6.0000    0    12.011   -0.436255   -2.282746   -0.001580
   1 C     6.0000    0    12.011    2.195054   -2.270897    0.002444
   2 C     6.0000    0    12.011    3.541003   -0.000058    0.004996
   3 C     6.0000    0    12.011    2.195110    2.270815    0.002444
   4 C     6.0000    0    12.011   -0.436198    2.282729   -0.001583
   5 C     6.0000    0    12.011   -1.804246    0.000008    0.000240
   6 N     7.0000    0    14.007   -4.406802    0.000040    0.095268
   7 H     1.0000    0     1.008   -5.288009    1.605163   -0.479462
   8 H     1.0000    0     1.008   -5.288049   -1.605063   -0.479456
   9 H     1.0000    0     1.008   -1.463612    4.079013   -0.003283
  10 H     1.0000    0     1.008    3.209737    4.074484   -0.002629
  11 H     1.0000    0     1.008    5.608139   -0.000084    0.003252
  12 H     1.0000    0     1.008    3.209637   -4.074590   -0.002632
  13 H     1.0000    0     1.008   -1.463712   -4.079005   -0.003279

--------------------------------
INTERNAL COORDINATES (ANGSTROEM)
--------------------------------
 C      0   0   0     0.000000000000     0.00000000     0.00000000
 C      1   0   0     1.392444222867     0.00000000     0.00000000
 C      2   1   0     1.396896877158   120.91369795     0.00000000
 C      3   2   1     1.396897058464   118.69004833   359.97549241
 C      4   3   2     1.392444126033   120.91368056     0.02442481
 C      1   2   3     1.408284396110   120.67495557   359.91457168
 N      6   1   2     1.378131139234   120.91259604   182.53918105
 H      7   6   1     1.015587381509   116.61128010   199.49232191
 H      7   6   1     1.015587405747   116.61128241   338.09373918
 H      5   4   3     1.095053881335   120.02754740   179.99162662
 H      4   3   2     1.095117359466   119.98655290   180.22365865
 H      3   2   1     1.093881913940   120.65482667   180.15800865
 H      2   1   3     1.095117551441   119.09949577   180.19749450
 H      1   2   3     1.095054123718   120.02754192   180.00839427

---------------------------
INTERNAL COORDINATES (A.U.)
---------------------------
 C      0   0   0     0.000000000000     0.00000000     0.00000000
 C      1   0   0     2.631338237980     0.00000000     0.00000000
 C      2   1   0     2.639752535158   120.91369795     0.00000000
 C      3   2   1     2.639752877777   118.69004833   359.97549241
 C      4   3   2     2.631338054989   120.91368056     0.02442481
 C      1   2   3     2.661271827323   120.67495557   359.91457168
 N      6   1   2     2.604290429781   120.91259604   182.53918105
 H      7   6   1     1.919182016119   116.61128010   199.49232191
 H      7   6   1     1.919182061921   116.61128241   338.09373918
 H      5   4   3     2.069351937611   120.02754740   179.99162662
 H      4   3   2     2.069471893894   119.98655290   180.22365865
 H      3   2   1     2.067137240197   120.65482667   180.15800865
 H      2   1   3     2.069472256675   119.09949577   180.19749450
 H      1   2   3     2.069352395648   120.02754192   180.00839427



           ************************************************************
           *        Program running with 8 parallel MPI-processes     *
           *              working on a common directory               *
           ************************************************************
------------------------------------------------------------------------------
                   ___                                                        
                  /   \      - P O W E R E D   B Y -                         
                 /     \                                                     
                 |  |  |   _    _      __       _____    __    __             
                 |  |  |  | |  | |    /  \     |  _  \  |  |  /  |          
                  \  \/   | |  | |   /    \    | | | |  |  | /  /          
                 / \  \   | |__| |  /  /\  \   | |_| |  |  |/  /          
                |  |  |   |  __  | /  /__\  \  |    /   |      \           
                |  |  |   | |  | | |   __   |  |    \   |  |\   \          
                \     /   | |  | | |  |  |  |  | |\  \  |  | \   \       
                 \___/    |_|  |_| |__|  |__|  |_| \__\ |__|  \__/        
                                                                              
                      - O R C A' S   B I G   F R I E N D -                    
                                      &                                       
                       - I N T E G R A L  F E E D E R -                       
                                                                              
 v1 FN, 2020, v2 2021, v3 2022-2024                                           
------------------------------------------------------------------------------


----------------------
SHARK INTEGRAL PACKAGE
----------------------

Number of atoms                             ...     14
Number of basis functions                   ...    112
Number of shells                            ...     56
Maximum angular momentum                    ...      2
Integral batch strategy                     ... SHARK/LIBINT Hybrid
RI-J (if used) integral strategy            ... SPLIT-RIJ (Revised 2003 algorithm where possible)
Printlevel                                  ...      1
Contraction scheme used                     ... SEGMENTED contraction
Prescreening option                         ... SCHWARTZ
   Thresh                                   ... 2.500e-11
   Tcut                                     ... 2.500e-12
   Tpresel                                  ... 2.500e-12 
Coulomb Range Separation                    ... NOT USED
Exchange Range Separation                   ... NOT USED
Multipole approximations                    ... NOT USED
Finite Nucleus Model                        ... NOT USED
CABS basis                                  ... NOT available
[...]
   3 C :   -0.129940
   4 C :   -0.195803
   5 C :    0.131655
   6 N :   -0.453864
   7 H :    0.281201
   8 H :    0.281202
   9 H :    0.103305
  10 H :    0.119885
  11 H :    0.113413
  12 H :    0.119885
  13 H :    0.103304
Sum of atomic charges:    0.0000000

--------------------------------
MULLIKEN REDUCED ORBITAL CHARGES
--------------------------------
  0 C s       :     3.271940  s :     3.271940
      pz      :     1.079809  p :     2.889475
      px      :     0.913565
      py      :     0.896101
      dz2     :     0.003408  d :     0.034389
      dxz     :     0.005209
      dyz     :     0.002868
      dx2y2   :     0.009387
      dxy     :     0.013517

  1 C s       :     3.213365  s :     3.213365
      pz      :     0.982948  p :     2.878268
      px      :     0.962555
      py      :     0.932765
      dz2     :     0.003303  d :     0.038309
      dxz     :     0.006994
      dyz     :     0.003547
      dx2y2   :     0.011318
      dxy     :     0.013147

  2 C s       :     3.207007  s :     3.207007
      pz      :     1.062301  p :     2.905228
      px      :     0.884053
      py      :     0.958874
      dz2     :     0.003317  d :     0.036263
      dxz     :     0.002273
      dyz     :     0.006195
      dx2y2   :     0.014331
      dxy     :     0.010146

  3 C s       :     3.213364  s :     3.213364
      pz      :     0.982947  p :     2.878267
      px      :     0.962554
      py      :     0.932766
      dz2     :     0.003303  d :     0.038309
      dxz     :     0.006994
      dyz     :     0.003547
      dx2y2   :     0.011318
      dxy     :     0.013147

  4 C s       :     3.271939  s :     3.271939
      pz      :     1.079809  p :     2.889476
      px      :     0.913569
      py      :     0.896099
      dz2     :     0.003408  d :     0.034389
      dxz     :     0.005209
      dyz     :     0.002868
      dx2y2   :     0.009387
      dxy     :     0.013517

  5 C s       :     2.939985  s :     2.939985
      pz      :     0.940023  p :     2.865458
      px      :     0.909689
      py      :     1.015746
      dz2     :     0.004168  d :     0.062901
      dxz     :     0.016908
      dyz     :     0.006697
      dx2y2   :     0.019201
      dxy     :     0.015927

  6 N s       :     3.429679  s :     3.429679
      pz      :     1.718789  p :     4.002483
      px      :     1.137456
      py      :     1.146238
      dz2     :     0.001943  d :     0.021702
      dxz     :     0.003992
      dyz     :     0.003693
      dx2y2   :     0.005124
      dxy     :     0.006949

  7 H s       :     0.718799  s :     0.718799

  8 H s       :     0.718798  s :     0.718798

  9 H s       :     0.896695  s :     0.896695

 10 H s       :     0.880115  s :     0.880115

 11 H s       :     0.886587  s :     0.886587

 12 H s       :     0.880115  s :     0.880115

 13 H s       :     0.896696  s :     0.896696



                     *******************************
                     * LOEWDIN POPULATION ANALYSIS *
                     *******************************

----------------------
LOEWDIN ATOMIC CHARGES
----------------------
   0 C :   -0.186701
   1 C :   -0.134249
   2 C :   -0.191976
   3 C :   -0.134248
   4 C :   -0.186701
   5 C :   -0.006335
   6 N :   -0.351674
   7 H :    0.251485
   8 H :    0.251485
   9 H :    0.138225
  10 H :    0.138562
  11 H :    0.135343
  12 H :    0.138562
  13 H :    0.138224

-------------------------------
LOEWDIN REDUCED ORBITAL CHARGES
-------------------------------
  0 C s       :     2.899551  s :     2.899551
      pz      :     1.068284  p :     3.200599
      px      :     1.076180
      py      :     1.056136
      dz2     :     0.007010  d :     0.086550
      dxz     :     0.010582
      dyz     :     0.004961
      dx2y2   :     0.027881
      dxy     :     0.036117

  1 C s       :     2.900824  s :     2.900824
      pz      :     0.974979  p :     3.139381
      px      :     1.084966
      py      :     1.079436
      dz2     :     0.006828  d :     0.094044
      dxz     :     0.014609
      dyz     :     0.006591
      dx2y2   :     0.031235
      dxy     :     0.034780

  2 C s       :     2.898040  s :     2.898040
      pz      :     1.052667  p :     3.203671
      px      :     1.070113
      py      :     1.080892
      dz2     :     0.006941  d :     0.090265
      dxz     :     0.003456
      dyz     :     0.013178
      dx2y2   :     0.037205
      dxy     :     0.029484

  3 C s       :     2.900824  s :     2.900824
      pz      :     0.974978  p :     3.139380
      px      :     1.084965
      py      :     1.079436
      dz2     :     0.006828  d :     0.094044
      dxz     :     0.014609
      dyz     :     0.006592
      dx2y2   :     0.031235
      dxy     :     0.034781

  4 C s       :     2.899551  s :     2.899551
      pz      :     1.068283  p :     3.200599
      px      :     1.076180
      py      :     1.056136
      dz2     :     0.007010  d :     0.086550
      dxz     :     0.010582
      dyz     :     0.004960
      dx2y2   :     0.027881
      dxy     :     0.036117

  5 C s       :     2.838996  s :     2.838996
      pz      :     0.932359  p :     3.016544
      px      :     0.978744
      py      :     1.105441
      dz2     :     0.009400  d :     0.150795
      dxz     :     0.034566
      dyz     :     0.013595
      dx2y2   :     0.051058
      dxy     :     0.042176

  6 N s       :     3.173807  s :     3.173807
      pz      :     1.710565  p :     4.132457
      px      :     1.200850
      py      :     1.221042
      dz2     :     0.003139  d :     0.045409
      dxz     :     0.006702
      dyz     :     0.006067
      dx2y2   :     0.013152
      dxy     :     0.016350

  7 H s       :     0.748515  s :     0.748515

  8 H s       :     0.748515  s :     0.748515

  9 H s       :     0.861775  s :     0.861775

 10 H s       :     0.861438  s :     0.861438

 11 H s       :     0.864657  s :     0.864657

 12 H s       :     0.861438  s :     0.861438

 13 H s       :     0.861776  s :     0.861776



                      *****************************
                      * MAYER POPULATION ANALYSIS *
                      *****************************

  NA   - Mulliken gross atomic population
  ZA   - Total nuclear charge
  QA   - Mulliken gross atomic charge
  VA   - Mayer's total valence
  BVA  - Mayer's bonded valence
  FA   - Mayer's free valence

  ATOM       NA         ZA         QA         VA         BVA        FA
  0 C      6.1958     6.0000    -0.1958     3.7945     3.7945     0.0000
  1 C      6.1299     6.0000    -0.1299     3.8300     3.8300     0.0000
  2 C      6.1485     6.0000    -0.1485     3.7720     3.7720     0.0000
  3 C      6.1299     6.0000    -0.1299     3.8300     3.8300     0.0000
  4 C      6.1958     6.0000    -0.1958     3.7945     3.7945     0.0000
  5 C      5.8683     6.0000     0.1317     4.0142     4.0142     0.0000
  6 N      7.4539     7.0000    -0.4539     3.0564     3.0564    -0.0000
  7 H      0.7188     1.0000     0.2812     0.8949     0.8949     0.0000
  8 H      0.7188     1.0000     0.2812     0.8949     0.8949     0.0000
  9 H      0.8967     1.0000     0.1033     0.9604     0.9604     0.0000
 10 H      0.8801     1.0000     0.1199     0.9468     0.9468     0.0000
 11 H      0.8866     1.0000     0.1134     0.9487     0.9487    -0.0000
 12 H      0.8801     1.0000     0.1199     0.9468     0.9468     0.0000
 13 H      0.8967     1.0000     0.1033     0.9604     0.9604     0.0000

  Mayer bond orders larger than 0.100000
B(  0-C ,  1-C ) :   1.4042 B(  0-C ,  5-C ) :   1.3204 B(  0-C , 13-H ) :   0.9659 
B(  1-C ,  2-C ) :   1.3652 B(  1-C , 12-H ) :   0.9615 B(  2-C ,  3-C ) :   1.3652 
B(  2-C , 11-H ) :   0.9690 B(  3-C ,  4-C ) :   1.4042 B(  3-C , 10-H ) :   0.9615 
B(  4-C ,  5-C ) :   1.3204 B(  4-C ,  9-H ) :   0.9659 B(  5-C ,  6-N ) :   1.2328 
B(  6-N ,  7-H ) :   0.8667 B(  6-N ,  8-H ) :   0.8667 

-------
TIMINGS
-------

Total SCF time: 0 days 0 hours 0 min 16 sec 

Total time                  ....      16.069 sec
Sum of individual times     ....      13.881 sec  ( 86.4%)

SCF preparation             ....       1.443 sec  (  9.0%)
Fock matrix formation       ....       8.577 sec  ( 53.4%)
  Startup                   ....       0.840 sec  (  9.8% of F)
  Split-RI-J                ....       1.827 sec  ( 21.3% of F)
  Chain of spheres X        ....       2.931 sec  ( 34.2% of F)
  XC integration            ....       1.466 sec  ( 17.1% of F)
    Basis function eval.    ....       0.129 sec  (  8.8% of XC)
    Density eval.           ....       0.057 sec  (  3.9% of XC)
    XC-Functional eval.     ....       0.033 sec  (  2.2% of XC)
    XC-Potential eval.      ....       0.054 sec  (  3.7% of XC)
  CPCM terms                ....       0.506 sec  (  5.9% of F)
Diagonalization             ....       0.000 sec  (  0.0%)
Density matrix formation    ....       0.907 sec  (  5.6%)
Total Energy calculation    ....       0.843 sec  (  5.2%)
Population analysis         ....       0.643 sec  (  4.0%)
Orbital Transformation      ....       0.199 sec  (  1.2%)
Orbital Orthonormalization  ....       0.000 sec  (  0.0%)
DIIS solution               ....       0.368 sec  (  2.3%)
SOSCF solution              ....       0.901 sec  (  5.6%)
Finished LeanSCF after  16.6 sec

Maximum memory used throughout the entire LEANSCF-calculation: 13.0 MB


-------------------------------------------------------------------------------
                          DFT DISPERSION CORRECTION                            
                                                                               
                              DFTD3 V3.1  Rev 1                                
                          USING Becke-Johnson damping                          
-------------------------------------------------------------------------------
The PBE0 functional is recognized
Active option DFTDOPT                   ...         4   

molecular C6(AA) [au] = 2151.925933 


            DFT-D V3
 parameters
 s6 scaling factor         :     1.0000 
 a1 scaling factor         :     0.4145 
 s8 scaling factor         :     1.2177 
 a2 scaling factor         :     4.8593 
 ad hoc parameters k1-k3   :    16.0000     1.3333    -4.0000 

 Edisp/kcal,au: -7.168998190071  -0.011424524603 
 E6   /kcal   :  -4.483837816 
 E8   /kcal   :  -2.685160374 
 % E8         :  37.455168816 

-------------------------   ----------------
Dispersion correction           -0.011424525
-------------------------   ----------------


-------------------------   --------------------
FINAL SINGLE POINT ENERGY      -287.063715892204
-------------------------   --------------------

                                *** OPTIMIZATION RUN DONE ***



           ************************************************************
           *        Program running with 8 parallel MPI-processes     *
           *              working on a common directory               *
           ************************************************************

------------------------------------------------------------------------------
                              ORCA PROPERTY CALCULATIONS
------------------------------------------------------------------------------

GBWName                                 ... cs_rporg_075_red_opt_03.gbw
Number of atoms                         ...     14
Number of basis functions               ...    112
Max core memory                         ...   3500 MB

Electric properties:
Dipole moment                           ... YES
Quadrupole moment                       ...  NO
Static polarizability (Dipole/Dipole)   ...  NO
Static polarizability (Dipole/Quad.)    ...  NO
Static polarizability (Quad./Quad.)     ...  NO
Static polarizability (Velocity)        ...  NO

Atomic electric properties:
Dipole moment                           ...  NO
Quadrupole moment                       ...  NO
Static polarizability                   ...  NO

Choice of electric origin               ... Center of mass
Position of electric origin             ...    -0.000877    -0.000015     0.005629

General magnetic properties:
Magnetizability                         ...  NO

EPR properties:
g-Tensor (aka g-matrix)                 ...  NO
Zero-Field splitting spin-orbit         ...  NO
Zero-field splitting spin-spin          ...  NO
Hyperfine couplings                     ...  NO (   0 nuclei)
Quadrupole couplings                    ...  NO (   0 nuclei)
Contact density                         ...  NO (   0 nuclei)

NMR properties:
Chemical shifts                         ...  NO (   0 nuclei)
Spin-rotation constants                 ...  NO (   0 nuclei)
Spin-spin couplings                     ...  NO (   0 nuclei,    0 pairs)

Choice of magnetic origin               ... GIAO
Position of magnetic origin             ...     0.000000     0.000000     0.000000

Properties with geometric perturbations:
SCF Hessian                             ...  NO
IR spectrum                             ...  NO
VCD spectrum                            ...  NO
X-ray spectroscopy properties:
SCF XES/XAS/RIXS spectra                ...  NO


-------------
DIPOLE MOMENT
-------------

Method             : SCF
Type of density    : Electron Density
Multiplicity       :   1
Irrep              :   0
Energy             :  -287.0522913676007875 Eh
Relativity type    : 
Basis              : AO
                                X                 Y                 Z
Electronic contribution:     -0.185242814       0.000003565       0.048157981
Nuclear contribution   :     -0.743380688       0.000012663      -0.502796380
                        -----------------------------------------
Total Dipole Moment    :     -0.928623502       0.000016228      -0.454638398
                        -----------------------------------------
Magnitude (a.u.)       :      1.033942785
Magnitude (Debye)      :      2.628073702



--------------------
Rotational spectrum 
--------------------
 
Rotational constants in cm-1:             0.186999             0.086485             0.059205 
Rotational constants in MHz :          5606.091891          2592.755670          1774.933635 

Dipole components along the rotational axes: 
x,y,z [a.u.] :    -0.928193    -0.000005    -0.455518 
x,y,z [Debye]:    -2.359278    -0.000013    -1.157834 

 

Dipole moment calculation done in   1.1 sec 

Maximum memory used throughout the entire PROP-calculation: 6.1 MB

--------------------------------
SUGGESTED CITATIONS FOR THIS RUN
--------------------------------

Below you find a list of papers that are relevant to this ORCA run
We neither can nor want to force you to cite these papers, but we appreciate if you do
You receive ORCA, which is the product of decades of hard work by many enthusiastic individuals, for free
The only thing we kindly ask in return is that you cite our papers,
We deeply appreciate it, if you show your appreciation for ORCA by not just citing the generic ORCA reference.

Please note that relegating all ORCA citations to the supporting information does *not* help us.
SI sections are not indexed - citations you put there will not count into any citation statistics
But we need these citations in order to attract the funding resources that allow us to do what we are doing

Therefore, if you are a happy ORCA user, please consider citing a few of the papers listed below in the main body of your paper

In addition to the list printed below, the program has created the file cs_rporg_075_red_opt_03.bibtex that contains the list in bibtex format
You can import this file easily into all common literature databanks and citation aid programs


List of essential papers. We consider these as the minimum necessary citations

  1. Neese,F.
     Software update: the ORCA program system, version 5.0
     WIRES Comput. Molec. Sci., 2022 12(1)e1606
     doi.org/10.1002/wcms.1606

List of papers to cite with high priority. The work reported in these papers was absolutely
necessary for this run to complete.
Our perspective: the developers of density functionals and basis sets usually get cited in chemistry papers
Good! But without the algorithms to do something with them, the functionals or basis sets would not do anything.
Hence, in our opinion, the algorithm design and method developments papers are equally worthy of getting cited

  1. Neese,F.
     An improvement of the resolution of the identity approximation for the formation of the Coulomb matrix
     J. Comp. Chem., 2003 24(14)1740-1747
     doi.org/10.1002/jcc.10318
  2. Neese,F.; Wennmohs,F.; Hansen,A.; Becker,U.
     Efficient, approximate and parallel Hartree-Fock and hybrid DFT calculations. A 'chain-of-spheres' algorithm for the Hartree-Fock exchange
     Chem. Phys., 2009 356(1-3)98-109
     doi.org/10.1016/j.chemphys.2008.10.036
  3. Garcia-Rates,M.; Neese,F.
     Effect of the Solute Cavity on the Solvation Energy and its Derivatives within the Framework of the Gaussian Charge Scheme
     J. Comput. Chem., 2020 41 922-939
     doi.org/10.1002/jcc.26139
  4. Helmich-Paris,B.; de Souza,B.; Neese,F.; Izsák,R.
     An improved chain of spheres for exchange algorithm
     J. Chem. Phys., 2021 155 104109
     doi.org/doi: 10.1063/5.0058766.
  5. Neese,F.
     The SHARK Integral Generation and Digestion System
     J. Comp. Chem., 2022  1-16
     doi.org/10.1002/jcc.26942
  6. Grimme,S.; Antony,J.; Ehrlich,S.; Krieg,H.
     A consistent and accurate ab initio parametrization of density functional dispersion correction (DFT-D) for the 94 elements H-Pu
     J. Chem. Phys., 2010 132 154104-XXXX
     doi.org/10.1063/1.3382344
  7. Grimme,S.; Ehrlich,S.; Goerigk,L.
     Effect of the damping function in dispersion corrected density functional theory
     J. Comput. Chem., 2011 32(7)1456-1465
     doi.org/10.1002/jcc.21759

List of suggested additional citations. These are papers that are important in the 'surrounding' of 
of this run, or papers that preceded the highly important papers. If you like your results we are grateful for a citation.

  1. Izsak,R.; Neese,F.
     An overlap fitted chain of spheres exchange method
     J. Chem. Phys., 2011 135 144105
     doi.org/10.1063/1.3646921
  2. Izsak,R.; Hansen,A.; Neese,F.
     The resolution of identity and chain of spheres approximations for the LPNO-CCSD singles Fock term
     Molec. Phys., 2012 110 2413-2417
     doi.org/10.1080/00268976.2012.687466
  3. Neese,F.
     The ORCA program system
     WIRES Comput. Molec. Sci., 2012 2(1)73-78
     doi.org/10.1002/wcms.81
  4. Izsak,R.; Neese,F.; Klopper,W.
     Robust fitting techniques in the chain of spheres approximation to the Fock exchange: The role of the complementary space
     J. Chem. Phys., 2013 139 
     doi.org/10.1063/1.4819264
  5. Neese,F.
     Software update: the ORCA program system, version 4.0
     WIRES Comput. Molec. Sci., 2018 8(1)1-6
     doi.org/10.1002/wcms.1327
  6. Neese,F.; Wennmohs,F.; Becker,U.; Riplinger,C.
     The ORCA quantum chemistry program package
     J. Chem. Phys., 2020 152 Art. No. L224108
     doi.org/10.1063/5.0004608

List of optional additional citations

  1. Neese,F.
     Approximate second-order SCF convergence for spin unrestricted wavefunctions
     Chem. Phys. Lett., 2000 325(1-3)93-98
     doi.org/10.1016/s0009-2614(00)00662-x

Timings for individual modules:

Sum of individual times          ...      205.797 sec (=   3.430 min)
Startup calculation              ...       19.600 sec (=   0.327 min)   9.5 %
SCF iterations                   ...      162.791 sec (=   2.713 min)  79.1 %
Property calculations            ...        2.888 sec (=   0.048 min)   1.4 %
SCF Gradient evaluation          ...       20.237 sec (=   0.337 min)   9.8 %
Geometry relaxation              ...        0.281 sec (=   0.005 min)   0.1 %
                             ****ORCA TERMINATED NORMALLY****
TOTAL RUN TIME: 0 days 0 hours 3 minutes 40 seconds 528 msec
