
                                 *****************
                                 * O   R   C   A *
                                 *****************

                                            #,                                       
                                            ###                                      
                                            ####                                     
                                            #####                                    
                                            ######                                   
                                           ########,                                 
                                     ,,################,,,,,                         
                               ,,#################################,,                 
                          ,,##########################################,,             
                       ,#########################################, ''#####,          
                    ,#############################################,,   '####,        
                  ,##################################################,,,,####,       
                ,###########''''           ''''###############################       
              ,#####''   ,,,,##########,,,,          '''####'''          '####       
            ,##' ,,,,###########################,,,                        '##       
           ' ,,###''''                  '''############,,,                           
         ,,##''                                '''############,,,,        ,,,,,,###''
      ,#''                                            '''#######################'''  
     '                                                          ''''####''''         
             ,#######,   #######,   ,#######,      ##                                
            ,#'     '#,  ##    ##  ,#'     '#,    #''#        ,####,   ,####,        
            ##       ##  ##   ,#'  ##            #'  '#       #'       #'  '#        
            ##       ##  #######   ##           ,######,      #####,   #    #        
            '#,     ,#'  ##    ##  '#,     ,#' ,#      #,     #,   #   #,  ,#        
             '#######'   ##     ##  '#######'  #'      '#     '####' # '####'        



                #########################################################
                #                        -***-                          #
                #          Department of theory and spectroscopy        #
                #                                                       #
                #                      Frank Neese                      #
                #                                                       #
                #     Directorship, Architecture, Infrastructure        #
                #                    SHARK, DRIVERS                     #
                #        Core code/Algorithms in most modules           #
                #                                                       #
                #        Max Planck Institute fuer Kohlenforschung      #
                #                Kaiser Wilhelm Platz 1                 #
                #                 D-45470 Muelheim/Ruhr                 #
                #                      Germany                          #
                #                                                       #
                #                  All rights reserved                  #
                #                        -***-                          #
                #########################################################


                         Program Version 6.0.0  -   RELEASE  -


 With contributions from (in alphabetic order):
   Daniel Aravena         : Magnetic Suceptibility
   Michael Atanasov       : Ab Initio Ligand Field Theory (pilot matlab implementation)
   Alexander A. Auer      : GIAO ZORA, VPT2 properties, NMR spectrum
   Ute Becker             : All parallelization in ORCA, NUMFREQ, NUMCALC
   Giovanni Bistoni       : ED, misc. LED, open-shell LED, HFLD
   Martin Brehm           : Molecular dynamics
   Dmytro Bykov           : pre 5.0 version of the SCF Hessian
   Marcos Casanova-Páez   : Triplet and SCS-CIS(D). UHF-(DLPNO)-IP/EA/STEOM-CCSD. UHF-CVS-IP/STEOM-CCSD
   Vijay G. Chilkuri      : MRCI spin determinant printing, contributions to CSF-ICE
   Pauline Colinet        : FMM embedding
   Dipayan Datta          : RHF DLPNO-CCSD density
   Achintya Kumar Dutta   : EOM-CC, STEOM-CC
   Nicolas Foglia         : Exact transition moments, OPA infrastructure, MCD improvements
   Dmitry Ganyushin       : Spin-Orbit,Spin-Spin,Magnetic field MRCI
   Miquel Garcia          : C-PCM and meta-GGA Hessian, CCSD/C-PCM, Gaussian charge scheme
   Tiago L. C. Gouveia    : GS-ROHF, GS-ROCIS
   Yang Guo               : DLPNO-NEVPT2, F12-NEVPT2, CIM, IAO-localization
   Andreas Hansen         : Spin unrestricted coupled pair/coupled cluster methods
   Ingolf Harden          : AUTO-CI MPn and infrastructure 
   Benjamin Helmich-Paris : MC-RPA, TRAH-(SCF,CASSCF), AVAS, COSX integrals, SCF dyn. polar.
   Lee Huntington         : MR-EOM, pCC
   Robert Izsak           : Overlap fitted RIJCOSX, COSX-SCS-MP3, EOM
   Riya Kayal             : Wick's Theorem for AUTO-CI, AUTO-CI UHF-CCSDT
   Emily Kempfer          : AUTO-CI, RHF CISDT and CCSDT
   Christian Kollmar      : KDIIS, OOCD, Brueckner-CCSD(T), CCSD density, CASPT2, CASPT2-K, improved NEVPT2
   Axel Koslowski         : Symmetry handling
   Simone Kossmann        : Meta GGA functionals, TD-DFT gradient, OOMP2, (MP2 Hessian; deprecated post 5.0)
   Lucas Lang             : DCDCAS
   Marvin Lechner         : AUTO-CI (C++ implementation), FIC-MRCC
   Spencer Leger          : CASSCF response
   Dagmar Lenk            : GEPOL surface, SMD, ORCA-2-JSON
   Dimitrios Liakos       : Extrapolation schemes; Compound Job, initial MDCI parallelization
   Dimitrios Manganas     : Further ROCIS development; embedding schemes. LFT, Crystal Embedding
   Dimitrios Pantazis     : SARC Basis sets
   Anastasios Papadopoulos: AUTO-CI, single reference methods and gradients
   Taras Petrenko         : pre 6.0 DFT Hessian and TD-DFT gradient, (ASA, deprecated), ECA, 1-Electron XAS/XES, NRVS
   Peter Pinski           : DLPNO-MP2, DLPNO-MP2 Gradient
   Christoph Reimann      : Effective Core Potentials
   Marius Retegan         : Local ZFS, SOC
   Christoph Riplinger    : Optimizer, TS searches, QM/MM, DLPNO-CCSD(T), (RO)-DLPNO pert. Triples
   Michael Roemelt        : Original ROCIS implementation
   Masaaki Saitow         : Open-shell DLPNO-CCSD energy and density
   Barbara Sandhoefer     : DKH picture change effects
   Kantharuban Sivalingam : CASSCF convergence/infrastructure, NEVPT2 and variants, FIC-MRCI
   Bernardo de Souza      : ESD, SOC TD-DFT
   Georgi Stoychev        : AutoAux, RI-MP2 NMR, DLPNO-MP2 response, X2C
   Van Anh Tran           : RI-MP2 g-tensors
   Willem Van den Heuvel  : Paramagnetic NMR
   Zikuan Wang            : NOTCH, Electric field optimization 
   Frank Wennmohs         : Technical directorship and infrastructure
   Hang Xu                : AUTO-CI-Response properties 


 We gratefully acknowledge several colleagues who have allowed us to
 interface, adapt or use parts of their codes:
   Stefan Grimme, W. Hujo, H. Kruse, P. Pracht,  : VdW corrections, initial TS optimization,
                  C. Bannwarth, S. Ehlert,         DFT functionals, gCP, sTDA/sTD-DF
                  L. Wittmann, M. Mueller
   Ed Valeev, F. Pavosevic, A. Kumar             : LibInt (2-el integral package), F12 methods
   Garnet Chan, S. Sharma, J. Yang, R. Olivares  : DMRG
   Ulf Ekstrom                                   : XCFun DFT Library
   Mihaly Kallay                                 : mrcc  (arbitrary order and MRCC methods)
   Frank Weinhold                                : gennbo (NPA and NBO analysis)
   Simon Mueller                                 : openCOSMO-RS
   Christopher J. Cramer and Donald G. Truhlar   : smd solvation model
   Lars Goerigk                                  : TD-DFT with DH, B97 family of functionals
   V. Asgeirsson, H. Jonsson                     : NEB implementation
   FAccTs GmbH                                   : IRC, NEB, NEB-TS, DLPNO-Multilevel, CI-OPT
                                                   MM, QMMM, 2- and 3-layer-ONIOM, Crystal-QMMM,
                                                   LR-CPCM, SF, NACMEs, symmetry and pop. for TD-DFT,
                                                   nearIR, NL-DFT gradient (VV10), updates on ESD,
                                                   ML-optimized integration grids, MBIS, APM,
                                                   GOAT, DOCKER, SOLVATOR, interface openCOSMO-RS
   S Lehtola, MJT Oliveira, MAL Marques          : LibXC Library
   Liviu Ungur et al                             : ANISO software


 Your calculation uses the libint2 library for the computation of 2-el integrals
 For citations please refer to: http://libint.valeyev.net

 Your ORCA version has been built with support for libXC version: 6.2.2
 For citations please refer to: https://libxc.gitlab.io

 This ORCA versions uses:
   CBLAS   interface :  Fast vector & matrix operations
   LAPACKE interface :  Fast linear algebra routines
   SCALAPACK package :  Parallel linear algebra routines
   Shared memory     :  Shared parallel matrices
   BLAS/LAPACK       :  OpenBLAS 0.3.27  USE64BITINT DYNAMIC_ARCH NO_AFFINITY SkylakeX SINGLE_THREADED
        Core in use  :  SkylakeX
   Copyright (c) 2011-2014, The OpenBLAS Project


NOTE: MaxCore=3000 MB was set to SCF,MP2,MDCI,CIPSI,MRCI and CIS
      => If you want to overwrite this, your respective input block should be placed after the MaxCore statement
Your calculation utilizes the atom-pairwise dispersion correction
with the Becke-Johnson damping scheme (D3BJ)


Your calculation utilizes the SMD solvation module
Please cite in your paper:
A.V. Marenich, C.J. Cramer, D.G. Truhlar J. Phys. Chem. B, 113, (2009), 6378 

Warning: RI is on but no J-basis has been assigned. Assigning Def2/J (nothing to worry about!)
================================================================================

----- Orbital basis set information -----
Your calculation utilizes the basis: aug-cc-pVTZ 
    H, B-Ne : Obtained from the ccRepo (grant-hill.group.shef.ac.uk/ccrepo) Feb. 2017
              R. A. Kendall, T. H. Dunning, Jr., R. J. Harrison, J. Chem. Phys. 96, 6796 (1992)
         He : Obtained from the ccRepo (grant-hill.group.shef.ac.uk/ccrepo) Feb. 2017
              D. E. Woon, T. H. Dunning, Jr., J. Chem. Phys. 100, 2975 (1994)
  Li-Be, Na : Obtained from the ccRepo (grant-hill.group.shef.ac.uk/ccrepo) Feb. 2017
              B. P. Prascher, D. E. Woon, K. A. Peterson, T. H. Dunning, Jr., A. K. Wilson, Theor. Chem. Acc. 128, 69 (2011)
         Mg : Obtained from the Peterson Research Group Website (tyr0.chem.wsu.edu/~kipeters) Feb. 2017
              B. P. Prascher, D. E. Woon, K. A. Peterson, T. H. Dunning, Jr., A. K. Wilson, Theor. Chem. Acc. 128, 69 (2011)
      Al-Ar : Obtained from the ccRepo (grant-hill.group.shef.ac.uk/ccrepo) Feb. 2017
              D. E. Woon, T. H. Dunning, Jr., J. Chem. Phys. 98, 1358 (1993)
      Sc-Zn : Obtained from the ccRepo (grant-hill.group.shef.ac.uk/ccrepo) Feb. 2017
              N. B. Balabanov, K. A. Peterson, J. Chem. Phys. 123, 064107 (2005)
              N. B. Balabanov, K. A. Peterson, J. Chem. Phys. 125, 074110 (2006)
      Ga-Kr : Obtained from the ccRepo (grant-hill.group.shef.ac.uk/ccrepo) Feb. 2017
              A. K. Wilson, D. E. Woon, K. A. Peterson, T. H. Dunning, Jr., J. Chem. Phys. 110, 7667 (1999)
     Ag, Au : Obtained from the Peterson Research Group Website (tyr0.chem.wsu.edu/~kipeters) Feb. 2017
              K. A. Peterson, C. Puzzarini, Theor. Chem. Acc. 114, 283 (2005)

----- AuxJ basis set information -----
Your calculation utilizes the auxiliary basis: def2/J
   F. Weigend, Phys. Chem. Chem. Phys. 8, 1057 (2006).

================================================================================
                                        WARNINGS
                       Please study these warnings very carefully!
================================================================================


================================================================================
                                       INPUT FILE
================================================================================
NAME = cs_rporg_072_red_solv_01.inp
|  1> !TPSSh aug-cc-pVTZ d3 TightSCF SlowConv RIJCOSX defgrid2
|  2>  
|  3> %pal
|  4> nprocs 4
|  5> end
|  6>  
|  7> %scf
|  8> MaxIter 1500
|  9> end
| 10>  
| 11> %maxcore 3000
| 12>  
| 13> !CPCM
| 14> %cpcm smd true
| 15> SMDsolvent "MeCN"
| 16> surfacetype gepol_ses
| 17> rsolv 2.19
| 18> end 
| 19>  
| 20> * xyz 0 1
| 21> C           0.42903816797988     -1.14370342260353     -0.19375133840947
| 22> N           1.23090536349830     -0.00018108549555      0.21241157549017
| 23> H           1.32661660064153     -0.00085078462932      1.22885627448115
| 24> C           0.42918767964663      1.14398838233565     -0.19235272832111
| 25> C          -1.04960974603338      0.77261574951429      0.06492785280490
| 26> C          -1.04906283726916     -0.77294678133786      0.06683505909787
| 27> H          -1.38035607535846     -1.16390392177494      1.04420027054079
| 28> H          -1.72458244369567     -1.20024957174541     -0.69292350481507
| 29> H          -1.38487048878375      1.16593613289024      1.03994785440171
| 30> H          -1.72261217593395      1.19722636930467     -0.69855684493278
| 31> H           0.59041632586080      1.31476098653939     -1.27323726969509
| 32> H           0.75473592936517      2.05790809606369      0.33083351670359
| 33> H           0.58863701367587     -1.31196075363090     -1.27529624277050
| 34> H           0.75559928640620     -2.05873729543043      0.32686602542384
| 35> *
| 36> 
| 37>                          ****END OF INPUT****
================================================================================

                       ****************************
                       * Single Point Calculation *
                       ****************************

---------------------------------
CARTESIAN COORDINATES (ANGSTROEM)
---------------------------------
  C      0.429038   -1.143703   -0.193751
  N      1.230905   -0.000181    0.212412
  H      1.326617   -0.000851    1.228856
  C      0.429188    1.143988   -0.192353
  C     -1.049610    0.772616    0.064928
  C     -1.049063   -0.772947    0.066835
  H     -1.380356   -1.163904    1.044200
  H     -1.724582   -1.200250   -0.692924
  H     -1.384870    1.165936    1.039948
  H     -1.722612    1.197226   -0.698557
  H      0.590416    1.314761   -1.273237
  H      0.754736    2.057908    0.330834
  H      0.588637   -1.311961   -1.275296
  H      0.755599   -2.058737    0.326866

----------------------------
CARTESIAN COORDINATES (A.U.)
----------------------------
  NO LB      ZA    FRAG     MASS         X           Y           Z
   0 C     6.0000    0    12.011    0.810765   -2.161286   -0.366137
   1 N     7.0000    0    14.007    2.326074   -0.000342    0.401400
   2 H     1.0000    0     1.008    2.506942   -0.001608    2.322202
   3 C     6.0000    0    12.011    0.811047    2.161825   -0.363494
   4 C     6.0000    0    12.011   -1.983475    1.460032    0.122696
   5 C     6.0000    0    12.011   -1.982441   -1.460658    0.126300
   6 H     1.0000    0     1.008   -2.608495   -2.199460    1.973253
   7 H     1.0000    0     1.008   -3.258989   -2.268143   -1.309436
   8 H     1.0000    0     1.008   -2.617026    2.203300    1.965217
   9 H     1.0000    0     1.008   -3.255265    2.262430   -1.320081
  10 H     1.0000    0     1.008    1.115725    2.484538   -2.406070
  11 H     1.0000    0     1.008    1.426244    3.888883    0.625185
  12 H     1.0000    0     1.008    1.112363   -2.479247   -2.409961
  13 H     1.0000    0     1.008    1.427876   -3.890450    0.617687

--------------------------------
INTERNAL COORDINATES (ANGSTROEM)
--------------------------------
 C      0   0   0     0.000000000000     0.00000000     0.00000000
 N      1   0   0     1.454511136891     0.00000000     0.00000000
 H      2   1   0     1.020941191019   109.21907336     0.00000000
 C      2   1   3     1.454547750113   103.70122546   243.64879703
 C      4   2   1     1.546270595993   106.97193782    37.34470541
 C      5   4   2     1.545563804351   103.88889094   337.40567723
 H      6   5   4     1.103560352587   110.80909083   118.59221522
 H      6   5   4     1.102790772901   112.73110476   238.22370758
 H      5   4   2     1.103523761920   110.60732872    96.36260507
 H      5   4   2     1.102785261404   112.08464018   215.43034367
 H      4   2   1     1.106105487957   108.24221624   279.05897360
 H      4   2   1     1.102249859614   110.93691902   161.91952830
 H      1   2   3     1.106129152107   108.24513534   197.18001756
 H      1   2   3     1.102257498053   110.94242460   314.32654803

---------------------------
INTERNAL COORDINATES (A.U.)
---------------------------
 C      0   0   0     0.000000000000     0.00000000     0.00000000
 N      1   0   0     2.748627707463     0.00000000     0.00000000
 H      2   1   0     1.929299249865   109.21907336     0.00000000
 C      2   1   3     2.748696896424   103.70122546   243.64879703
 C      4   2   1     2.922027955361   106.97193782    37.34470541
 C      5   4   2     2.920692312724   103.88889094   337.40567723
 H      6   5   4     2.085426838642   110.80909083   118.59221522
 H      6   5   4     2.083972543798   112.73110476   238.22370758
 H      5   4   2     2.085357692304   110.60732872    96.36260507
 H      5   4   2     2.083962128579   112.08464018   215.43034367
 H      4   2   1     2.090236447465   108.24221624   279.05897360
 H      4   2   1     2.082950365823   110.93691902   161.91952830
 H      1   2   3     2.090281166229   108.24513534   197.18001756
 H      1   2   3     2.082964800381   110.94242460   314.32654803

---------------------
BASIS SET INFORMATION
---------------------
There are 3 groups of distinct atoms

 Group   1 Type C   : 19s6p3d2f contracted to 5s4p3d2f pattern {88111/3111/111/11}
 Group   2 Type N   : 19s6p3d2f contracted to 5s4p3d2f pattern {88111/3111/111/11}
 Group   3 Type H   : 6s3p2d contracted to 4s3p2d pattern {3111/111/11}

Atom   0C    basis set group =>   1
Atom   1N    basis set group =>   2
Atom   2H    basis set group =>   3
Atom   3C    basis set group =>   1
Atom   4C    basis set group =>   1
Atom   5C    basis set group =>   1
Atom   6H    basis set group =>   3
Atom   7H    basis set group =>   3
Atom   8H    basis set group =>   3
Atom   9H    basis set group =>   3
Atom  10H    basis set group =>   3
Atom  11H    basis set group =>   3
Atom  12H    basis set group =>   3
Atom  13H    basis set group =>   3
---------------------------------
AUXILIARY/J BASIS SET INFORMATION
---------------------------------
There are 3 groups of distinct atoms

 Group   1 Type C   : 12s5p4d2f1g contracted to 6s4p3d1f1g pattern {711111/2111/211/2/1}
 Group   2 Type N   : 12s5p4d2f1g contracted to 6s4p3d1f1g pattern {711111/2111/211/2/1}
 Group   3 Type H   : 5s2p1d contracted to 3s1p1d pattern {311/2/1}

Atom   0C    basis set group =>   1
Atom   1N    basis set group =>   2
Atom   2H    basis set group =>   3
Atom   3C    basis set group =>   1
Atom   4C    basis set group =>   1
Atom   5C    basis set group =>   1
Atom   6H    basis set group =>   3
Atom   7H    basis set group =>   3
Atom   8H    basis set group =>   3
Atom   9H    basis set group =>   3
Atom  10H    basis set group =>   3
Atom  11H    basis set group =>   3
Atom  12H    basis set group =>   3
Atom  13H    basis set group =>   3


           ************************************************************
           *        Program running with 4 parallel MPI-processes     *
           *              working on a common directory               *
           ************************************************************
------------------------------------------------------------------------------
                             ORCA STARTUP CALCULATIONS
                           -- RI-GTO INTEGRALS CHOSEN --
------------------------------------------------------------------------------
------------------------------------------------------------------------------
                   ___                                                        
                  /   \      - P O W E R E D   B Y -                         
                 /     \                                                     
                 |  |  |   _    _      __       _____    __    __             
                 |  |  |  | |  | |    /  \     |  _  \  |  |  /  |          
                  \  \/   | |  | |   /    \    | | | |  |  | /  /          
                 / \  \   | |__| |  /  /\  \   | |_| |  |  |/  /          
                |  |  |   |  __  | /  /__\  \  |    /   |      \           
                |  |  |   | |  | | |   __   |  |    \   |  |\   \          
                \     /   | |  | | |  |  |  |  | |\  \  |  | \   \       
                 \___/    |_|  |_| |__|  |__|  |_| \__\ |__|  \__/        
                                                                              
                      - O R C A' S   B I G   F R I E N D -                    
                                      &                                       
                       - I N T E G R A L  F E E D E R -                       
                                                                              
 v1 FN, 2020, v2 2021, v3 2022-2024                                           
------------------------------------------------------------------------------


----------------------
SHARK INTEGRAL PACKAGE
----------------------

Number of atoms                             ...     14
Number of basis functions                   ...    467
Number of shells                            ...    181
Maximum angular momentum                    ...      3
Integral batch strategy                     ... SHARK/LIBINT Hybrid
RI-J (if used) integral strategy            ... SPLIT-RIJ (Revised 2003 algorithm where possible)
Printlevel                                  ...      1
Contraction scheme used                     ... PARTIAL GENERAL contraction
Prescreening option                         ... SCHWARTZ
   Thresh                                   ... 2.500e-11
   Tcut                                     ... 2.500e-12
   Tpresel                                  ... 2.500e-12 
Coulomb Range Separation                    ... NOT USED
Exchange Range Separation                   ... NOT USED
Multipole approximations                    ... NOT USED
Finite Nucleus Model                        ... NOT USED
CABS basis                                  ... NOT available
Auxiliary Coulomb fitting basis             ... AVAILABLE
   # of basis functions in Aux-J            ...    344
   # of shells in Aux-J                     ...    120
   Maximum angular momentum in Aux-J        ...      4
Auxiliary J/K fitting basis                 ... NOT available
Auxiliary Correlation fitting basis         ... NOT available
Auxiliary 'external' fitting basis          ... NOT available

Checking pre-screening integrals            ... done (  0.0 sec) Dimension = 181
Save PGC pre-screening integrals            ... done (  0.0 sec) Dimension = 181
Calculate PGC overlap integrals             ... done (  0.1 sec) Dimension = 151
Calculating pre-screening integrals (ORCA)  ... done (  0.1 sec) Dimension = 151
Check shell pair data                       ... done (  0.0 sec)
Shell pair information
Shell pair cut-off parameter TPreSel        ...   2.5e-12
Total number of shell pairs                 ...     16471
Shell pairs after pre-screening             ...     15562
Total number of primitive shell pairs       ...     21987
Primitive shell pairs kept                  ...     19533
          la=0 lb=0:   3582 shell pairs
          la=1 lb=0:   4117 shell pairs
          la=1 lb=1:   1115 shell pairs
          la=2 lb=0:   2887 shell pairs
          la=2 lb=1:   1537 shell pairs
          la=2 lb=2:    559 shell pairs
          la=3 lb=0:    910 shell pairs
          la=3 lb=1:    470 shell pairs
          la=3 lb=2:    330 shell pairs
          la=3 lb=3:     55 shell pairs

Calculating one electron integrals          ... done (  0.0 sec)
Calculating RI/J V-Matrix + Cholesky decomp.... done (  0.0 sec)
Calculating Nuclear repulsion               ... done (  0.0 sec) ENN=    190.120011369196 Eh

Diagonalization of the overlap matrix:
Smallest eigenvalue                        ... 2.017e-06
Time for diagonalization                   ...    0.033 sec
Threshold for overlap eigenvalues          ... 1.000e-07
Number of eigenvalues below threshold      ... 0
Time for construction of square roots      ...    0.036 sec
Total time needed                          ...    0.086 sec

-------------------
DFT GRID GENERATION
-------------------

General Integration Accuracy     IntAcc      ... 4.388
Radial Grid Type                 RadialGrid  ... OptM3 with GC (2021)
Angular Grid (max. ang.)         AngularGrid ... 4 (Lebedev-302)
Angular grid pruning method      GridPruning ... 4 (adaptive)
Weight generation scheme         WeightScheme... mBecke (2022)
Basis function cutoff            BFCut       ... 1.0000e-11
Integration weight cutoff        WCut        ... 1.0000e-14
Partially contracted basis set               ... off
Rotationally invariant grid construction     ... off
Angular grids for H and He will be reduced by one unit
Diffuse basis detected: some atoms will have their outermost
                        angular grid increased by 1.

Total number of grid points                  ...    61899
Total number of batches                      ...      972
Average number of points per batch           ...       63
Average number of grid points per atom       ...     4421

---------------------
SHARK GRID GENERATION
---------------------

General Integration Accuracy     IntAcc      ... 4.388
Radial Grid Type                 RadialGrid  ... OptM3 with GC (2021)
Angular Grid (max. ang.)         AngularGrid ... 4 (Lebedev-302)
Angular grid pruning method      GridPruning ... 4 (adaptive)
Weight generation scheme         WeightScheme... mBecke (2022)
Basis function cutoff            BFCut       ... 1.0000e-11
Integration weight cutoff        WCut        ... 1.0000e-14
Partially contracted basis set               ... off
Rotationally invariant grid construction     ... off
Angular grids for H and He will be reduced by one unit
Diffuse basis detected: some atoms will have their outermost
                        angular grid increased by 1.
Steep s-basis detected: some atoms will have their radial
                        grid points doubled.

Total number of grid points                  ...    93401
Total number of batches                      ...     1468
Average number of points per batch           ...       63
Average number of grid points per atom       ...     6672

--------------------
COSX GRID GENERATION
--------------------

GRIDX 1
-------
General Integration Accuracy     IntAcc      ... 3.816
Radial Grid Type                 RadialGrid  ... OptM3 with GC (2021)
Angular Grid (max. ang.)         AngularGrid ... 1 (Lebedev-50)
Angular grid pruning method      GridPruning ... 4 (adaptive)
Weight generation scheme         WeightScheme... mBecke (2022)
Basis function cutoff            BFCut       ... 1.0000e-11
Integration weight cutoff        WCut        ... 1.0000e-14
Partially contracted basis set               ... on
Rotationally invariant grid construction     ... off
Angular grids for H and He will be reduced by one unit
Diffuse basis detected: some atoms will have their outermost
                        angular grid increased by 1.

Total number of grid points                  ...     7750
Total number of batches                      ...       71
Average number of points per batch           ...      109
Average number of grid points per atom       ...      554
UseSFitting                                  ... on

GRIDX 2
-------
General Integration Accuracy     IntAcc      ... 4.020
Radial Grid Type                 RadialGrid  ... OptM3 with GC (2021)
Angular Grid (max. ang.)         AngularGrid ... 2 (Lebedev-110)
Angular grid pruning method      GridPruning ... 4 (adaptive)
Weight generation scheme         WeightScheme... mBecke (2022)
Basis function cutoff            BFCut       ... 1.0000e-11
Integration weight cutoff        WCut        ... 1.0000e-14
Partially contracted basis set               ... on
Rotationally invariant grid construction     ... off
Angular grids for H and He will be reduced by one unit
Diffuse basis detected: some atoms will have their outermost
                        angular grid increased by 1.

Total number of grid points                  ...    18094
Total number of batches                      ...      148
Average number of points per batch           ...      122
Average number of grid points per atom       ...     1292
UseSFitting                                  ... on

GRIDX 3
-------
General Integration Accuracy     IntAcc      ... 4.338
Radial Grid Type                 RadialGrid  ... OptM3 with GC (2021)
Angular Grid (max. ang.)         AngularGrid ... 3 (Lebedev-194)
Angular grid pruning method      GridPruning ... 4 (adaptive)
Weight generation scheme         WeightScheme... mBecke (2022)
Basis function cutoff            BFCut       ... 1.0000e-11
Integration weight cutoff        WCut        ... 1.0000e-14
Partially contracted basis set               ... on
Rotationally invariant grid construction     ... off
Angular grids for H and He will be reduced by one unit
Diffuse basis detected: some atoms will have their outermost
                        angular grid increased by 1.

Total number of grid points                  ...    40755
Total number of batches                      ...      327
Average number of points per batch           ...      124
Average number of grid points per atom       ...     2911
UseSFitting                                  ... on
Initializing property integral containers    ... done (  0.0 sec)

SHARK setup successfully completed in   3.5 seconds

Maximum memory used throughout the entire STARTUP-calculation: 44.0 MB


           ************************************************************
           *        Program running with 4 parallel MPI-processes     *
           *              working on a common directory               *
           ************************************************************
-------------------------------------------------------------------------------
                                 ORCA GUESS
                   Start orbitals & Density for SCF / CASSCF
-------------------------------------------------------------------------------

------------
SCF SETTINGS
------------
Hamiltonian:
 Density Functional     Method          .... DFT(GTOs)
 Exchange Functional    Exchange        .... TPSS
 Correlation Functional Correlation     .... TPSS
 LDA part of GGA corr.  LDAOpt          .... PW91-LDA
 Gradients option       PostSCFGGA      .... off
 Hybrid DFT is turned on
   Fraction HF Exchange ScalHFX         ....  0.100000
   Scaling of DF-GGA-X  ScalDFX         ....  0.900000
   Scaling of DF-GGA-C  ScalDFC         ....  1.000000
   Scaling of DF-LDA-C  ScalLDAC        ....  1.000000
   Perturbative correction              ....  0.000000
   NL short-range parameter             ....  5.200000
 RI-approximation to the Coulomb term is turned on
   Number of AuxJ basis functions       .... 344
   RIJ-COSX (HFX calculated with COS-X)).... on


General Settings:
 Integral files         IntName         .... cs_rporg_072_red_solv_01
 Hartree-Fock type      HFTyp           .... RHF
 Total Charge           Charge          ....    0
 Multiplicity           Mult            ....    1
 Number of Electrons    NEL             ....   40
 Basis Dimension        Dim             ....  437
 Nuclear Repulsion      ENuc            ....    190.1200113692 Eh

Convergence Acceleration:
 AO-DIIS                CNVDIIS         .... on
   Start iteration      DIISMaxIt       ....     0
   Startup error        DIISStart       ....  0.200000
   # of expansion vecs  DIISMaxEq       ....     5
   Bias factor          DIISBfac        ....   1.050
   Max. coefficient     DIISMaxC        ....  10.000
 MO-DIIS                CNVKDIIS        .... off
 Trust-Rad. Augm. Hess. CNVTRAH         .... auto
   Auto Start mean grad. ratio tolernc. ....  1.125000
   Auto Start start iteration           ....    50
   Auto Start num. interpolation iter.  ....    10
   Max. Number of Micro iterations      ....    24
   Max. Number of Macro iterations      .... Maxiter - #DIIS iter
   Number of Davidson start vectors     ....     2
   Converg. threshold    (grad. norm)   ....   1.000e-05
   Grad. Scal. Fac. for Micro threshold ....   0.100
   Minimum threshold for Micro iter.    ....   1.000e-02
   NR start threshold (gradient norm)   ....   1.000e-04
   Initial trust radius                 ....   0.400
   Minimum AH scaling param. (alpha)    ....   1.000
   Maximum AH scaling param. (alpha)    .... 1000.000
   Quad. conv. algorithm                .... NR
   White noise on init. David. guess    .... on
   Maximum white noise                  ....   0.010
   Pseudo random numbers                .... off
   Inactive MOs                         .... canonical
   Orbital update algorithm             .... Taylor
   Preconditioner                       .... Diag
   Full preconditioner red. dimension   ....   250
 SOSCF                  CNVSOSCF        .... on
   Start iteration      SOSCFMaxIt      ....   150
   Startup grad/error   SOSCFStart      ....  0.001000
   Hessian update       SOSCFHessUp     .... L-BFGS
 Level Shifting         CNVShift        .... on
   Level shift para.    LevelShift      ....    0.2500
   Turn off err/grad.   ShiftErr        ....    0.0000
 Zerner damping         CNVZerner       .... off
 Static damping         CNVDamp         .... on
   Fraction old density DampFac         ....    0.8500
   Max. Damping (<1)    DampMax         ....    0.9800
   Min. Damping (>=0)   DampMin         ....    0.0000
   Turn off err/grad.   DampErr         ....    0.0300

SCF Procedure:
 Maximum # iterations   MaxIter         ....  1500
 SCF integral mode      SCFMode         .... Direct
   Integral package                     .... SHARK and LIBINT hybrid scheme
 Reset frequency        DirectResetFreq ....    20
 Integral Threshold     Thresh          ....  2.500e-11 Eh
 Primitive CutOff       TCut            ....  2.500e-12 Eh

Convergence Tolerance:
 Convergence Check Mode ConvCheckMode   .... Total+1el-Energy
 Convergence forced     ConvForced      .... 0
 Energy Change          TolE            ....  1.000e-08 Eh
 1-El. energy change                    ....  1.000e-05 Eh
 Orbital Gradient       TolG            ....  1.000e-05
 Orbital Rotation angle TolX            ....  1.000e-05
 DIIS Error             TolErr          ....  5.000e-07

------------------------------
INITIAL GUESS: MODEL POTENTIAL
------------------------------
Loading Hartree-Fock densities                     ... done
Calculating cut-offs                               ... done
Initializing the effective Hamiltonian             ... done
Setting up the integral package (SHARK)            ... done
Starting the Coulomb interaction                   ... done (   0.2 sec)
Making the grid                                    ... done (   0.2 sec)
Mapping shells                                     ... done
Starting the XC term evaluation                    ... done (   0.3 sec)
  promolecular density results
     # of electrons  =     39.996548390
     EX              =    -29.653599496
     EC              =     -1.311941290
     EX+EC           =    -30.965540786
Transforming the Hamiltonian                       ... done (   0.0 sec)
Diagonalizing the Hamiltonian                      ... done (   0.0 sec)
Back transforming the eigenvectors                 ... done (   0.0 sec)
Now organizing SCF variables                       ... done
                      ------------------
                      INITIAL GUESS DONE (   0.9 sec)
                      ------------------
             **** ENERGY FILE WAS UPDATED (cs_rporg_072_red_solv_01.en.tmp) ****
Finished Guess after   1.8 sec
Maximum memory used throughout the entire GUESS-calculation: 30.5 MB


           ************************************************************
           *        Program running with 4 parallel MPI-processes     *
           *              working on a common directory               *
           ************************************************************

-------------------------------------------------------------------------------------------
                                      ORCA LEAN-SCF
                              memory conserving SCF solver
-------------------------------------------------------------------------------------------

--------------------
CPCM SOLVATION MODEL
--------------------
CPCM parameters:
  Epsilon                                         ...      35.6880
  Refrac                                          ...       1.3442
  Rsolv                                           ...       2.1900
  Surface type                                    ...    GEPOL SES
  Discretization scheme                           ... Constant num. charges
  Epsilon function type                           ...         CPCM
Solvent:                                          ... ACETONITRILE
SMD-CDS solvent descriptors:
  Soln                                            ...       1.3442
  Soln25                                          ...       1.3416
  Sola                                            ...       0.0700
  Solb                                            ...       0.3200
  Solg                                            ...      41.2500
  Solc                                            ...       0.0000
  Solh                                            ...       0.0000
Radii:
  Scheme                                          ... Element-dependent radii
  Radius for C  used is    3.4960 Bohr (=   1.8500 Ang.)
  Radius for N  used is    3.5716 Bohr (=   1.8900 Ang.)
  Radius for H  used is    2.2677 Bohr (=   1.2000 Ang.)
Calculating surface                               ...        done! (  0.0s)
Cavity surface points                             ...          509
Cavity Volume                                     ...     615.9958
Cavity Surface-area                               ...     396.1916
Calculating surface distance matrix               ...        done! (  0.0s)
Performing Cholesky decomposition & store         ...        done! (  0.0s)
Overall time for CPCM initialization              ...                 0.0s

----------------------------------------D-I-I-S--------------------------------------------
Iteration    Energy (Eh)           Delta-E    RMSDP     MaxDP     DIISErr   Damp  Time(sec)
-------------------------------------------------------------------------------------------
               ***  Starting incremental Fock matrix formation  ***
    1    -212.5207644043402126     0.00e+00  1.66e-03  1.82e-01  2.13e-01  0.850   7.6
    2    -212.5650323614791262    -4.43e-02  1.51e-03  1.61e-01  1.54e-01  0.850   5.1
                               ***Turning on AO-DIIS***
    3    -212.5935756883174861    -2.85e-02  1.23e-03  1.38e-01  9.96e-02  0.850   5.1
    4    -212.6114430562237487    -1.79e-02  1.00e-03  1.15e-01  7.83e-02  0.850   5.0
    5    -212.6241306339240111    -1.27e-02  8.43e-04  9.68e-02  6.56e-02  0.850   5.0
    6    -212.6340025059468246    -9.87e-03  7.17e-04  8.24e-02  5.57e-02  0.850   4.9
    7    -212.6420509168774231    -8.05e-03  6.13e-04  7.04e-02  4.70e-02  0.850   4.8
    8    -212.6487197556562876    -6.67e-03  5.24e-04  6.01e-02  3.90e-02  0.850   4.9
    9    -212.6542249157582489    -5.51e-03  4.46e-04  5.11e-02  3.25e-02  0.850   5.1
   10    -212.6587719523224393    -4.55e-03  3.79e-04  4.35e-02  2.73e-02  0.850   4.8
   11    -212.6625457187717245    -3.77e-03  2.15e-03  2.47e-01  2.30e-02  0.000   4.9
   12    -212.6825716144994942    -2.00e-02  1.81e-05  1.27e-03  1.81e-03  0.000   5.0
                              *** Initializing SOSCF ***
---------------------------------------S-O-S-C-F--------------------------------------
Iteration    Energy (Eh)           Delta-E    RMSDP     MaxDP     MaxGrad    Time(sec)
--------------------------------------------------------------------------------------
   13    -212.6825835960220559    -1.20e-05  5.26e-06  2.63e-04  2.08e-04     4.8
               *** Restarting incremental Fock matrix formation ***
   14    -212.6825788556888881     4.74e-06  1.85e-05  1.03e-03  4.13e-05     7.6
   15    -212.6825788057826969     4.99e-08  2.91e-06  3.37e-04  5.48e-05     6.1
   16    -212.6825789426308404    -1.37e-07  2.15e-06  7.91e-05  2.54e-06     5.7
   17    -212.6825789379884952     4.64e-09  1.29e-06  4.70e-05  3.40e-06     5.4
                 **** Energy Check signals convergence ****

               *****************************************************
               *                     SUCCESS                       *
               *           SCF CONVERGED AFTER  17 CYCLES          *
               *****************************************************

Recomputing exchange energy using gridx3       ... done (    9.085 sec)
Old exchange energy                            :     -3.058573985 Eh
New exchange energy                            :     -3.058573488 Eh
Exchange energy change after final integration :      0.000000497 Eh
Total energy after final integration           :   -212.682578441 Eh

SMD CDS free energy correction energy :                -1.22040     Kcal/mol
Total Energy after SMD CDS correction =              -212.684523279 Eh
             **** ENERGY FILE WAS UPDATED (cs_rporg_072_red_solv_01.en.tmp) ****

----------------
TOTAL SCF ENERGY
----------------

Total Energy       :       -212.68452327850997 Eh           -5787.44011 eV

Components:
Nuclear Repulsion  :        190.12001136919631 Eh            5173.42852 eV
Electronic Energy  :       -402.79466842260553 Eh          -10960.60015 eV
One Electron Energy:       -662.14733391997720 Eh          -18017.94497 eV
Two Electron Energy:        259.35266549737167 Eh            7057.34482 eV
CPCM Dielectric    :         -0.00792188457926 Eh              -0.21557 eV
SMD CDS (Gcds)     :         -0.00194483713397 Eh              -0.05292 eV

Virial components:
Potential Energy   :       -424.05444767451615 Eh          -11539.10816 eV
Kinetic Energy     :        211.36992439600621 Eh            5751.66805 eV
Virial Ratio       :          2.00621942258938

DFT components:
N(Alpha)           :       20.000024755050 electrons
N(Beta)            :       20.000024755050 electrons
N(Total)           :       40.000049510099 electrons
E(X)               :      -27.694315244945 Eh       
E(C)               :       -1.314211572572 Eh       
E(XC)              :      -29.008526817517 Eh       

CPCM Solvation Model Properties:
Surface-charge          :         -0.04183960098926
Corrected charge        :         -0.00000000000000
Outlying charge corr.   :          0.00015588672677 Eh               0.00424 eV
Free-energy (cav+disp)  :         -0.00194483713397 Eh              -0.05292 eV

---------------
SCF CONVERGENCE
---------------

  Last Energy change         ...   -4.6423e-09  Tolerance :   1.0000e-08
  Last MAX-Density change    ...    4.6984e-05  Tolerance :   1.0000e-07
  Last RMS-Density change    ...    1.2885e-06  Tolerance :   5.0000e-09
  Last DIIS Error            ...    2.0810e-04  Tolerance :   5.0000e-07
  Last Orbital Gradient      ...    3.3965e-06  Tolerance :   1.0000e-05
  Last Orbital Rotation      ...    2.1130e-06  Tolerance :   1.0000e-05


----------------
ORBITAL ENERGIES
----------------

  NO   OCC          E(Eh)            E(eV) 
   0   2.0000     -14.228773      -387.1846 
   1   2.0000     -10.123850      -275.4840 
   2   2.0000     -10.123843      -275.4838 
   3   2.0000     -10.099373      -274.8179 
   4   2.0000     -10.099232      -274.8141 
   5   2.0000      -0.892389       -24.2831 
   6   2.0000      -0.725841       -19.7511 
   7   2.0000      -0.689116       -18.7518 
   8   2.0000      -0.573216       -15.5980 
   9   2.0000      -0.547025       -14.8853 
  10   2.0000      -0.478761       -13.0277 
  11   2.0000      -0.441140       -12.0040 
  12   2.0000      -0.404092       -10.9959 
  13   2.0000      -0.401209       -10.9175 
  14   2.0000      -0.347416        -9.4537 
  15   2.0000      -0.327984        -8.9249 
  16   2.0000      -0.315425        -8.5831 
  17   2.0000      -0.314437        -8.5563 
  18   2.0000      -0.292863        -7.9692 
  19   2.0000      -0.215715        -5.8699 
  20   0.0000      -0.003512        -0.0956 
  21   0.0000       0.012281         0.3342 
  22   0.0000       0.017135         0.4663 
  23   0.0000       0.017538         0.4772 
  24   0.0000       0.038138         1.0378 
  25   0.0000       0.040198         1.0939 
  26   0.0000       0.042828         1.1654 
  27   0.0000       0.043642         1.1876 
  28   0.0000       0.055801         1.5184 
  29   0.0000       0.071488         1.9453 
  30   0.0000       0.078515         2.1365 
*Only the first 10 virtual orbitals were printed.

                    ********************************
                    * MULLIKEN POPULATION ANALYSIS *
                    ********************************

-----------------------
MULLIKEN ATOMIC CHARGES
-----------------------
   0 C :    0.182529
   1 N :   -0.477253
   2 H :   -0.010515
   3 C :    0.184062
   4 C :   -0.080722
   5 C :   -0.079476
   6 H :    0.031575
   7 H :    0.019829
   8 H :    0.032374
   9 H :    0.019119
  10 H :    0.069477
  11 H :    0.020094
  12 H :    0.068517
  13 H :    0.020390
Sum of atomic charges:   -0.0000000

--------------------------------
MULLIKEN REDUCED ORBITAL CHARGES
--------------------------------
  0 C s       :     3.020086  s :     3.020086
      pz      :     0.960030  p :     2.639262
      px      :     0.825068
      py      :     0.854165
      dz2     :     0.032686  d :     0.137880
      dxz     :     0.006071
      dyz     :     0.028528
      dx2y2   :     0.053709
      dxy     :     0.016886
      f0      :     0.004007  f :     0.020243
      f+1     :     0.001924
      f-1     :    -0.003658
      f+2     :     0.005648
      f-2     :     0.003405
      f+3     :     0.003148
      f-3     :     0.005770

  1 N s       :     3.804414  s :     3.804414
      pz      :     1.045898  p :     3.539602
      px      :     1.431514
      py      :     1.062190
      dz2     :     0.012819  d :     0.125640
      dxz     :     0.010643
      dyz     :     0.036453
      dx2y2   :     0.036339
      dxy     :     0.029386
      f0      :    -0.000192  f :     0.007598
      f+1     :     0.000240
      f-1     :     0.001320
      f+2     :     0.000443
      f-2     :     0.001467
      f+3     :     0.000796
      f-3     :     0.003525

  2 H s       :     0.892773  s :     0.892773
      pz      :     0.005780  p :     0.091442
      px      :     0.053207
      py      :     0.032455
      dz2     :     0.004230  d :     0.026300
      dxz     :     0.011696
      dyz     :     0.007570
      dx2y2   :     0.000980
      dxy     :     0.001824

  3 C s       :     3.019288  s :     3.019288
      pz      :     0.960190  p :     2.639046
      px      :     0.825369
      py      :     0.853486
      dz2     :     0.032203  d :     0.137358
      dxz     :     0.006120
      dyz     :     0.028241
      dx2y2   :     0.053778
      dxy     :     0.017014
      f0      :     0.004018  f :     0.020247
      f+1     :     0.001895
      f-1     :    -0.003657
      f+2     :     0.005636
      f-2     :     0.003394
      f+3     :     0.003193
      f-3     :     0.005769

  4 C s       :     3.095916  s :     3.095916
      pz      :     0.983535  p :     2.865493
      px      :     0.942340
      py      :     0.939618
      dz2     :     0.011964  d :     0.107134
      dxz     :     0.019719
      dyz     :     0.018013
      dx2y2   :     0.029752
      dxy     :     0.027686
      f0      :     0.002856  f :     0.012178
      f+1     :     0.002528
      f-1     :     0.001352
      f+2     :     0.000683
      f-2     :     0.002502
      f+3     :     0.000957
      f-3     :     0.001299

  5 C s       :     3.095891  s :     3.095891
      pz      :     0.983262  p :     2.865038
      px      :     0.942274
      py      :     0.939502
      dz2     :     0.011920  d :     0.106358
      dxz     :     0.019120
      dyz     :     0.017868
      dx2y2   :     0.029841
      dxy     :     0.027609
      f0      :     0.002872  f :     0.012189
      f+1     :     0.002506
      f-1     :     0.001341
      f+2     :     0.000690
      f-2     :     0.002496
      f+3     :     0.000953
      f-3     :     0.001332

  6 H s       :     0.909382  s :     0.909382
      pz      :     0.010536  p :     0.047196
      px      :     0.017545
      py      :     0.019115
      dz2     :     0.001452  d :     0.011846
      dxz     :     0.004306
      dyz     :     0.002968
      dx2y2   :     0.002740
      dxy     :     0.000380

  7 H s       :     0.926762  s :     0.926762
      pz      :     0.006767  p :     0.041698
      px      :     0.018109
      py      :     0.016822
      dz2     :     0.004000  d :     0.011712
      dxz     :     0.000336
      dyz     :     0.001649
      dx2y2   :     0.004529
      dxy     :     0.001198

  8 H s       :     0.908585  s :     0.908585
      pz      :     0.010486  p :     0.047204
      px      :     0.017638
      py      :     0.019080
      dz2     :     0.001498  d :     0.011836
      dxz     :     0.004262
      dyz     :     0.002932
      dx2y2   :     0.002764
      dxy     :     0.000381

  9 H s       :     0.927390  s :     0.927390
      pz      :     0.006845  p :     0.041768
      px      :     0.018032
      py      :     0.016891
      dz2     :     0.003980  d :     0.011723
      dxz     :     0.000358
      dyz     :     0.001680
      dx2y2   :     0.004507
      dxy     :     0.001197

 10 H s       :     0.882139  s :     0.882139
      pz      :     0.009305  p :     0.040080
      px      :     0.019046
      py      :     0.011728
      dz2     :    -0.000402  d :     0.008305
      dxz     :     0.003385
      dyz     :     0.003837
      dx2y2   :     0.001329
      dxy     :     0.000156

 11 H s       :     0.946432  s :     0.946432
      pz      :     0.006250  p :     0.026954
      px      :     0.010135
      py      :     0.010569
      dz2     :     0.002956  d :     0.006520
      dxz     :     0.001044
      dyz     :    -0.000522
      dx2y2   :     0.000511
      dxy     :     0.002532

 12 H s       :     0.883342  s :     0.883342
      pz      :     0.009239  p :     0.039829
      px      :     0.018966
      py      :     0.011624
      dz2     :    -0.000403  d :     0.008311
      dxz     :     0.003402
      dyz     :     0.003828
      dx2y2   :     0.001330
      dxy     :     0.000154

 13 H s       :     0.946069  s :     0.946069
      pz      :     0.006229  p :     0.027012
      px      :     0.010138
      py      :     0.010646
      dz2     :     0.002955  d :     0.006528
      dxz     :     0.001037
      dyz     :    -0.000514
      dx2y2   :     0.000514
      dxy     :     0.002537



                     *******************************
                     * LOEWDIN POPULATION ANALYSIS *
                     *******************************

----------------------
LOEWDIN ATOMIC CHARGES
----------------------
   0 C :    0.149468
   1 N :    0.536825
   2 H :   -0.293525
   3 C :    0.149689
   4 C :    0.301326
   5 C :    0.301154
   6 H :   -0.147278
   7 H :   -0.145319
   8 H :   -0.147325
   9 H :   -0.145407
  10 H :   -0.143770
  11 H :   -0.136124
  12 H :   -0.143645
  13 H :   -0.136071

-------------------------------
LOEWDIN REDUCED ORBITAL CHARGES
-------------------------------
  0 C s       :     2.430634  s :     2.430634
      pz      :     0.757847  p :     2.188449
      px      :     0.706994
      py      :     0.723608
      dz2     :     0.175845  d :     0.829717
      dxz     :     0.129116
      dyz     :     0.121899
      dx2y2   :     0.217449
      dxy     :     0.185407
      f0      :     0.043149  f :     0.401733
      f+1     :     0.040084
      f-1     :     0.038620
      f+2     :     0.054722
      f-2     :     0.048298
      f+3     :     0.075199
      f-3     :     0.101661

  1 N s       :     2.671399  s :     2.671399
      pz      :     0.968081  p :     2.964219
      px      :     1.098308
      py      :     0.897830
      dz2     :     0.150324  d :     0.607030
      dxz     :     0.045747
      dyz     :     0.124512
      dx2y2   :     0.162561
      dxy     :     0.123887
      f0      :     0.022659  f :     0.220526
      f+1     :     0.015912
      f-1     :     0.039052
      f+2     :     0.014132
      f-2     :     0.032852
      f+3     :     0.031898
      f-3     :     0.064021

  2 H s       :     0.587040  s :     0.587040
      pz      :     0.191966  p :     0.414866
      px      :     0.127062
      py      :     0.095838
      dz2     :     0.084876  d :     0.291619
      dxz     :     0.098934
      dyz     :     0.088271
      dx2y2   :     0.009780
      dxy     :     0.009758

  3 C s       :     2.430654  s :     2.430654
      pz      :     0.758012  p :     2.188479
      px      :     0.706960
      py      :     0.723507
      dz2     :     0.175080  d :     0.829485
      dxz     :     0.129143
      dyz     :     0.122521
      dx2y2   :     0.217432
      dxy     :     0.185309
      f0      :     0.043251  f :     0.401694
      f+1     :     0.039819
      f-1     :     0.038613
      f+2     :     0.054760
      f-2     :     0.048287
      f+3     :     0.075239
      f-3     :     0.101724

  4 C s       :     2.438634  s :     2.438634
      pz      :     0.770836  p :     2.228019
      px      :     0.736335
      py      :     0.720847
      dz2     :     0.093876  d :     0.706262
      dxz     :     0.142645
      dyz     :     0.140892
      dx2y2   :     0.159153
      dxy     :     0.169696
      f0      :     0.036318  f :     0.325759
      f+1     :     0.034630
      f-1     :     0.026415
      f+2     :     0.052819
      f-2     :     0.032908
      f+3     :     0.081115
      f-3     :     0.061555

  5 C s       :     2.438612  s :     2.438612
      pz      :     0.770698  p :     2.227988
      px      :     0.736433
      py      :     0.720857
      dz2     :     0.094468  d :     0.706465
      dxz     :     0.142187
      dyz     :     0.140785
      dx2y2   :     0.159171
      dxy     :     0.169853
      f0      :     0.036409  f :     0.325781
      f+1     :     0.034665
      f-1     :     0.026316
      f+2     :     0.052849
      f-2     :     0.032871
      f+3     :     0.081086
      f-3     :     0.061585

  6 H s       :     0.632758  s :     0.632758
      pz      :     0.132309  p :     0.296854
      px      :     0.079736
      py      :     0.084809
      dz2     :     0.071800  d :     0.217666
      dxz     :     0.058457
      dyz     :     0.046755
      dx2y2   :     0.030099
      dxy     :     0.010555

  7 H s       :     0.637189  s :     0.637189
      pz      :     0.115535  p :     0.293425
      px      :     0.095118
      py      :     0.082771
      dz2     :     0.073595  d :     0.214705
      dxz     :     0.035983
      dyz     :     0.029775
      dx2y2   :     0.050490
      dxy     :     0.024862

  8 H s       :     0.632858  s :     0.632858
      pz      :     0.132132  p :     0.296846
      px      :     0.079831
      py      :     0.084883
      dz2     :     0.071969  d :     0.217621
      dxz     :     0.058067
      dyz     :     0.046477
      dx2y2   :     0.030381
      dxy     :     0.010727

  9 H s       :     0.637141  s :     0.637141
      pz      :     0.115812  p :     0.293498
      px      :     0.095001
      py      :     0.082685
      dz2     :     0.073758  d :     0.214768
      dxz     :     0.036062
      dyz     :     0.030053
      dx2y2   :     0.050225
      dxy     :     0.024670

 10 H s       :     0.631776  s :     0.631776
      pz      :     0.139722  p :     0.292883
      px      :     0.077632
      py      :     0.075529
      dz2     :     0.059727  d :     0.219111
      dxz     :     0.062808
      dyz     :     0.074462
      dx2y2   :     0.013913
      dxy     :     0.008202

 11 H s       :     0.639594  s :     0.639594
      pz      :     0.098992  p :     0.283220
      px      :     0.076628
      py      :     0.107600
      dz2     :     0.057313  d :     0.213310
      dxz     :     0.013432
      dyz     :     0.045029
      dx2y2   :     0.046030
      dxy     :     0.051505

 12 H s       :     0.631740  s :     0.631740
      pz      :     0.139734  p :     0.292820
      px      :     0.077557
      py      :     0.075530
      dz2     :     0.059605  d :     0.219085
      dxz     :     0.062968
      dyz     :     0.074542
      dx2y2   :     0.013838
      dxy     :     0.008131

 13 H s       :     0.639607  s :     0.639607
      pz      :     0.098833  p :     0.283176
      px      :     0.076625
      py      :     0.107718
      dz2     :     0.057087  d :     0.213287
      dxz     :     0.013372
      dyz     :     0.045139
      dx2y2   :     0.046103
      dxy     :     0.051586



                      *****************************
                      * MAYER POPULATION ANALYSIS *
                      *****************************

  NA   - Mulliken gross atomic population
  ZA   - Total nuclear charge
  QA   - Mulliken gross atomic charge
  VA   - Mayer's total valence
  BVA  - Mayer's bonded valence
  FA   - Mayer's free valence

  ATOM       NA         ZA         QA         VA         BVA        FA
  0 C      5.8175     6.0000     0.1825     4.0760     4.0760     0.0000
  1 N      7.4773     7.0000    -0.4773     2.7708     2.7708    -0.0000
  2 H      1.0105     1.0000    -0.0105     1.0474     1.0474    -0.0000
  3 C      5.8159     6.0000     0.1841     4.0734     4.0734    -0.0000
  4 C      6.0807     6.0000    -0.0807     4.3343     4.3343    -0.0000
  5 C      6.0795     6.0000    -0.0795     4.3309     4.3309     0.0000
  6 H      0.9684     1.0000     0.0316     1.0196     1.0196     0.0000
  7 H      0.9802     1.0000     0.0198     1.0123     1.0123    -0.0000
  8 H      0.9676     1.0000     0.0324     1.0192     1.0192     0.0000
  9 H      0.9809     1.0000     0.0191     1.0132     1.0132    -0.0000
 10 H      0.9305     1.0000     0.0695     0.9977     0.9977     0.0000
 11 H      0.9799     1.0000     0.0201     0.9744     0.9744    -0.0000
 12 H      0.9315     1.0000     0.0685     0.9975     0.9975     0.0000
 13 H      0.9796     1.0000     0.0204     0.9750     0.9750    -0.0000

  Mayer bond orders larger than 0.100000
B(  0-C ,  1-N ) :   0.8249 B(  0-C ,  5-C ) :   1.0804 B(  0-C , 12-H ) :   0.9514 
B(  0-C , 13-H ) :   0.9831 B(  1-N ,  2-H ) :   0.9098 B(  1-N ,  3-C ) :   0.8224 
B(  3-C ,  4-C ) :   1.0813 B(  3-C , 10-H ) :   0.9513 B(  3-C , 11-H ) :   0.9831 
B(  4-C ,  5-C ) :   1.1010 B(  4-C ,  8-H ) :   0.9940 B(  4-C ,  9-H ) :   0.9523 
B(  5-C ,  6-H ) :   0.9943 B(  5-C ,  7-H ) :   0.9515 

-------
TIMINGS
-------

Total SCF time: 0 days 0 hours 1 min 41 sec 

Total time                  ....     101.915 sec
Sum of individual times     ....     101.344 sec  ( 99.4%)

SCF preparation             ....       0.743 sec  (  0.7%)
Fock matrix formation       ....      95.180 sec  ( 93.4%)
  Startup                   ....       0.570 sec  (  0.6% of F)
  Split-RI-J                ....       6.025 sec  (  6.3% of F)
  Chain of spheres X        ....      49.672 sec  ( 52.2% of F)
  XC integration            ....      34.238 sec  ( 36.0% of F)
    XC Preparation          ....       0.000 sec  (  0.0% of XC)
    Basis function eval.    ....       3.653 sec  ( 10.7% of XC)
    Density eval.           ....       9.957 sec  ( 29.1% of XC)
    XC-Functional eval.     ....       0.731 sec  (  2.1% of XC)
    XC-Potential eval.      ....      18.351 sec  ( 53.6% of XC)
  CPCM terms                ....       3.264 sec  (  3.4% of F)
Diagonalization             ....       0.000 sec  (  0.0%)
Density matrix formation    ....       1.179 sec  (  1.2%)
Total Energy calculation    ....       0.583 sec  (  0.6%)
Population analysis         ....       0.205 sec  (  0.2%)
Orbital Transformation      ....       0.238 sec  (  0.2%)
Orbital Orthonormalization  ....       0.000 sec  (  0.0%)
DIIS solution               ....       2.706 sec  (  2.7%)
SOSCF solution              ....       0.510 sec  (  0.5%)
Finished LeanSCF after 102.1 sec

Maximum memory used throughout the entire LEANSCF-calculation: 50.8 MB


-------------------------------------------------------------------------------
                          DFT DISPERSION CORRECTION                            
                                                                               
                              DFTD3 V3.1  Rev 1                                
                          USING Becke-Johnson damping                          
-------------------------------------------------------------------------------
The TPSSH functional is recognized
Active option DFTDOPT                   ...         4   

molecular C6(AA) [au] = 1352.692438 


            DFT-D V3
 parameters
 s6 scaling factor         :     1.0000 
 a1 scaling factor         :     0.4529 
 s8 scaling factor         :     2.2382 
 a2 scaling factor         :     4.6550 
 ad hoc parameters k1-k3   :    16.0000     1.3333    -4.0000 

 Edisp/kcal,au: -7.496628920982  -0.011946637352 
 E6   /kcal   :  -3.764030571 
 E8   /kcal   :  -3.732598350 
 % E8         :  49.790357637 

-------------------------   ----------------
Dispersion correction           -0.011946637
-------------------------   ----------------


-------------------------   --------------------
FINAL SINGLE POINT ENERGY      -212.696469915862
-------------------------   --------------------



           ************************************************************
           *        Program running with 4 parallel MPI-processes     *
           *              working on a common directory               *
           ************************************************************

------------------------------------------------------------------------------
                              ORCA PROPERTY CALCULATIONS
------------------------------------------------------------------------------

GBWName                                 ... cs_rporg_072_red_solv_01.gbw
Number of atoms                         ...     14
Number of basis functions               ...    467
Max core memory                         ...   3000 MB

Electric properties:
Dipole moment                           ... YES
Quadrupole moment                       ...  NO
Static polarizability (Dipole/Dipole)   ...  NO
Static polarizability (Dipole/Quad.)    ...  NO
Static polarizability (Quad./Quad.)     ...  NO
Static polarizability (Velocity)        ...  NO

Atomic electric properties:
Dipole moment                           ...  NO
Quadrupole moment                       ...  NO
Static polarizability                   ...  NO

Choice of electric origin               ... Center of mass
Position of electric origin             ...     0.003409    -0.000079    -0.001294

General magnetic properties:
Magnetizability                         ...  NO

EPR properties:
g-Tensor (aka g-matrix)                 ...  NO
Zero-Field splitting spin-orbit         ...  NO
Zero-field splitting spin-spin          ...  NO
Hyperfine couplings                     ...  NO (   0 nuclei)
Quadrupole couplings                    ...  NO (   0 nuclei)
Contact density                         ...  NO (   0 nuclei)

NMR properties:
Chemical shifts                         ...  NO (   0 nuclei)
Spin-rotation constants                 ...  NO (   0 nuclei)
Spin-spin couplings                     ...  NO (   0 nuclei,    0 pairs)

Choice of magnetic origin               ... GIAO
Position of magnetic origin             ...     0.000000     0.000000     0.000000

Properties with geometric perturbations:
SCF Hessian                             ...  NO
IR spectrum                             ...  NO
VCD spectrum                            ...  NO
X-ray spectroscopy properties:
SCF XES/XAS/RIXS spectra                ...  NO


-------------
DIPOLE MOMENT
-------------

Method             : SCF
Type of density    : Electron Density
Multiplicity       :   1
Irrep              :   0
Energy             :  -212.6845232785099711 Eh
Relativity type    : 
Basis              : AO
                                X                 Y                 Z
Electronic contribution:      1.471943137      -0.000968142       0.336456447
Nuclear contribution   :     -2.069088816       0.000471850       0.035748568
                        -----------------------------------------
Total Dipole Moment    :     -0.597145679      -0.000496292       0.372205015
                        -----------------------------------------
Magnitude (a.u.)       :      0.703647484
Magnitude (Debye)      :      1.788529768



--------------------
Rotational spectrum 
--------------------
 
Rotational constants in cm-1:             0.230180             0.223654             0.130688 
Rotational constants in MHz :          6900.610800          6704.969164          3917.942142 

Dipole components along the rotational axes: 
x,y,z [a.u.] :     0.596115    -0.000658     0.373853 
x,y,z [Debye]:     1.515204    -0.001672     0.950260 

 

Dipole moment calculation done in   0.1 sec 

Maximum memory used throughout the entire PROP-calculation: 29.1 MB

--------------------------------
SUGGESTED CITATIONS FOR THIS RUN
--------------------------------

Below you find a list of papers that are relevant to this ORCA run
We neither can nor want to force you to cite these papers, but we appreciate if you do
You receive ORCA, which is the product of decades of hard work by many enthusiastic individuals, for free
The only thing we kindly ask in return is that you cite our papers,
We deeply appreciate it, if you show your appreciation for ORCA by not just citing the generic ORCA reference.

Please note that relegating all ORCA citations to the supporting information does *not* help us.
SI sections are not indexed - citations you put there will not count into any citation statistics
But we need these citations in order to attract the funding resources that allow us to do what we are doing

Therefore, if you are a happy ORCA user, please consider citing a few of the papers listed below in the main body of your paper

In addition to the list printed below, the program has created the file cs_rporg_072_red_solv_01.bibtex that contains the list in bibtex format
You can import this file easily into all common literature databanks and citation aid programs


List of essential papers. We consider these as the minimum necessary citations

  1. Neese,F.
     Software update: the ORCA program system, version 5.0
     WIRES Comput. Molec. Sci., 2022 12(1)e1606
     doi.org/10.1002/wcms.1606

List of papers to cite with high priority. The work reported in these papers was absolutely
necessary for this run to complete.
Our perspective: the developers of density functionals and basis sets usually get cited in chemistry papers
Good! But without the algorithms to do something with them, the functionals or basis sets would not do anything.
Hence, in our opinion, the algorithm design and method developments papers are equally worthy of getting cited

  1. Neese,F.
     An improvement of the resolution of the identity approximation for the formation of the Coulomb matrix
     J. Comp. Chem., 2003 24(14)1740-1747
     doi.org/10.1002/jcc.10318
  2. Neese,F.; Wennmohs,F.; Hansen,A.; Becker,U.
     Efficient, approximate and parallel Hartree-Fock and hybrid DFT calculations. A 'chain-of-spheres' algorithm for the Hartree-Fock exchange
     Chem. Phys., 2009 356(1-3)98-109
     doi.org/10.1016/j.chemphys.2008.10.036
  3. Garcia-Rates,M.; Neese,F.
     Effect of the Solute Cavity on the Solvation Energy and its Derivatives within the Framework of the Gaussian Charge Scheme
     J. Comput. Chem., 2020 41 922-939
     doi.org/10.1002/jcc.26139
  4. Helmich-Paris,B.; de Souza,B.; Neese,F.; Izsák,R.
     An improved chain of spheres for exchange algorithm
     J. Chem. Phys., 2021 155 104109
     doi.org/doi: 10.1063/5.0058766.
  5. Neese,F.
     The SHARK Integral Generation and Digestion System
     J. Comp. Chem., 2022  1-16
     doi.org/10.1002/jcc.26942
  6. Grimme,S.; Antony,J.; Ehrlich,S.; Krieg,H.
     A consistent and accurate ab initio parametrization of density functional dispersion correction (DFT-D) for the 94 elements H-Pu
     J. Chem. Phys., 2010 132 154104-XXXX
     doi.org/10.1063/1.3382344
  7. Grimme,S.; Ehrlich,S.; Goerigk,L.
     Effect of the damping function in dispersion corrected density functional theory
     J. Comput. Chem., 2011 32(7)1456-1465
     doi.org/10.1002/jcc.21759

List of suggested additional citations. These are papers that are important in the 'surrounding' of 
of this run, or papers that preceded the highly important papers. If you like your results we are grateful for a citation.

  1. Izsak,R.; Neese,F.
     An overlap fitted chain of spheres exchange method
     J. Chem. Phys., 2011 135 144105
     doi.org/10.1063/1.3646921
  2. Izsak,R.; Hansen,A.; Neese,F.
     The resolution of identity and chain of spheres approximations for the LPNO-CCSD singles Fock term
     Molec. Phys., 2012 110 2413-2417
     doi.org/10.1080/00268976.2012.687466
  3. Neese,F.
     The ORCA program system
     WIRES Comput. Molec. Sci., 2012 2(1)73-78
     doi.org/10.1002/wcms.81
  4. Izsak,R.; Neese,F.; Klopper,W.
     Robust fitting techniques in the chain of spheres approximation to the Fock exchange: The role of the complementary space
     J. Chem. Phys., 2013 139 
     doi.org/10.1063/1.4819264
  5. Neese,F.
     Software update: the ORCA program system, version 4.0
     WIRES Comput. Molec. Sci., 2018 8(1)1-6
     doi.org/10.1002/wcms.1327
  6. Neese,F.; Wennmohs,F.; Becker,U.; Riplinger,C.
     The ORCA quantum chemistry program package
     J. Chem. Phys., 2020 152 Art. No. L224108
     doi.org/10.1063/5.0004608

List of optional additional citations

  1. Neese,F.
     Approximate second-order SCF convergence for spin unrestricted wavefunctions
     Chem. Phys. Lett., 2000 325(1-3)93-98
     doi.org/10.1016/s0009-2614(00)00662-x

Timings for individual modules:

Sum of individual times          ...      113.308 sec (=   1.888 min)
Startup calculation              ...        5.261 sec (=   0.088 min)   4.6 %
SCF iterations                   ...      106.297 sec (=   1.772 min)  93.8 %
Property calculations            ...        1.750 sec (=   0.029 min)   1.5 %
                             ****ORCA TERMINATED NORMALLY****
TOTAL RUN TIME: 0 days 0 hours 1 minutes 55 seconds 920 msec
