
                                 *****************
                                 * O   R   C   A *
                                 *****************

                                            #,                                       
                                            ###                                      
                                            ####                                     
                                            #####                                    
                                            ######                                   
                                           ########,                                 
                                     ,,################,,,,,                         
                               ,,#################################,,                 
                          ,,##########################################,,             
                       ,#########################################, ''#####,          
                    ,#############################################,,   '####,        
                  ,##################################################,,,,####,       
                ,###########''''           ''''###############################       
              ,#####''   ,,,,##########,,,,          '''####'''          '####       
            ,##' ,,,,###########################,,,                        '##       
           ' ,,###''''                  '''############,,,                           
         ,,##''                                '''############,,,,        ,,,,,,###''
      ,#''                                            '''#######################'''  
     '                                                          ''''####''''         
             ,#######,   #######,   ,#######,      ##                                
            ,#'     '#,  ##    ##  ,#'     '#,    #''#        ,####,   ,####,        
            ##       ##  ##   ,#'  ##            #'  '#       #'       #'  '#        
            ##       ##  #######   ##           ,######,      #####,   #    #        
            '#,     ,#'  ##    ##  '#,     ,#' ,#      #,     #,   #   #,  ,#        
             '#######'   ##     ##  '#######'  #'      '#     '####' # '####'        



                #########################################################
                #                        -***-                          #
                #          Department of theory and spectroscopy        #
                #                                                       #
                #                      Frank Neese                      #
                #                                                       #
                #     Directorship, Architecture, Infrastructure        #
                #                    SHARK, DRIVERS                     #
                #        Core code/Algorithms in most modules           #
                #                                                       #
                #        Max Planck Institute fuer Kohlenforschung      #
                #                Kaiser Wilhelm Platz 1                 #
                #                 D-45470 Muelheim/Ruhr                 #
                #                      Germany                          #
                #                                                       #
                #                  All rights reserved                  #
                #                        -***-                          #
                #########################################################


                         Program Version 6.0.0  -   RELEASE  -


 With contributions from (in alphabetic order):
   Daniel Aravena         : Magnetic Suceptibility
   Michael Atanasov       : Ab Initio Ligand Field Theory (pilot matlab implementation)
   Alexander A. Auer      : GIAO ZORA, VPT2 properties, NMR spectrum
   Ute Becker             : All parallelization in ORCA, NUMFREQ, NUMCALC
   Giovanni Bistoni       : ED, misc. LED, open-shell LED, HFLD
   Martin Brehm           : Molecular dynamics
   Dmytro Bykov           : pre 5.0 version of the SCF Hessian
   Marcos Casanova-Páez   : Triplet and SCS-CIS(D). UHF-(DLPNO)-IP/EA/STEOM-CCSD. UHF-CVS-IP/STEOM-CCSD
   Vijay G. Chilkuri      : MRCI spin determinant printing, contributions to CSF-ICE
   Pauline Colinet        : FMM embedding
   Dipayan Datta          : RHF DLPNO-CCSD density
   Achintya Kumar Dutta   : EOM-CC, STEOM-CC
   Nicolas Foglia         : Exact transition moments, OPA infrastructure, MCD improvements
   Dmitry Ganyushin       : Spin-Orbit,Spin-Spin,Magnetic field MRCI
   Miquel Garcia          : C-PCM and meta-GGA Hessian, CCSD/C-PCM, Gaussian charge scheme
   Tiago L. C. Gouveia    : GS-ROHF, GS-ROCIS
   Yang Guo               : DLPNO-NEVPT2, F12-NEVPT2, CIM, IAO-localization
   Andreas Hansen         : Spin unrestricted coupled pair/coupled cluster methods
   Ingolf Harden          : AUTO-CI MPn and infrastructure 
   Benjamin Helmich-Paris : MC-RPA, TRAH-(SCF,CASSCF), AVAS, COSX integrals, SCF dyn. polar.
   Lee Huntington         : MR-EOM, pCC
   Robert Izsak           : Overlap fitted RIJCOSX, COSX-SCS-MP3, EOM
   Riya Kayal             : Wick's Theorem for AUTO-CI, AUTO-CI UHF-CCSDT
   Emily Kempfer          : AUTO-CI, RHF CISDT and CCSDT
   Christian Kollmar      : KDIIS, OOCD, Brueckner-CCSD(T), CCSD density, CASPT2, CASPT2-K, improved NEVPT2
   Axel Koslowski         : Symmetry handling
   Simone Kossmann        : Meta GGA functionals, TD-DFT gradient, OOMP2, (MP2 Hessian; deprecated post 5.0)
   Lucas Lang             : DCDCAS
   Marvin Lechner         : AUTO-CI (C++ implementation), FIC-MRCC
   Spencer Leger          : CASSCF response
   Dagmar Lenk            : GEPOL surface, SMD, ORCA-2-JSON
   Dimitrios Liakos       : Extrapolation schemes; Compound Job, initial MDCI parallelization
   Dimitrios Manganas     : Further ROCIS development; embedding schemes. LFT, Crystal Embedding
   Dimitrios Pantazis     : SARC Basis sets
   Anastasios Papadopoulos: AUTO-CI, single reference methods and gradients
   Taras Petrenko         : pre 6.0 DFT Hessian and TD-DFT gradient, (ASA, deprecated), ECA, 1-Electron XAS/XES, NRVS
   Peter Pinski           : DLPNO-MP2, DLPNO-MP2 Gradient
   Christoph Reimann      : Effective Core Potentials
   Marius Retegan         : Local ZFS, SOC
   Christoph Riplinger    : Optimizer, TS searches, QM/MM, DLPNO-CCSD(T), (RO)-DLPNO pert. Triples
   Michael Roemelt        : Original ROCIS implementation
   Masaaki Saitow         : Open-shell DLPNO-CCSD energy and density
   Barbara Sandhoefer     : DKH picture change effects
   Kantharuban Sivalingam : CASSCF convergence/infrastructure, NEVPT2 and variants, FIC-MRCI
   Bernardo de Souza      : ESD, SOC TD-DFT
   Georgi Stoychev        : AutoAux, RI-MP2 NMR, DLPNO-MP2 response, X2C
   Van Anh Tran           : RI-MP2 g-tensors
   Willem Van den Heuvel  : Paramagnetic NMR
   Zikuan Wang            : NOTCH, Electric field optimization 
   Frank Wennmohs         : Technical directorship and infrastructure
   Hang Xu                : AUTO-CI-Response properties 


 We gratefully acknowledge several colleagues who have allowed us to
 interface, adapt or use parts of their codes:
   Stefan Grimme, W. Hujo, H. Kruse, P. Pracht,  : VdW corrections, initial TS optimization,
                  C. Bannwarth, S. Ehlert,         DFT functionals, gCP, sTDA/sTD-DF
                  L. Wittmann, M. Mueller
   Ed Valeev, F. Pavosevic, A. Kumar             : LibInt (2-el integral package), F12 methods
   Garnet Chan, S. Sharma, J. Yang, R. Olivares  : DMRG
   Ulf Ekstrom                                   : XCFun DFT Library
   Mihaly Kallay                                 : mrcc  (arbitrary order and MRCC methods)
   Frank Weinhold                                : gennbo (NPA and NBO analysis)
   Simon Mueller                                 : openCOSMO-RS
   Christopher J. Cramer and Donald G. Truhlar   : smd solvation model
   Lars Goerigk                                  : TD-DFT with DH, B97 family of functionals
   V. Asgeirsson, H. Jonsson                     : NEB implementation
   FAccTs GmbH                                   : IRC, NEB, NEB-TS, DLPNO-Multilevel, CI-OPT
                                                   MM, QMMM, 2- and 3-layer-ONIOM, Crystal-QMMM,
                                                   LR-CPCM, SF, NACMEs, symmetry and pop. for TD-DFT,
                                                   nearIR, NL-DFT gradient (VV10), updates on ESD,
                                                   ML-optimized integration grids, MBIS, APM,
                                                   GOAT, DOCKER, SOLVATOR, interface openCOSMO-RS
   S Lehtola, MJT Oliveira, MAL Marques          : LibXC Library
   Liviu Ungur et al                             : ANISO software


 Your calculation uses the libint2 library for the computation of 2-el integrals
 For citations please refer to: http://libint.valeyev.net

 Your ORCA version has been built with support for libXC version: 6.2.2
 For citations please refer to: https://libxc.gitlab.io

 This ORCA versions uses:
   CBLAS   interface :  Fast vector & matrix operations
   LAPACKE interface :  Fast linear algebra routines
   SCALAPACK package :  Parallel linear algebra routines
   Shared memory     :  Shared parallel matrices
   BLAS/LAPACK       :  OpenBLAS 0.3.27  USE64BITINT DYNAMIC_ARCH NO_AFFINITY Sandybridge SINGLE_THREADED
        Core in use  :  Sandybridge
   Copyright (c) 2011-2014, The OpenBLAS Project


NOTE: MaxCore=3000 MB was set to SCF,MP2,MDCI,CIPSI,MRCI and CIS
      => If you want to overwrite this, your respective input block should be placed after the MaxCore statement
Your calculation utilizes the atom-pairwise dispersion correction
with the Becke-Johnson damping scheme (D3BJ)


Warning: RI is on but no J-basis has been assigned. Assigning Def2/J (nothing to worry about!)
================================================================================

----- Orbital basis set information -----
Your calculation utilizes the basis: def2-SV(P)
   F. Weigend and R. Ahlrichs, Phys. Chem. Chem. Phys. 7, 3297 (2005).

----- AuxJ basis set information -----
Your calculation utilizes the auxiliary basis: def2/J
   F. Weigend, Phys. Chem. Chem. Phys. 8, 1057 (2006).

================================================================================
                                        WARNINGS
                       Please study these warnings very carefully!
================================================================================

WARNING: Old DensityContainer found on disk!
         Will remove this file - 
         If you want to keep old densities, please start your calculation with a different basename. 


WARNING: your system is open-shell and RHF/RKS was chosen
  ===> : WILL SWITCH to UHF/UKS


WARNING: Geometry Optimization
  ===> : Switching off AutoStart
         For restart on a previous wavefunction, please use MOREAD

================================================================================
                                       INPUT FILE
================================================================================
NAME = cs_rporg_066_ox_opt_01.inp
|  1> !PBE0 def2-SV(p) Opt Freq d3 TightSCF SlowConv RIJCOSX defgrid2
|  2>  
|  3> %pal
|  4> nprocs 8
|  5> end
|  6>  
|  7> %scf
|  8> MaxIter 1500
|  9> end
| 10>  
| 11> %maxcore 3000
| 12>  
| 13> 
| 14>  
| 15> * xyz 1 2
| 16> 6       -0.496338000      1.230443800      0.060038600
| 17> 6       -1.874018000      1.218153600      0.074799400
| 18> 6       -2.576433000      0.000132400     -0.018876400
| 19> 6       -1.875241400     -1.217972800     -0.120192400
| 20> 6       -0.497479200     -1.230430200     -0.120471600
| 21> 6        0.232730600     -0.000042800     -0.034205000
| 22> 7        1.585330800     -0.000077400     -0.041622200
| 23> 6        2.332825400      1.249219600     -0.245308000
| 24> 1        3.405043600      1.028799800     -0.757000600
| 25> 1        1.689558000      1.941455200     -0.962734000
| 26> 1        2.499234600      1.741989000      0.832489800
| 27> 6        2.335035000     -1.249332200      0.154216600
| 28> 1        3.412391800     -1.028857600      0.653916800
| 29> 1        1.699932600     -1.941119800      0.878597400
| 30> 1        2.489739400     -1.742496400     -0.924752800
| 31> 1        0.023904400     -2.187463800     -0.238443200
| 32> 1       -2.423655400     -2.163761200     -0.209900200
| 33> 1       -3.669890000      0.000200200     -0.012888200
| 34> 1       -2.421307800      2.163999200      0.170589000
| 35> 1        0.026463200      2.187397800      0.172386400
| 36> *
| 37> 
| 38>                          ****END OF INPUT****
================================================================================

                       *****************************
                       * Geometry Optimization Run *
                       *****************************

Geometry optimization settings:
Update method            Update   .... BFGS
Choice of coordinates    CoordSys .... (2022) Redundant Internals
Initial Hessian          InHess   .... Almloef's Model
Max. no of cycles        MaxIter  .... 60

Convergence Tolerances:
Energy Change            TolE     ....  5.0000e-06 Eh
Max. Gradient            TolMAXG  ....  3.0000e-04 Eh/bohr
RMS Gradient             TolRMSG  ....  1.0000e-04 Eh/bohr
Max. Displacement        TolMAXD  ....  4.0000e-03 bohr
RMS Displacement         TolRMSD  ....  2.0000e-03 bohr
Strict Convergence                .... False

------------------------------------------------------------------------------
                        ORCA OPTIMIZATION COORDINATE SETUP
------------------------------------------------------------------------------

The optimization will be done in redundant internal coordinates (2022)
Making redundant internal coordinates   ...  (2022 redundants) done
Evaluating the initial hessian          ...  (Almloef) done
Evaluating the coordinates              ...  done
Calculating the B-matrix                .... done
Calculating the G-matrix                .... done
Diagonalizing the G-matrix              .... done
Small eigenvalue found = 1.716e-02
The first mode is                       ....   37
The number of degrees of freedom        ....   54

    -----------------------------------------------------------------
                    Redundant Internal Coordinates


    -----------------------------------------------------------------
         Definition                    Initial Value    Approx d2E/dq
    -----------------------------------------------------------------
      1. B(C   1,C   0)                  1.3778         0.653402   
      2. B(C   2,C   1)                  1.4092         0.582327   
      3. B(C   3,C   2)                  1.4092         0.582344   
      4. B(C   4,C   3)                  1.3778         0.653391   
      5. B(C   5,C   0)                  1.4334         0.532796   
      6. B(C   5,C   4)                  1.4334         0.532809   
      7. B(N   6,C   5)                  1.3526         0.641966   
      8. B(C   7,N   6)                  1.4700         0.417059   
      9. B(H   8,C   7)                  1.2083         0.233148   
     10. B(H   9,C   7)                  1.1865         0.252656   
     11. B(H  10,C   7)                  1.1967         0.243300   
     12. B(C  11,N   6)                  1.4700         0.417024   
     13. B(H  12,C  11)                  1.2079         0.233524   
     14. B(H  13,C  11)                  1.1860         0.253060   
     15. B(H  14,C  11)                  1.1964         0.243615   
     16. B(H  15,C   4)                  1.0962         0.351981   
     17. B(H  16,C   3)                  1.0970         0.351010   
     18. B(H  17,C   2)                  1.0935         0.355534   
     19. B(H  18,C   1)                  1.0970         0.351007   
     20. B(H  19,C   0)                  1.0962         0.351962   
     21. A(C   5,C   0,H  19)          120.9013         0.342692   
     22. A(C   1,C   0,C   5)          120.1086         0.426412   
     23. A(C   1,C   0,H  19)          118.9178         0.354684   
     24. A(C   2,C   1,H  18)          120.1589         0.347689   
     25. A(C   0,C   1,H  18)          119.4794         0.354521   
     26. A(C   0,C   1,C   2)          120.3587         0.433269   
     27. A(C   3,C   2,H  17)          119.8702         0.348442   
     28. A(C   1,C   2,H  17)          119.8703         0.348441   
     29. A(C   1,C   2,C   3)          120.2595         0.424414   
     30. A(C   2,C   3,H  16)          120.1595         0.347691   
     31. A(C   2,C   3,C   4)          120.3584         0.433270   
     32. A(C   4,C   3,H  16)          119.4792         0.354520   
     33. A(C   5,C   4,H  15)          120.9033         0.342697   
     34. A(C   3,C   4,H  15)          118.9156         0.354686   
     35. A(C   3,C   4,C   5)          120.1091         0.426412   
     36. A(C   0,C   5,N   6)          120.5984         0.422301   
     37. A(C   0,C   5,C   4)          118.7989         0.411184   
     38. A(C   4,C   5,N   6)          120.6027         0.422302   
     39. A(C   5,N   6,C   7)          120.6119         0.401733   
     40. A(C   7,N   6,C  11)          118.7729         0.372641   
     41. A(C   5,N   6,C  11)          120.6152         0.401727   
     42. A(H   9,C   7,H  10)          112.3172         0.259464   
     43. A(H   8,C   7,H  10)          109.4576         0.256392   
     44. A(N   6,C   7,H  10)          107.2087         0.307953   
     45. A(H   8,C   7,H   9)          109.3579         0.257828   
     46. A(N   6,C   7,H   9)          107.6940         0.309831   
     47. A(N   6,C   7,H   8)          110.7849         0.305851   
     48. A(H  13,C  11,H  14)          112.3109         0.259576   
     49. A(H  12,C  11,H  14)          109.4511         0.256502   
     50. A(N   6,C  11,H  14)          107.2237         0.308013   
     51. A(H  12,C  11,H  13)          109.3546         0.257950   
     52. A(N   6,C  11,H  13)          107.6950         0.309907   
     53. A(N   6,C  11,H  12)          110.7855         0.305926   
     54. D(C   2,C   1,C   0,C   5)     -0.7771         0.029748   
     55. D(H  18,C   1,C   0,C   5)    178.5937         0.029748   
     56. D(C   2,C   1,C   0,H  19)   -177.7135         0.029748   
     57. D(H  18,C   1,C   0,H  19)      1.6572         0.029748   
     58. D(C   3,C   2,C   1,C   0)      0.3964         0.023306   
     59. D(C   3,C   2,C   1,H  18)   -178.9701         0.023306   
     60. D(H  17,C   2,C   1,H  18)      1.0278         0.023306   
     61. D(H  17,C   2,C   1,C   0)   -179.6057         0.023306   
     62. D(H  16,C   3,C   2,H  17)      1.0250         0.023308   
     63. D(H  16,C   3,C   2,C   1)   -178.9772         0.023308   
     64. D(C   4,C   3,C   2,H  17)   -179.6034         0.023308   
     65. D(C   4,C   3,C   2,C   1)      0.3944         0.023308   
     66. D(H  15,C   4,C   3,C   2)   -177.7172         0.029747   
     67. D(C   5,C   4,C   3,H  16)    178.5992         0.029747   
     68. D(C   5,C   4,C   3,C   2)     -0.7766         0.029747   
     69. D(H  15,C   4,C   3,H  16)      1.6587         0.029747   
     70. D(N   6,C   5,C   4,H  15)     -2.7287         0.019383   
     71. D(C   0,C   5,C   4,H  15)    177.2700         0.019383   
     72. D(C   0,C   5,C   4,C   3)      0.3912         0.019383   
     73. D(N   6,C   5,C   0,H  19)     -2.7365         0.019382   
     74. D(N   6,C   5,C   0,C   1)   -179.6112         0.019382   
     75. D(N   6,C   5,C   4,C   3)   -179.6075         0.019383   
     76. D(C   4,C   5,C   0,H  19)    177.2649         0.019382   
     77. D(C   4,C   5,C   0,C   1)      0.3902         0.019382   
     78. D(C  11,N   6,C   5,C   4)    -13.2894         0.033561   
     79. D(C  11,N   6,C   5,C   0)    166.7120         0.033561   
     80. D(C   7,N   6,C   5,C   4)    166.7274         0.033561   
     81. D(C   7,N   6,C   5,C   0)    -13.2712         0.033561   
     82. D(H   9,C   7,N   6,C   5)    -32.2233         0.014833   
     83. D(H   8,C   7,N   6,C  11)     28.2397         0.014833   
     84. D(H   8,C   7,N   6,C   5)   -151.7768         0.014833   
     85. D(H  10,C   7,N   6,C   5)     88.8463         0.014833   
     86. D(H   9,C   7,N   6,C  11)    147.7932         0.014833   
     87. D(H  14,C  11,N   6,C   5)     88.8477         0.014831   
     88. D(H  13,C  11,N   6,C   7)    147.7602         0.014831   
     89. D(H  13,C  11,N   6,C   5)    -32.2233         0.014831   
     90. D(H  12,C  11,N   6,C   7)     28.2096         0.014831   
     91. D(H  12,C  11,N   6,C   5)   -151.7739         0.014831   
    -----------------------------------------------------------------

Number of atoms                         .... 20
Number of degrees of freedom            .... 91


         *************************************************************
         *                GEOMETRY OPTIMIZATION CYCLE   1            *
         *************************************************************
---------------------------------
CARTESIAN COORDINATES (ANGSTROEM)
---------------------------------
  C     -0.496338    1.230444    0.060039
  C     -1.874018    1.218154    0.074799
  C     -2.576433    0.000132   -0.018876
  C     -1.875241   -1.217973   -0.120192
  C     -0.497479   -1.230430   -0.120472
  C      0.232731   -0.000043   -0.034205
  N      1.585331   -0.000077   -0.041622
  C      2.332825    1.249220   -0.245308
  H      3.405044    1.028800   -0.757001
  H      1.689558    1.941455   -0.962734
  H      2.499235    1.741989    0.832490
  C      2.335035   -1.249332    0.154217
  H      3.412392   -1.028858    0.653917
  H      1.699933   -1.941120    0.878597
  H      2.489739   -1.742496   -0.924753
  H      0.023904   -2.187464   -0.238443
  H     -2.423655   -2.163761   -0.209900
  H     -3.669890    0.000200   -0.012888
  H     -2.421308    2.163999    0.170589
  H      0.026463    2.187398    0.172386

----------------------------
CARTESIAN COORDINATES (A.U.)
----------------------------
  NO LB      ZA    FRAG     MASS         X           Y           Z
   0 C     6.0000    0    12.011   -0.937943    2.325202    0.113457
   1 C     6.0000    0    12.011   -3.541381    2.301977    0.141350
   2 C     6.0000    0    12.011   -4.868753    0.000250   -0.035671
   3 C     6.0000    0    12.011   -3.543693   -2.301635   -0.227131
   4 C     6.0000    0    12.011   -0.940099   -2.325176   -0.227658
   5 C     6.0000    0    12.011    0.439797   -0.000081   -0.064638
   6 N     7.0000    0    14.007    2.995841   -0.000146   -0.078655
   7 C     6.0000    0    12.011    4.408401    2.360683   -0.463565
   8 H     1.0000    0     1.008    6.434600    1.944150   -1.430524
   9 H     1.0000    0     1.008    3.192802    3.668819   -1.819304
  10 H     1.0000    0     1.008    4.722869    3.291882    1.573178
  11 C     6.0000    0    12.011    4.412577   -2.360896    0.291427
  12 H     1.0000    0     1.008    6.448486   -1.944259    1.235724
  13 H     1.0000    0     1.008    3.212407   -3.668185    1.660308
  14 H     1.0000    0     1.008    4.704926   -3.292841   -1.747530
  15 H     1.0000    0     1.008    0.045173   -4.133708   -0.450592
  16 H     1.0000    0     1.008   -4.580045   -4.088916   -0.396654
  17 H     1.0000    0     1.008   -6.935087    0.000378   -0.024355
  18 H     1.0000    0     1.008   -4.575609    4.089366    0.322366
  19 H     1.0000    0     1.008    0.050008    4.133583    0.325763

--------------------------------
INTERNAL COORDINATES (ANGSTROEM)
--------------------------------
 C      0   0   0     0.000000000000     0.00000000     0.00000000
 C      1   0   0     1.377813888968     0.00000000     0.00000000
 C      2   1   0     1.409162031627   120.35873449     0.00000000
 C      3   2   1     1.409153955405   120.25949018     0.39642112
 C      4   3   2     1.377818545570   120.35839963     0.39443828
 C      5   4   3     1.433353212705   120.10905700   359.22336198
 N      6   5   4     1.352620536992   120.60270053   180.39251203
 C      7   6   5     1.470026896475   120.61194422   166.72742138
 H      8   7   6     1.208331938475   110.78490423   208.22316329
 H      8   7   6     1.186458233267   107.69402144   327.77672562
 H      8   7   6     1.196729627404   107.20873792    88.84629356
 C      7   6   5     1.470049923780   120.61515644   346.71060692
 H     12   7   6     1.207893626786   110.78550456   208.22612370
 H     12   7   6     1.186023897486   107.69502960   327.77666532
 H     12   7   6     1.196377593270   107.22367494    88.84766580
 H      5   4   3     1.096207766933   118.91559537   182.28282636
 H      4   3   2     1.096959936530   120.15945509   181.02282612
 H      3   2   1     1.093473398847   119.87026600   180.39425056
 H      2   1   3     1.096962019257   119.47935074   179.37077225
 H      1   2   3     1.096222642077   118.91778064   182.28645684

---------------------------
INTERNAL COORDINATES (A.U.)
---------------------------
 C      0   0   0     0.000000000000     0.00000000     0.00000000
 C      1   0   0     2.603690913662     0.00000000     0.00000000
 C      2   1   0     2.662930318096   120.35873449     0.00000000
 C      3   2   1     2.662915056247   120.25949018     0.39642112
 C      4   3   2     2.603699713365   120.35839963     0.39443828
 C      5   4   3     2.708645025188   120.10905700   359.22336198
 N      6   5   4     2.556082378033   120.60270053   180.39251203
 C      7   6   5     2.777948243836   120.61194422   166.72742138
 H      8   7   6     2.283416442587   110.78490423   208.22316329
 H      8   7   6     2.242081130210   107.69402144   327.77672562
 H      8   7   6     2.261491252143   107.20873792    88.84629356
 C      7   6   5     2.777991759136   120.61515644   346.71060692
 H     12   7   6     2.282588153535   110.78550456   208.22612370
 H     12   7   6     2.241260354535   107.69502960   327.77666532
 H     12   7   6     2.260826004039   107.22367494    88.84766580
 H      5   4   3     2.071532465381   118.91559537   182.28282636
 H      4   3   2     2.072953859925   120.15945509   181.02282612
 H      3   2   1     2.066365258548   119.87026600   180.39425056
 H      2   1   3     2.072957795708   119.47935074   179.37077225
 H      1   2   3     2.071560575329   118.91778064   182.28645684

---------------------
BASIS SET INFORMATION
---------------------
There are 3 groups of distinct atoms

 Group   1 Type C   : 7s4p1d contracted to 3s2p1d pattern {511/31/1}
 Group   2 Type N   : 7s4p1d contracted to 3s2p1d pattern {511/31/1}
 Group   3 Type H   : 4s contracted to 2s pattern {31}

Atom   0C    basis set group =>   1
Atom   1C    basis set group =>   1
Atom   2C    basis set group =>   1
Atom   3C    basis set group =>   1
Atom   4C    basis set group =>   1
Atom   5C    basis set group =>   1
Atom   6N    basis set group =>   2
Atom   7C    basis set group =>   1
Atom   8H    basis set group =>   3
Atom   9H    basis set group =>   3
Atom  10H    basis set group =>   3
Atom  11C    basis set group =>   1
Atom  12H    basis set group =>   3
Atom  13H    basis set group =>   3
Atom  14H    basis set group =>   3
Atom  15H    basis set group =>   3
Atom  16H    basis set group =>   3
Atom  17H    basis set group =>   3
Atom  18H    basis set group =>   3
Atom  19H    basis set group =>   3
---------------------------------
AUXILIARY/J BASIS SET INFORMATION
---------------------------------
There are 3 groups of distinct atoms

 Group   1 Type C   : 12s5p4d2f1g contracted to 6s4p3d1f1g pattern {711111/2111/211/2/1}
 Group   2 Type N   : 12s5p4d2f1g contracted to 6s4p3d1f1g pattern {711111/2111/211/2/1}
 Group   3 Type H   : 5s2p1d contracted to 3s1p1d pattern {311/2/1}

Atom   0C    basis set group =>   1
Atom   1C    basis set group =>   1
Atom   2C    basis set group =>   1
Atom   3C    basis set group =>   1
Atom   4C    basis set group =>   1
Atom   5C    basis set group =>   1
Atom   6N    basis set group =>   2
Atom   7C    basis set group =>   1
Atom   8H    basis set group =>   3
Atom   9H    basis set group =>   3
Atom  10H    basis set group =>   3
Atom  11C    basis set group =>   1
Atom  12H    basis set group =>   3
Atom  13H    basis set group =>   3
Atom  14H    basis set group =>   3
Atom  15H    basis set group =>   3
Atom  16H    basis set group =>   3
Atom  17H    basis set group =>   3
Atom  18H    basis set group =>   3
Atom  19H    basis set group =>   3


           ************************************************************
           *        Program running with 8 parallel MPI-processes     *
           *              working on a common directory               *
           ************************************************************
------------------------------------------------------------------------------
                             ORCA STARTUP CALCULATIONS
                           -- RI-GTO INTEGRALS CHOSEN --
------------------------------------------------------------------------------
------------------------------------------------------------------------------
                   ___                                                        
                  /   \      - P O W E R E D   B Y -                         
                 /     \                                                     
                 |  |  |   _    _      __       _____    __    __             
                 |  |  |  | |  | |    /  \     |  _  \  |  |  /  |          
                  \  \/   | |  | |   /    \    | | | |  |  | /  /          
                 / \  \   | |__| |  /  /\  \   | |_| |  |  |/  /          
                |  |  |   |  __  | /  /__\  \  |    /   |      \           
                |  |  |   | |  | | |   __   |  |    \   |  |\   \          
                \     /   | |  | | |  |  |  |  | |\  \  |  | \   \       
                 \___/    |_|  |_| |__|  |__|  |_| \__\ |__|  \__/        
                                                                              
                      - O R C A' S   B I G   F R I E N D -                    
                                      &                                       
                       - I N T E G R A L  F E E D E R -                       
                                                                              
 v1 FN, 2020, v2 2021, v3 2022-2024                                           
------------------------------------------------------------------------------


----------------------
SHARK INTEGRAL PACKAGE
----------------------

Number of atoms                             ...     20
Number of basis functions                   ...    148
Number of shells                            ...     76
Maximum angular momentum                    ...      2
Integral batch strategy                     ... SHARK/LIBINT Hybrid
RI-J (if used) integral strategy            ... SPLIT-RIJ (Revised 2003 algorithm where possible)
Printlevel                                  ...      1
Contraction scheme used                     ... SEGMENTED contraction
Prescreening option                         ... SCHWARTZ
   Thresh                                   ... 2.500e-11
   Tcut                                     ... 2.500e-12
   Tpresel                                  ... 2.500e-12 
Coulomb Range Separation                    ... NOT USED
Exchange Range Separation                   ... NOT USED
Multipole approximations                    ... NOT USED
Finite Nucleus Model                        ... NOT USED
CABS basis                                  ... NOT available
Auxiliary Coulomb fitting basis             ... AVAILABLE
   # of basis functions in Aux-J            ...    562
   # of shells in Aux-J                     ...    190
   Maximum angular momentum in Aux-J        ...      4
Auxiliary J/K fitting basis                 ... NOT available
Auxiliary Correlation fitting basis         ... NOT available
Auxiliary 'external' fitting basis          ... NOT available

Checking pre-screening integrals            ... done (  0.0 sec) Dimension = 76
Check shell pair data                       ... done (  0.0 sec)
Shell pair information
Shell pair cut-off parameter TPreSel        ...   2.5e-12
Total number of shell pairs                 ...      2926
Shell pairs after pre-screening             ...      2779
Total number of primitive shell pairs       ...     11778
Primitive shell pairs kept                  ...      7963
          la=0 lb=0:   1142 shell pairs
          la=1 lb=0:    857 shell pairs
          la=1 lb=1:    171 shell pairs
          la=2 lb=0:    406 shell pairs
          la=2 lb=1:    162 shell pairs
          la=2 lb=2:     41 shell pairs

Calculating one electron integrals          ... done (  0.0 sec)
Calculating RI/J V-Matrix + Cholesky decomp.... done (  0.0 sec)
Calculating Nuclear repulsion               ... done (  0.0 sec) ENN=    425.921980594963 Eh

Diagonalization of the overlap matrix:
Smallest eigenvalue                        ... 3.017e-04
Time for diagonalization                   ...    0.005 sec
Threshold for overlap eigenvalues          ... 1.000e-07
Number of eigenvalues below threshold      ... 0
Time for construction of square roots      ...    0.010 sec
Total time needed                          ...    0.043 sec

-------------------
DFT GRID GENERATION
-------------------

General Integration Accuracy     IntAcc      ... 4.388
Radial Grid Type                 RadialGrid  ... OptM3 with GC (2021)
Angular Grid (max. ang.)         AngularGrid ... 4 (Lebedev-302)
Angular grid pruning method      GridPruning ... 4 (adaptive)
Weight generation scheme         WeightScheme... mBecke (2022)
Basis function cutoff            BFCut       ... 1.0000e-11
Integration weight cutoff        WCut        ... 1.0000e-14
Partially contracted basis set               ... off
Rotationally invariant grid construction     ... off
Angular grids for H and He will be reduced by one unit

Total number of grid points                  ...    89350
Total number of batches                      ...     1406
Average number of points per batch           ...       63
Average number of grid points per atom       ...     4468

--------------------
COSX GRID GENERATION
--------------------

GRIDX 1
-------
General Integration Accuracy     IntAcc      ... 3.816
Radial Grid Type                 RadialGrid  ... OptM3 with GC (2021)
Angular Grid (max. ang.)         AngularGrid ... 1 (Lebedev-50)
Angular grid pruning method      GridPruning ... 4 (adaptive)
Weight generation scheme         WeightScheme... mBecke (2022)
Basis function cutoff            BFCut       ... 1.0000e-11
Integration weight cutoff        WCut        ... 1.0000e-14
Partially contracted basis set               ... on
Rotationally invariant grid construction     ... off
Angular grids for H and He will be reduced by one unit

Total number of grid points                  ...    11460
Total number of batches                      ...      100
Average number of points per batch           ...      114
Average number of grid points per atom       ...      573
UseSFitting                                  ... on

GRIDX 2
-------
General Integration Accuracy     IntAcc      ... 4.020
Radial Grid Type                 RadialGrid  ... OptM3 with GC (2021)
Angular Grid (max. ang.)         AngularGrid ... 2 (Lebedev-110)
Angular grid pruning method      GridPruning ... 4 (adaptive)
Weight generation scheme         WeightScheme... mBecke (2022)
Basis function cutoff            BFCut       ... 1.0000e-11
Integration weight cutoff        WCut        ... 1.0000e-14
Partially contracted basis set               ... on
Rotationally invariant grid construction     ... off
Angular grids for H and He will be reduced by one unit

Total number of grid points                  ...    24368
Total number of batches                      ...      199
Average number of points per batch           ...      122
Average number of grid points per atom       ...     1218
UseSFitting                                  ... on

GRIDX 3
-------
General Integration Accuracy     IntAcc      ... 4.338
Radial Grid Type                 RadialGrid  ... OptM3 with GC (2021)
Angular Grid (max. ang.)         AngularGrid ... 3 (Lebedev-194)
Angular grid pruning method      GridPruning ... 4 (adaptive)
Weight generation scheme         WeightScheme... mBecke (2022)
Basis function cutoff            BFCut       ... 1.0000e-11
Integration weight cutoff        WCut        ... 1.0000e-14
Partially contracted basis set               ... on
Rotationally invariant grid construction     ... off
Angular grids for H and He will be reduced by one unit

Total number of grid points                  ...    53327
Total number of batches                      ...      428
Average number of points per batch           ...      124
Average number of grid points per atom       ...     2666
UseSFitting                                  ... on
Initializing property integral containers    ... done (  0.1 sec)

SHARK setup successfully completed in   2.1 seconds

Maximum memory used throughout the entire STARTUP-calculation: 22.5 MB


           ************************************************************
           *        Program running with 8 parallel MPI-processes     *
           *              working on a common directory               *
           ************************************************************
-------------------------------------------------------------------------------
                                 ORCA GUESS
                   Start orbitals & Density for SCF / CASSCF
-------------------------------------------------------------------------------

------------
SCF SETTINGS
------------
Hamiltonian:
 Density Functional     Method          .... DFT(GTOs)
 Exchange Functional    Exchange        .... PBE
   PBE kappa parameter   XKappa         ....  0.804000
   PBE mue parameter    XMuePBE         ....  0.219520
 Correlation Functional Correlation     .... PBE
   PBE beta parameter  CBetaPBE         ....  0.066725
 LDA part of GGA corr.  LDAOpt          .... PW91-LDA
 Gradients option       PostSCFGGA      .... off
 Hybrid DFT is turned on
   Fraction HF Exchange ScalHFX         ....  0.250000
   Scaling of DF-GGA-X  ScalDFX         ....  0.750000
   Scaling of DF-GGA-C  ScalDFC         ....  1.000000
   Scaling of DF-LDA-C  ScalLDAC        ....  1.000000
   Perturbative correction              ....  0.000000
   NL short-range parameter             ....  6.900000
 RI-approximation to the Coulomb term is turned on
   Number of AuxJ basis functions       .... 562
   RIJ-COSX (HFX calculated with COS-X)).... on


General Settings:
 Integral files         IntName         .... cs_rporg_066_ox_opt_01
 Hartree-Fock type      HFTyp           .... UHF
 Total Charge           Charge          ....    1
 Multiplicity           Mult            ....    2
 Number of Electrons    NEL             ....   65
 Basis Dimension        Dim             ....  148
 Nuclear Repulsion      ENuc            ....    425.9219805950 Eh

Convergence Acceleration:
 AO-DIIS                CNVDIIS         .... on
   Start iteration      DIISMaxIt       ....     0
   Startup error        DIISStart       ....  0.200000
   # of expansion vecs  DIISMaxEq       ....     5
   Bias factor          DIISBfac        ....   1.050
   Max. coefficient     DIISMaxC        ....  10.000
 MO-DIIS                CNVKDIIS        .... off
 Trust-Rad. Augm. Hess. CNVTRAH         .... auto
   Auto Start mean grad. ratio tolernc. ....  1.125000
   Auto Start start iteration           ....    50
   Auto Start num. interpolation iter.  ....    10
   Max. Number of Micro iterations      ....    24
   Max. Number of Macro iterations      .... Maxiter - #DIIS iter
   Number of Davidson start vectors     ....     2
   Converg. threshold    (grad. norm)   ....   1.000e-05
   Grad. Scal. Fac. for Micro threshold ....   0.100
   Minimum threshold for Micro iter.    ....   1.000e-02
   NR start threshold (gradient norm)   ....   1.000e-04
   Initial trust radius                 ....   0.400
   Minimum AH scaling param. (alpha)    ....   1.000
   Maximum AH scaling param. (alpha)    .... 1000.000
   Quad. conv. algorithm                .... NR
   White noise on init. David. guess    .... on
   Maximum white noise                  ....   0.010
   Pseudo random numbers                .... off
   Inactive MOs                         .... canonical
   Orbital update algorithm             .... Taylor
   Preconditioner                       .... Diag
   Full preconditioner red. dimension   ....   250
 SOSCF                  CNVSOSCF        .... on
   Start iteration      SOSCFMaxIt      ....   150
   Startup grad/error   SOSCFStart      ....  0.001000
   Hessian update       SOSCFHessUp     .... L-BFGS
 Level Shifting         CNVShift        .... on
   Level shift para.    LevelShift      ....    0.2500
   Turn off err/grad.   ShiftErr        ....    0.0000
 Zerner damping         CNVZerner       .... off
 Static damping         CNVDamp         .... on
   Fraction old density DampFac         ....    0.8500
   Max. Damping (<1)    DampMax         ....    0.9800
   Min. Damping (>=0)   DampMin         ....    0.0000
   Turn off err/grad.   DampErr         ....    0.0300

SCF Procedure:
 Maximum # iterations   MaxIter         ....  1500
 SCF integral mode      SCFMode         .... Direct
   Integral package                     .... SHARK and LIBINT hybrid scheme
 Reset frequency        DirectResetFreq ....    20
 Integral Threshold     Thresh          ....  2.500e-11 Eh
 Primitive CutOff       TCut            ....  2.500e-12 Eh

Convergence Tolerance:
 Convergence Check Mode ConvCheckMode   .... Total+1el-Energy
 Convergence forced     ConvForced      .... 0
 Energy Change          TolE            ....  1.000e-08 Eh
 1-El. energy change                    ....  1.000e-05 Eh
 Orbital Gradient       TolG            ....  1.000e-05
 Orbital Rotation angle TolX            ....  1.000e-05
 DIIS Error             TolErr          ....  5.000e-07

------------------------------
INITIAL GUESS: MODEL POTENTIAL
------------------------------
Loading Hartree-Fock densities                     ... done
Calculating cut-offs                               ... done
Initializing the effective Hamiltonian             ... done
Setting up the integral package (SHARK)            ... done
Starting the Coulomb interaction                   ... done (   0.1 sec)
Making the grid                                    ... done (   0.2 sec)
Mapping shells                                     ... done
Starting the XC term evaluation                    ... done (   0.0 sec)
  promolecular density results
     # of electrons  =     65.998719809
     EX              =    -50.596392619
     EC              =     -2.162598591
     EX+EC           =    -52.758991210
Transforming the Hamiltonian                       ... done (   0.0 sec)
Diagonalizing the Hamiltonian                      ... done (   0.0 sec)
Back transforming the eigenvectors                 ... done (   0.0 sec)
Now organizing SCF variables                       ... done
                      ------------------
                      INITIAL GUESS DONE (   0.6 sec)
                      ------------------
             **** ENERGY FILE WAS UPDATED (cs_rporg_066_ox_opt_01.en.tmp) ****
Finished Guess after   1.3 sec
Maximum memory used throughout the entire GUESS-calculation: 12.1 MB


           ************************************************************
           *        Program running with 8 parallel MPI-processes     *
           *              working on a common directory               *
           ************************************************************

-------------------------------------------------------------------------------------------
                                      ORCA LEAN-SCF
                              memory conserving SCF solver
-------------------------------------------------------------------------------------------

----------------------------------------D-I-I-S--------------------------------------------
Iteration    Energy (Eh)           Delta-E    RMSDP     MaxDP     DIISErr   Damp  Time(sec)
-------------------------------------------------------------------------------------------
               ***  Starting incremental Fock matrix formation  ***
    1    -365.0952271271895029     0.00e+00  7.93e-04  1.13e-02  4.81e-02  0.850   2.5
Warning: op=1 Small HOMO/LUMO gap (   0.075) - skipping pre-diagonalization
         Will do a full diagonalization
    2    -365.1207089096041614    -2.55e-02  7.82e-04  1.03e-02  3.78e-02  0.850   2.5
                               ***Turning on AO-DIIS***
    3    -365.1385765763204176    -1.79e-02  5.06e-04  6.23e-03  2.72e-02  0.850   2.2
    4    -365.1504796960259114    -1.19e-02  2.51e-03  3.12e-02  2.17e-02  0.000   2.2
    5    -365.1990958428114595    -4.86e-02  3.11e-04  8.04e-03  7.35e-03  0.000   2.0
    6    -365.2003684150990352    -1.27e-03  1.28e-04  4.70e-03  4.35e-03  0.000   2.0
    7    -365.2006652440082348    -2.97e-04  9.68e-05  2.49e-03  1.73e-03  0.000   2.2
    8    -365.2008074716594024    -1.42e-04  7.89e-05  2.31e-03  1.63e-03  0.000   2.0
    9    -365.2008857367049472    -7.83e-05  5.77e-05  1.68e-03  1.11e-03  0.000   2.0
                              *** Initializing SOSCF ***
---------------------------------------S-O-S-C-F--------------------------------------
Iteration    Energy (Eh)           Delta-E    RMSDP     MaxDP     MaxGrad    Time(sec)
--------------------------------------------------------------------------------------
   10    -365.2009291073804320    -4.34e-05  4.42e-05  1.23e-03  5.89e-04     2.0
               *** Restarting incremental Fock matrix formation ***
   11    -365.2008945006319323     3.46e-05  3.49e-05  8.67e-04  7.69e-04     2.1
   12    -365.2009021855691913    -7.68e-06  5.31e-05  1.43e-03  7.48e-04     1.9
   13    -365.2009070606829368    -4.88e-06  1.72e-05  2.94e-04  3.52e-04     1.8
   14    -365.2009090936664393    -2.03e-06  8.16e-06  2.08e-04  7.09e-05     1.8
   15    -365.2009092664605419    -1.73e-07  3.83e-06  9.04e-05  5.96e-05     1.7
   16    -365.2009093981545789    -1.32e-07  1.43e-06  3.57e-05  1.44e-05     1.8
   17    -365.2009094011137336    -2.96e-09  6.16e-07  2.05e-05  1.07e-05     1.8
                 **** Energy Check signals convergence ****

               *****************************************************
               *                     SUCCESS                       *
               *           SCF CONVERGED AFTER  17 CYCLES          *
               *****************************************************

Recomputing exchange energy using gridx3       ... done (    1.428 sec)
Old exchange energy                            :    -12.840090843 Eh
New exchange energy                            :    -12.840108653 Eh
Exchange energy change after final integration :     -0.000017810 Eh
Total energy after final integration           :   -365.200927211 Eh
             **** ENERGY FILE WAS UPDATED (cs_rporg_066_ox_opt_01.en.tmp) ****

----------------
TOTAL SCF ENERGY
----------------

Total Energy       :       -365.20092721125928 Eh           -9937.62245 eV

Components:
Nuclear Repulsion  :        425.92198059496326 Eh           11589.92631 eV
Electronic Energy  :       -791.12288999607699 Eh          -21527.54828 eV
One Electron Energy:      -1323.82747165429760 Eh          -36023.17689 eV
Two Electron Energy:        532.70458165822060 Eh           14495.62861 eV

Virial components:
Potential Energy   :       -726.08525751934121 Eh          -19757.78432 eV
Kinetic Energy     :        360.88433030808187 Eh            9820.16188 eV
Virial Ratio       :          2.01196116467427

DFT components:
N(Alpha)           :       33.000042821649 electrons
N(Beta)            :       32.000041860924 electrons
N(Total)           :       65.000084682573 electrons
E(X)               :      -38.401780015796 Eh       
E(C)               :       -2.138389353071 Eh       
E(XC)              :      -40.540169368867 Eh       

---------------
SCF CONVERGENCE
---------------

  Last Energy change         ...    2.9592e-09  Tolerance :   1.0000e-08
  Last MAX-Density change    ...    2.0491e-05  Tolerance :   1.0000e-07
  Last RMS-Density change    ...    6.1568e-07  Tolerance :   5.0000e-09
  Last DIIS Error            ...    5.8866e-04  Tolerance :   5.0000e-07
  Last Orbital Gradient      ...    1.0746e-05  Tolerance :   1.0000e-05
  Last Orbital Rotation      ...    6.0045e-05  Tolerance :   1.0000e-05


----------------------
UHF SPIN CONTAMINATION
----------------------

Warning: in a DFT calculation there is little theoretical justification to 
         calculate <S**2> as in Hartree-Fock theory. We will do it anyways
         but you should keep in mind that the values have only limited relevance

Expectation value of <S**2>     :     0.784250
Ideal value S*(S+1) for S=0.5   :     0.750000
Deviation                       :     0.034250

----------------
ORBITAL ENERGIES
----------------
                 SPIN UP ORBITALS
  NO   OCC          E(Eh)            E(eV) 
   0   1.0000     -14.671127      -399.2217 
   1   1.0000     -10.480388      -285.1858 
   2   1.0000     -10.463877      -284.7366 
   3   1.0000     -10.463761      -284.7334 
   4   1.0000     -10.425964      -283.7049 
   5   1.0000     -10.425957      -283.7047 
   6   1.0000     -10.423295      -283.6323 
   7   1.0000     -10.410751      -283.2909 
   8   1.0000     -10.410745      -283.2908 
   9   1.0000      -1.196819       -32.5671 
  10   1.0000      -1.051403       -28.6101 
  11   1.0000      -0.954040       -25.9607 
  12   1.0000      -0.950593       -25.8670 
  13   1.0000      -0.910737       -24.7824 
  14   1.0000      -0.860885       -23.4259 
  15   1.0000      -0.793886       -21.6027 
  16   1.0000      -0.764709       -20.8088 
  17   1.0000      -0.726703       -19.7746 
  18   1.0000      -0.685160       -18.6442 
  19   1.0000      -0.679725       -18.4963 
  20   1.0000      -0.670131       -18.2352 
  21   1.0000      -0.629653       -17.1337 
  22   1.0000      -0.622283       -16.9332 
  23   1.0000      -0.618314       -16.8252 
  24   1.0000      -0.584452       -15.9037 
  25   1.0000      -0.576555       -15.6889 
  26   1.0000      -0.570810       -15.5325 
  27   1.0000      -0.555187       -15.1074 
  28   1.0000      -0.549841       -14.9619 
  29   1.0000      -0.527128       -14.3439 
  30   1.0000      -0.502097       -13.6628 
  31   1.0000      -0.452319       -12.3082 
  32   1.0000      -0.417499       -11.3607 
  33   0.0000      -0.181395        -4.9360 
  34   0.0000      -0.180379        -4.9084 
  35   0.0000      -0.100204        -2.7267 
  36   0.0000      -0.072871        -1.9829 
  37   0.0000      -0.062673        -1.7054 
  38   0.0000      -0.061591        -1.6760 
  39   0.0000      -0.056608        -1.5404 
  40   0.0000      -0.038604        -1.0505 
  41   0.0000      -0.029377        -0.7994 
  42   0.0000      -0.025809        -0.7023 
  43   0.0000      -0.013680        -0.3723 

                 SPIN DOWN ORBITALS
  NO   OCC          E(Eh)            E(eV) 
   0   1.0000     -14.659486      -398.9049 
   1   1.0000     -10.481392      -285.2132 
   2   1.0000     -10.464547      -284.7548 
   3   1.0000     -10.464430      -284.7516 
   4   1.0000     -10.422519      -283.6111 
   5   1.0000     -10.422510      -283.6109 
   6   1.0000     -10.417758      -283.4816 
   7   1.0000     -10.412683      -283.3435 
   8   1.0000     -10.412681      -283.3434 
   9   1.0000      -1.178667       -32.0732 
  10   1.0000      -1.044432       -28.4204 
  11   1.0000      -0.950361       -25.8606 
  12   1.0000      -0.943678       -25.6788 
  13   1.0000      -0.909111       -24.7382 
  14   1.0000      -0.852664       -23.2022 
  15   1.0000      -0.790513       -21.5110 
  16   1.0000      -0.760438       -20.6926 
  17   1.0000      -0.721924       -19.6446 
  18   1.0000      -0.676304       -18.4032 
  19   1.0000      -0.665281       -18.1032 
  20   1.0000      -0.655728       -17.8433 
  21   1.0000      -0.628442       -17.1008 
  22   1.0000      -0.618411       -16.8278 
  23   1.0000      -0.617086       -16.7918 
  24   1.0000      -0.580000       -15.7826 
  25   1.0000      -0.574031       -15.6202 
  26   1.0000      -0.558566       -15.1993 
  27   1.0000      -0.551600       -15.0098 
  28   1.0000      -0.547631       -14.9018 
  29   1.0000      -0.525130       -14.2895 
  30   1.0000      -0.471111       -12.8196 
  31   1.0000      -0.443636       -12.0720 
  32   0.0000      -0.316368        -8.6088 
  33   0.0000      -0.169983        -4.6255 
  34   0.0000      -0.157021        -4.2728 
  35   0.0000      -0.098298        -2.6748 
  36   0.0000      -0.070569        -1.9203 
  37   0.0000      -0.060745        -1.6529 
  38   0.0000      -0.059840        -1.6283 
  39   0.0000      -0.054660        -1.4874 
  40   0.0000      -0.036270        -0.9869 
  41   0.0000      -0.024129        -0.6566 
  42   0.0000      -0.023120        -0.6291 
*Only the first 10 virtual orbitals were printed.

                    ********************************
                    * MULLIKEN POPULATION ANALYSIS *
                    ********************************

--------------------------------------------
MULLIKEN ATOMIC CHARGES AND SPIN POPULATIONS
--------------------------------------------
   0 C :   -0.120622    0.244282
   1 C :   -0.083291   -0.155230
   2 C :   -0.030517    0.387646
   3 C :   -0.083299   -0.155247
   4 C :   -0.120583    0.244312
   5 C :    0.193022   -0.055224
   6 N :   -0.216274    0.468813
   7 C :   -0.344701   -0.038946
   8 H :    0.229686    0.013557
   9 H :    0.221410    0.011928
  10 H :    0.228452    0.039635
  11 C :   -0.344395   -0.038921
  12 H :    0.229614    0.013537
  13 H :    0.221324    0.011925
  14 H :    0.228405    0.039592
  15 H :    0.149906   -0.012178
  16 H :    0.162384    0.005806
  17 H :    0.167170   -0.018915
  18 H :    0.162385    0.005806
  19 H :    0.149923   -0.012177
Sum of atomic charges         :    1.0000000
Sum of atomic spin populations:    1.0000000

-----------------------------------------------------
MULLIKEN REDUCED ORBITAL CHARGES AND SPIN POPULATIONS
-----------------------------------------------------
CHARGE
  0 C s       :     3.233360  s :     3.233360
      pz      :     0.964893  p :     2.852321
      px      :     0.986964
      py      :     0.900464
      dz2     :     0.003457  d :     0.034941
      dxz     :     0.005605
      dyz     :     0.002921
      dx2y2   :     0.009106
      dxy     :     0.013853

  1 C s       :     3.200561  s :     3.200561
      pz      :     0.931449  p :     2.846086
      px      :     0.964201
      py      :     0.950435
      dz2     :     0.003376  d :     0.036644
      dxz     :     0.005361
      dyz     :     0.003221
      dx2y2   :     0.011514
      dxy     :     0.013172

  2 C s       :     3.210090  s :     3.210090
      pz      :     0.860702  p :     2.783740
      px      :     0.952855
      py      :     0.970182
      dz2     :     0.003467  d :     0.036687
      dxz     :     0.002507
      dyz     :     0.006031
      dx2y2   :     0.014389
      dxy     :     0.010293

  3 C s       :     3.200555  s :     3.200555
      pz      :     0.931342  p :     2.846100
      px      :     0.964309
      py      :     0.950449
      dz2     :     0.003383  d :     0.036644
      dxz     :     0.005358
      dyz     :     0.003213
      dx2y2   :     0.011508
      dxy     :     0.013181

  4 C s       :     3.233388  s :     3.233388
      pz      :     0.964595  p :     2.852254
      px      :     0.987228
      py      :     0.900431
      dz2     :     0.003446  d :     0.034941
      dxz     :     0.005611
      dyz     :     0.002930
      dx2y2   :     0.009111
      dxy     :     0.013843

  5 C s       :     2.955742  s :     2.955742
      pz      :     0.946478  p :     2.792203
      px      :     0.879559
      py      :     0.966166
      dz2     :     0.004328  d :     0.059034
      dxz     :     0.012147
      dyz     :     0.007276
      dx2y2   :     0.020120
      dxy     :     0.015163

  6 N s       :     3.460427  s :     3.460427
      pz      :     1.375450  p :     3.725641
      px      :     1.142362
      py      :     1.207829
      dz2     :     0.002180  d :     0.030206
      dxz     :     0.005760
      dyz     :     0.004125
      dx2y2   :     0.009559
      dxy     :     0.008582

  7 C s       :     3.308547  s :     3.308547
      pz      :     1.111268  p :     2.997297
      px      :     1.045317
      py      :     0.840712
      dz2     :     0.006837  d :     0.038858
      dxz     :     0.006048
      dyz     :     0.008327
      dx2y2   :     0.006550
      dxy     :     0.011096

  8 H s       :     0.770314  s :     0.770314

  9 H s       :     0.778590  s :     0.778590

 10 H s       :     0.771548  s :     0.771548

 11 C s       :     3.308078  s :     3.308078
      pz      :     1.111722  p :     2.997451
      px      :     1.044933
      py      :     0.840796
      dz2     :     0.006907  d :     0.038866
      dxz     :     0.005937
      dyz     :     0.008342
      dx2y2   :     0.006592
      dxy     :     0.011089

 12 H s       :     0.770386  s :     0.770386

 13 H s       :     0.778676  s :     0.778676

 14 H s       :     0.771595  s :     0.771595

 15 H s       :     0.850094  s :     0.850094

 16 H s       :     0.837616  s :     0.837616

 17 H s       :     0.832830  s :     0.832830

 18 H s       :     0.837615  s :     0.837615

 19 H s       :     0.850077  s :     0.850077


SPIN
  0 C s       :     0.035255  s :     0.035255
      pz      :     0.189159  p :     0.210213
      px      :     0.011700
      py      :     0.009355
      dz2     :    -0.000593  d :    -0.001186
      dxz     :    -0.000677
      dyz     :     0.000204
      dx2y2   :    -0.000098
      dxy     :    -0.000022

  1 C s       :    -0.030199  s :    -0.030199
      pz      :    -0.096441  p :    -0.128462
      px      :    -0.015230
      py      :    -0.016791
      dz2     :     0.000250  d :     0.003432
      dxz     :     0.002005
      dyz     :     0.001022
      dx2y2   :     0.000023
      dxy     :     0.000131

  2 C s       :     0.055341  s :     0.055341
      pz      :     0.303849  p :     0.334142
      px      :     0.015278
      py      :     0.015014
      dz2     :    -0.001019  d :    -0.001838
      dxz     :    -0.000158
      dyz     :    -0.000602
      dx2y2   :    -0.000046
      dxy     :    -0.000012

  3 C s       :    -0.030202  s :    -0.030202
      pz      :    -0.096420  p :    -0.128477
      px      :    -0.015265
      py      :    -0.016793
      dz2     :     0.000257  d :     0.003432
      dxz     :     0.002000
      dyz     :     0.001018
      dx2y2   :     0.000022
      dxy     :     0.000135

  4 C s       :     0.035261  s :     0.035261
      pz      :     0.189238  p :     0.210237
      px      :     0.011645
      py      :     0.009354
      dz2     :    -0.000594  d :    -0.001186
      dxz     :    -0.000678
      dyz     :     0.000206
      dx2y2   :    -0.000097
      dxy     :    -0.000023

  5 C s       :    -0.014665  s :    -0.014665
      pz      :    -0.012066  p :    -0.046882
      px      :    -0.015274
      py      :    -0.019543
      dz2     :     0.000018  d :     0.006323
      dxz     :     0.005109
      dyz     :     0.000919
      dx2y2   :    -0.000076
      dxy     :     0.000353

  6 N s       :     0.028089  s :     0.028089
      pz      :     0.395886  p :     0.442208
      px      :     0.017010
      py      :     0.029312
      dz2     :    -0.000797  d :    -0.001485
      dxz     :    -0.000476
      dyz     :    -0.000047
      dx2y2   :    -0.000091
      dxy     :    -0.000075

  7 C s       :    -0.008828  s :    -0.008828
      pz      :    -0.009742  p :    -0.033295
      px      :    -0.008336
      py      :    -0.015217
      dz2     :     0.000002  d :     0.003177
      dxz     :     0.000617
      dyz     :     0.002284
      dx2y2   :     0.000210
      dxy     :     0.000063

  8 H s       :     0.013557  s :     0.013557

  9 H s       :     0.011928  s :     0.011928

 10 H s       :     0.039635  s :     0.039635

 11 C s       :    -0.008825  s :    -0.008825
      pz      :    -0.009755  p :    -0.033273
      px      :    -0.008301
      py      :    -0.015217
      dz2     :     0.000005  d :     0.003177
      dxz     :     0.000605
      dyz     :     0.002296
      dx2y2   :     0.000219
      dxy     :     0.000053

 12 H s       :     0.013537  s :     0.013537

 13 H s       :     0.011925  s :     0.011925

 14 H s       :     0.039592  s :     0.039592

 15 H s       :    -0.012178  s :    -0.012178

 16 H s       :     0.005806  s :     0.005806

 17 H s       :    -0.018915  s :    -0.018915

 18 H s       :     0.005806  s :     0.005806

 19 H s       :    -0.012177  s :    -0.012177



                     *******************************
                     * LOEWDIN POPULATION ANALYSIS *
                     *******************************

-------------------------------------------
LOEWDIN ATOMIC CHARGES AND SPIN POPULATIONS
-------------------------------------------
   0 C :   -0.099010    0.191818
   1 C :   -0.088093   -0.086113
   2 C :   -0.033176    0.303620
   3 C :   -0.088097   -0.086125
   4 C :   -0.098989    0.191840
   5 C :    0.029556   -0.006449
   6 N :    0.082255    0.434733
   7 C :   -0.246857   -0.016759
   8 H :    0.165897    0.011128
   9 H :    0.158698    0.008910
  10 H :    0.165996    0.033092
  11 C :   -0.246840   -0.016737
  12 H :    0.165876    0.011109
  13 H :    0.158671    0.008907
  14 H :    0.165990    0.033053
  15 H :    0.158616   -0.006240
  16 H :    0.163434    0.002922
  17 H :    0.164027   -0.009392
  18 H :    0.163433    0.002922
  19 H :    0.158613   -0.006239

----------------------------------------------------
LOEWDIN REDUCED ORBITAL CHARGES AND SPIN POPULATIONS
----------------------------------------------------
CHARGE
  0 C s       :     2.905425  s :     2.905425
      pz      :     0.958929  p :     3.107082
      px      :     1.093274
      py      :     1.054880
      dz2     :     0.007174  d :     0.086502
      dxz     :     0.010819
      dyz     :     0.005261
      dx2y2   :     0.026463
      dxy     :     0.036786

  1 C s       :     2.900707  s :     2.900707
      pz      :     0.930467  p :     3.096663
      px      :     1.082738
      py      :     1.083458
      dz2     :     0.007194  d :     0.090723
      dxz     :     0.010815
      dyz     :     0.005539
      dx2y2   :     0.032078
      dxy     :     0.035097

  2 C s       :     2.915557  s :     2.915557
      pz      :     0.855164  p :     3.029447
      px      :     1.094244
      py      :     1.080039
      dz2     :     0.007048  d :     0.088171
      dxz     :     0.003664
      dyz     :     0.012200
      dx2y2   :     0.036569
      dxy     :     0.028690

  3 C s       :     2.900705  s :     2.900705
      pz      :     0.930399  p :     3.096668
      px      :     1.082809
      py      :     1.083460
      dz2     :     0.007205  d :     0.090723
      dxz     :     0.010814
      dyz     :     0.005528
      dx2y2   :     0.032067
      dxy     :     0.035110

  4 C s       :     2.905421  s :     2.905421
      pz      :     0.958900  p :     3.107066
      px      :     1.093277
      py      :     1.054889
      dz2     :     0.007157  d :     0.086502
      dxz     :     0.010826
      dyz     :     0.005276
      dx2y2   :     0.026475
      dxy     :     0.036769

  5 C s       :     2.837799  s :     2.837799
      pz      :     0.939392  p :     2.988356
      px      :     0.950867
      py      :     1.098097
      dz2     :     0.010095  d :     0.144288
      dxz     :     0.024471
      dyz     :     0.013911
      dx2y2   :     0.053900
      dxy     :     0.041911

  6 N s       :     3.098491  s :     3.098491
      pz      :     1.326912  p :     3.752550
      px      :     1.201143
      py      :     1.224495
      dz2     :     0.004060  d :     0.066704
      dxz     :     0.010238
      dyz     :     0.006796
      dx2y2   :     0.023200
      dxy     :     0.022410

  7 C s       :     3.018693  s :     3.018693
      pz      :     1.131889  p :     3.143990
      px      :     1.074482
      py      :     0.937619
      dz2     :     0.013610  d :     0.084174
      dxz     :     0.012418
      dyz     :     0.019016
      dx2y2   :     0.014824
      dxy     :     0.024306

  8 H s       :     0.834103  s :     0.834103

  9 H s       :     0.841302  s :     0.841302

 10 H s       :     0.834004  s :     0.834004

 11 C s       :     3.018471  s :     3.018471
      pz      :     1.132342  p :     3.144171
      px      :     1.074161
      py      :     0.937667
      dz2     :     0.013775  d :     0.084198
      dxz     :     0.012147
      dyz     :     0.019057
      dx2y2   :     0.014935
      dxy     :     0.024284

 12 H s       :     0.834124  s :     0.834124

 13 H s       :     0.841329  s :     0.841329

 14 H s       :     0.834010  s :     0.834010

 15 H s       :     0.841384  s :     0.841384

 16 H s       :     0.836566  s :     0.836566

 17 H s       :     0.835973  s :     0.835973

 18 H s       :     0.836567  s :     0.836567

 19 H s       :     0.841387  s :     0.841387


SPIN
  0 C s       :     0.007169  s :     0.007169
      pz      :     0.174719  p :     0.187362
      px      :     0.005121
      py      :     0.007522
      dz2     :    -0.000681  d :    -0.002713
      dxz     :    -0.001271
      dyz     :    -0.000017
      dx2y2   :    -0.000426
      dxy     :    -0.000318

  1 C s       :    -0.005252  s :    -0.005252
      pz      :    -0.078550  p :    -0.089208
      px      :    -0.005066
      py      :    -0.005592
      dz2     :     0.000368  d :     0.008347
      dxz     :     0.004759
      dyz     :     0.002213
      dx2y2   :     0.000426
      dxy     :     0.000580

  2 C s       :     0.011713  s :     0.011713
      pz      :     0.281136  p :     0.296021
      px      :     0.006857
      py      :     0.008028
      dz2     :    -0.001134  d :    -0.004114
      dxz     :    -0.000526
      dyz     :    -0.001627
      dx2y2   :    -0.000396
      dxy     :    -0.000431

  3 C s       :    -0.005252  s :    -0.005252
      pz      :    -0.078548  p :    -0.089220
      px      :    -0.005080
      py      :    -0.005592
      dz2     :     0.000380  d :     0.008347
      dxz     :     0.004752
      dyz     :     0.002205
      dx2y2   :     0.000422
      dxy     :     0.000589

  4 C s       :     0.007170  s :     0.007170
      pz      :     0.174838  p :     0.187383
      px      :     0.005026
      py      :     0.007520
      dz2     :    -0.000679  d :    -0.002713
      dxz     :    -0.001276
      dyz     :    -0.000016
      dx2y2   :    -0.000423
      dxy     :    -0.000319

  5 C s       :    -0.004220  s :    -0.004220
      pz      :    -0.005210  p :    -0.018636
      px      :    -0.008215
      py      :    -0.005211
      dz2     :     0.000194  d :     0.016407
      dxz     :     0.012406
      dyz     :     0.001926
      dx2y2   :     0.000707
      dxy     :     0.001174

  6 N s       :     0.016356  s :     0.016356
      pz      :     0.389101  p :     0.420775
      px      :     0.010299
      py      :     0.021375
      dz2     :    -0.000653  d :    -0.002398
      dxz     :    -0.000729
      dyz     :    -0.000104
      dx2y2   :    -0.000461
      dxy     :    -0.000451

  7 C s       :    -0.003888  s :    -0.003888
      pz      :    -0.004933  p :    -0.021317
      px      :    -0.005600
      py      :    -0.010784
      dz2     :     0.000266  d :     0.008446
      dxz     :     0.001510
      dyz     :     0.005466
      dx2y2   :     0.000648
      dxy     :     0.000556

  8 H s       :     0.011128  s :     0.011128

  9 H s       :     0.008910  s :     0.008910

 10 H s       :     0.033092  s :     0.033092

 11 C s       :    -0.003884  s :    -0.003884
      pz      :    -0.004947  p :    -0.021300
      px      :    -0.005569
      py      :    -0.010784
      dz2     :     0.000273  d :     0.008447
      dxz     :     0.001484
      dyz     :     0.005488
      dx2y2   :     0.000668
      dxy     :     0.000535

 12 H s       :     0.011109  s :     0.011109

 13 H s       :     0.008907  s :     0.008907

 14 H s       :     0.033053  s :     0.033053

 15 H s       :    -0.006240  s :    -0.006240

 16 H s       :     0.002922  s :     0.002922

 17 H s       :    -0.009392  s :    -0.009392

 18 H s       :     0.002922  s :     0.002922

 19 H s       :    -0.006239  s :    -0.006239



                      *****************************
                      * MAYER POPULATION ANALYSIS *
                      *****************************

  NA   - Mulliken gross atomic population
  ZA   - Total nuclear charge
  QA   - Mulliken gross atomic charge
  VA   - Mayer's total valence
  BVA  - Mayer's bonded valence
  FA   - Mayer's free valence

  ATOM       NA         ZA         QA         VA         BVA        FA
  0 C      6.1206     6.0000    -0.1206     3.8612     3.8224     0.0387
  1 C      6.0833     6.0000    -0.0833     3.8864     3.8758     0.0106
  2 C      6.0305     6.0000    -0.0305     3.8007     3.7052     0.0955
  3 C      6.0833     6.0000    -0.0833     3.8864     3.8758     0.0106
  4 C      6.1206     6.0000    -0.1206     3.8612     3.8224     0.0387
  5 C      5.8070     6.0000     0.1930     3.8052     3.8024     0.0028
  6 N      7.2163     7.0000    -0.2163     3.4652     3.2893     0.1759
  7 C      6.3447     6.0000    -0.3447     3.7111     3.7104     0.0007
  8 H      0.7703     1.0000     0.2297     0.9260     0.9259     0.0002
  9 H      0.7786     1.0000     0.2214     0.9260     0.9259     0.0001
 10 H      0.7715     1.0000     0.2285     0.9186     0.9171     0.0016
 11 C      6.3444     6.0000    -0.3444     3.7114     3.7106     0.0007
 12 H      0.7704     1.0000     0.2296     0.9261     0.9259     0.0002
 13 H      0.7787     1.0000     0.2213     0.9260     0.9259     0.0001
 14 H      0.7716     1.0000     0.2284     0.9187     0.9171     0.0016
 15 H      0.8501     1.0000     0.1499     0.9547     0.9546     0.0001
 16 H      0.8376     1.0000     0.1624     0.9439     0.9438     0.0000
 17 H      0.8328     1.0000     0.1672     0.9422     0.9419     0.0004
 18 H      0.8376     1.0000     0.1624     0.9439     0.9438     0.0000
 19 H      0.8501     1.0000     0.1499     0.9547     0.9546     0.0001

  Mayer bond orders larger than 0.100000
B(  0-C ,  1-C ) :   1.5020 B(  0-C ,  5-C ) :   1.2039 B(  0-C , 19-H ) :   0.9422 
B(  1-C ,  2-C ) :   1.3038 B(  1-C , 18-H ) :   0.9480 B(  2-C ,  3-C ) :   1.3038 
B(  2-C , 17-H ) :   0.9512 B(  3-C ,  4-C ) :   1.5020 B(  3-C , 16-H ) :   0.9480 
B(  4-C ,  5-C ) :   1.2039 B(  4-C , 15-H ) :   0.9423 B(  5-C ,  6-N ) :   1.2809 
B(  6-N ,  7-C ) :   0.9293 B(  6-N , 11-C ) :   0.9293 B(  7-C ,  8-H ) :   0.9136 
B(  7-C ,  9-H ) :   0.9098 B(  7-C , 10-H ) :   0.9012 B( 11-C , 12-H ) :   0.9137 
B( 11-C , 13-H ) :   0.9099 B( 11-C , 14-H ) :   0.9013 

-------
TIMINGS
-------

Total SCF time: 0 days 0 hours 0 min 37 sec 

Total time                  ....      37.918 sec
Sum of individual times     ....      36.935 sec  ( 97.4%)

SCF preparation             ....       0.927 sec  (  2.4%)
Fock matrix formation       ....      26.485 sec  ( 69.8%)
  Startup                   ....       2.221 sec  (  8.4% of F)
  Split-RI-J                ....       3.511 sec  ( 13.3% of F)
  Chain of spheres X        ....      11.026 sec  ( 41.6% of F)
  XC integration            ....       6.160 sec  ( 23.3% of F)
    XC Preparation          ....       0.000 sec  (  0.0% of XC)
    Basis function eval.    ....       0.966 sec  ( 15.7% of XC)
    Density eval.           ....       0.831 sec  ( 13.5% of XC)
    XC-Functional eval.     ....       0.250 sec  (  4.1% of XC)
    XC-Potential eval.      ....       0.823 sec  ( 13.4% of XC)
Diagonalization             ....       0.000 sec  (  0.0%)
Density matrix formation    ....       3.172 sec  (  8.4%)
Total Energy calculation    ....       1.309 sec  (  3.5%)
Population analysis         ....       0.312 sec  (  0.8%)
Orbital Transformation      ....       0.415 sec  (  1.1%)
Orbital Orthonormalization  ....       0.000 sec  (  0.0%)
DIIS solution               ....       3.145 sec  (  8.3%)
SOSCF solution              ....       1.171 sec  (  3.1%)
Finished LeanSCF after  38.1 sec

Maximum memory used throughout the entire LEANSCF-calculation: 18.4 MB


           ************************************************************
           *        Program running with 8 parallel MPI-processes     *
           *              working on a common directory               *
           ************************************************************

------------------------------------------------------------------------------
                         ORCA PROPERTY INTEGRAL CALCULATIONS
------------------------------------------------------------------------------

GBWName                                   ... cs_rporg_066_ox_opt_01.gbw
Number of atoms                           ...     20
Number of basis functions                 ...    148
Max core memory                           ...   3000 MB

Dipole integrals                          ... YES
Quadrupole integrals                      ...  NO
Linear momentum integrals                 ...  NO
Angular momentum integrals                ...  NO
Higher moments length integrals           ...  NO
Higher moments velocity integrals         ...  NO
Kinetic energy integrals                  ...  NO
GIAO right hand sides                     ...  NO
GIAO dipole derivative integrals          ...  NO
SOC integrals                             ...  NO
EPR diamagnetic integrals (GIAO)          ...  NO
EPR gauge integrals                       ...  NO
Field gradient integrals                  ...  NO (   0 nuclei)
Spin-dipole/Fermi contact integrals       ...  NO (   0 nuclei)
Contact density integrals                 ...  NO (   0 nuclei)
Nucleus-orbit integrals                   ...  NO (   0 nuclei)
Geometric perturbations                   ...  NO (  20 nuclei)

Choice of electric origin   ... Center of mass
Position of electric origin ... ( -0.0010,  0.0000, -0.0622) 
Choice of magnetic origin   ... GIAO
Position of magnetic origin ... (  0.0000,  0.0000,  0.0000) 

Calculating integrals                     ... Electric Dipole (Length)     done (  0.0 sec)

Property integrals calculated in   0.0 sec

Maximum memory used throughout the entire PROPINT-calculation: 9.6 MB


-------------------------------------------------------------------------------
                          DFT DISPERSION CORRECTION                            
                                                                               
                              DFTD3 V3.1  Rev 1                                
                          USING Becke-Johnson damping                          
-------------------------------------------------------------------------------
The PBE0 functional is recognized
Active option DFTDOPT                   ...         4   

molecular C6(AA) [au] = 3838.643586 


            DFT-D V3
 parameters
 s6 scaling factor         :     1.0000 
 a1 scaling factor         :     0.4145 
 s8 scaling factor         :     1.2177 
 a2 scaling factor         :     4.8593 
 ad hoc parameters k1-k3   :    16.0000     1.3333    -4.0000 

 Edisp/kcal,au: -11.017045301640  -0.017556777358 
 E6   /kcal   :  -6.983170781 
 E8   /kcal   :  -4.033874520 
 % E8         :  36.614849170 

-------------------------   ----------------
Dispersion correction           -0.017556777
-------------------------   ----------------


-------------------------   --------------------
FINAL SINGLE POINT ENERGY      -365.218483988618
-------------------------   --------------------



           ************************************************************
           *        Program running with 8 parallel MPI-processes     *
           *              working on a common directory               *
           ************************************************************
------------------------------------------------------------------------------
                         ORCA SCF GRADIENT CALCULATION
------------------------------------------------------------------------------

Nuc. rep. gradient        (SHARK) ... done (  0.0 sec)
HCore & Overlap gradient  (SHARK) ... done (  0.1 sec)
Split-RIJ-J gradient      (SHARK) ... done (  0.4 sec)
COSX-gradient                     ... done (  5.8 sec)
XC gradient                       ... done (  2.0 sec)
Dispersion correction             ... done (  0.1 sec)

-------------------
DISPERSION GRADIENT
-------------------

   1   C   :   -0.000138684    0.000246127    0.000015683
   2   C   :   -0.000258991    0.000172485    0.000023252
   3   C   :   -0.000271629    0.000000010    0.000001480
   4   C   :   -0.000259226   -0.000172471   -0.000020430
   5   C   :   -0.000138904   -0.000246123   -0.000014203
   6   C   :   -0.000002320    0.000000012   -0.000000005
   7   N   :    0.000253416   -0.000000009   -0.000001390
   8   C   :    0.000260306    0.000196538   -0.000032705
   9   H   :    0.000100026    0.000079108   -0.000027283
  10   H   :    0.000105073    0.000122237   -0.000050603
  11   H   :    0.000116011    0.000109388    0.000023185
  12   C   :    0.000260445   -0.000196374    0.000029825
  13   H   :    0.000100662   -0.000079039    0.000026343
  14   H   :    0.000105483   -0.000122392    0.000049618
  15   H   :    0.000115781   -0.000109510   -0.000024661
  16   H   :   -0.000000398   -0.000175514   -0.000017100
  17   H   :   -0.000096684   -0.000129931   -0.000012492
  18   H   :   -0.000153653    0.000000009    0.000000839
  19   H   :   -0.000096537    0.000129942    0.000013553
  20   H   :   -0.000000176    0.000175507    0.000017096

Difference to translation invariance:
           :    0.0000000000    0.0000000000   -0.0000000000

Difference to rotation invariance:
           :   -0.0000000000   -0.0000000000    0.0000000000

Norm of the Dispersion gradient    ...    0.0009946601
RMS gradient                       ...    0.0001284101
MAX gradient                       ...    0.0002716290

------------------
CARTESIAN GRADIENT
------------------

   1   C   :   -0.001292501   -0.000888562   -0.000511239
   2   C   :    0.002505262    0.001403276    0.000080506
   3   C   :   -0.001718051   -0.000004369    0.000009301
   4   C   :    0.002499790   -0.001406140   -0.000110883
   5   C   :   -0.001291282    0.000891260    0.000517757
   6   C   :    0.003672750   -0.000005423   -0.000014819
   7   N   :   -0.012978637   -0.000001926    0.000072464
   8   C   :   -0.017896559   -0.019966657    0.004900431
   9   H   :    0.048231863   -0.007635341   -0.023629856
  10   H   :   -0.030962339    0.023467035   -0.029350009
  11   H   :    0.003917609    0.014041144    0.043891209
[...]
     41      -0.345518  -0.016461  -0.019522  -0.016136  -0.034123  -0.032320
     42       0.001763   0.000439   0.000434   0.000460   0.001105   0.001143
     43      -0.030859  -0.002196  -0.002089  -0.001911  -0.003924  -0.004112
     44      -0.052723  -0.004022  -0.003995  -0.003420  -0.007464  -0.007987
     45       0.032944  -0.065138  -0.092861  -0.108047  -0.332044  -0.313671
     46      -0.060291   0.119334   0.169789   0.196130   0.591972   0.559560
     47      -0.006237   0.011156   0.015736   0.018147   0.054485   0.051422
     48       0.009469  -0.261993  -0.338551  -0.199232   0.100037   0.124038
     49       0.016587  -0.448298  -0.583650  -0.349077   0.169069   0.211561
     50       0.001229  -0.033880  -0.044110  -0.026352   0.012891   0.016198
     51      -0.007444   0.642027  -0.000295  -0.751304   0.001367   0.122660
     52       0.000001  -0.000032   0.004098   0.000034  -0.001898   0.000013
     53       0.000040  -0.003469   0.000020   0.004058  -0.000025  -0.000662
     54       0.009458  -0.261470   0.337973  -0.199108  -0.097151   0.125901
     55      -0.016596   0.448173  -0.583647   0.349462   0.164421  -0.215074
     56      -0.001332   0.036711  -0.047781   0.028543   0.013591  -0.017832
     57       0.033007  -0.065204   0.093007  -0.108210   0.326043  -0.321226
     58       0.060261  -0.119207   0.169704  -0.196031   0.580119  -0.571902
     59       0.005880  -0.010443   0.014728  -0.016976   0.049890  -0.049103


-----------
IR SPECTRUM
-----------

 Mode   freq       eps      Int      T**2         TX        TY        TZ
       cm**-1   L/(mol*cm) km/mol    a.u.
----------------------------------------------------------------------------
  6:     68.13   0.000005    0.02  0.000023  ( 0.000171 -0.004340  0.001910)
  7:     83.80   0.000050    0.25  0.000188  ( 0.013700  0.000030 -0.000095)
  8:    128.39   0.000043    0.22  0.000106  ( 0.010282  0.000008 -0.000076)
  9:    134.07   0.000498    2.52  0.001160  ( 0.000177 -0.000468  0.034056)
 10:    281.97   0.000200    1.01  0.000221  ( 0.000095  0.002375  0.014686)
 11:    346.22   0.000558    2.82  0.000503  ( 0.000116  0.000891  0.022404)
 12:    391.26   0.000096    0.48  0.000076  ( 0.008731 -0.000006 -0.000046)
 13:    421.30   0.000442    2.23  0.000327  (-0.018085 -0.000003  0.000096)
 14:    482.65   0.000406    2.05  0.000262  (-0.000019  0.015472 -0.004774)
 15:    514.29   0.000285    1.44  0.000173  ( 0.000038 -0.010439  0.007990)
 16:    542.71   0.000091    0.46  0.000053  ( 0.007248 -0.000017 -0.000034)
 17:    600.80   0.000188    0.95  0.000098  (-0.000007  0.009894 -0.000026)
 18:    662.16   0.008273   41.81  0.003899  (-0.000332  0.006359 -0.062114)
 19:    752.41   0.000278    1.40  0.000115  (-0.010731  0.000004  0.000057)
 20:    804.37   0.007230   36.54  0.002805  ( 0.000283 -0.002368  0.052907)
 21:    809.67   0.000081    0.41  0.000031  (-0.005597  0.000001  0.000037)
 22:    946.40   0.000554    2.80  0.000183  (-0.000075  0.001330 -0.013448)
 23:    970.00   0.001687    8.53  0.000543  (-0.023299  0.000005  0.000123)
 24:    994.27   0.000977    4.94  0.000307  ( 0.017515  0.000002 -0.000097)
 25:   1009.71   0.000015    0.08  0.000005  ( 0.002169  0.000002 -0.000014)
 26:   1034.42   0.000101    0.51  0.000031  ( 0.000055 -0.001335  0.005367)
 27:   1042.76   0.002009   10.15  0.000601  (-0.024518  0.000002  0.000137)
 28:   1076.62   0.004111   20.78  0.001192  ( 0.034515  0.000487 -0.000286)
 29:   1077.13   0.001153    5.83  0.000334  (-0.000960  0.017895 -0.003609)
 30:   1130.79   0.000965    4.88  0.000266  (-0.000023 -0.015441 -0.005288)
 31:   1142.93   0.000037    0.19  0.000010  ( 0.000015  0.003159  0.000499)
 32:   1179.59   0.000607    3.07  0.000161  ( 0.012673 -0.000024 -0.000066)
 33:   1181.15   0.000294    1.49  0.000078  ( 0.000030  0.008659 -0.001673)
 34:   1217.62   0.000951    4.81  0.000244  (-0.015612  0.000005  0.000086)
 35:   1255.25   0.001445    7.30  0.000359  (-0.000009  0.018901 -0.001455)
 36:   1358.13   0.000209    1.05  0.000048  (-0.000036  0.000252 -0.006918)
 37:   1406.86   0.009356   47.28  0.002075  ( 0.045554 -0.000021 -0.000250)
 38:   1424.55   0.000204    1.03  0.000045  (-0.000044 -0.003157 -0.005901)
 39:   1427.26   0.003049   15.41  0.000667  ( 0.000053  0.025237  0.005458)
 40:   1444.27   0.003618   18.28  0.000782  (-0.027957  0.000021  0.000153)
 41:   1469.24   0.003029   15.31  0.000643  (-0.000066  0.018496 -0.017354)
 42:   1482.49   0.000613    3.10  0.000129  (-0.011361 -0.000070 -0.000163)
 43:   1482.79   0.006252   31.60  0.001316  ( 0.000116  0.008667  0.035224)
 44:   1501.46   0.001681    8.49  0.000349  ( 0.018691 -0.000092 -0.000052)
 45:   1505.42   0.002209   11.16  0.000458  (-0.000047 -0.020766  0.005161)
 46:   1541.08   0.000640    3.23  0.000129  (-0.011380 -0.000017  0.000059)
 47:   1592.91   0.000886    4.48  0.000173  (-0.000001 -0.013171  0.000044)
 48:   1651.52   0.021970  111.03  0.004151  ( 0.064430  0.000003 -0.000350)
 49:   3048.38   0.000204    1.03  0.000021  ( 0.000034  0.003991  0.002217)
 50:   3052.07   0.000603    3.05  0.000062  (-0.007850  0.000010  0.000045)
 51:   3158.95   0.000559    2.82  0.000055  (-0.000010 -0.006169 -0.004139)
 52:   3162.18   0.000271    1.37  0.000027  ( 0.005172  0.000016 -0.000016)
 53:   3203.98   0.000010    0.05  0.000001  ( 0.000009 -0.000717 -0.000646)
 54:   3205.46   0.000636    3.22  0.000062  ( 0.007871 -0.000004 -0.000038)
 55:   3224.49   0.000000    0.00  0.000000  ( 0.000188  0.000000 -0.000002)
 56:   3232.16   0.000138    0.70  0.000013  (-0.000002 -0.003651 -0.000177)
 57:   3240.15   0.000253    1.28  0.000024  (-0.004937  0.000003  0.000030)
 58:   3253.24   0.000769    3.89  0.000074  ( 0.000038  0.008492  0.001295)
 59:   3253.98   0.000066    0.33  0.000006  ( 0.002518 -0.000089 -0.000028)

* The epsilon (eps) is given for a Dirac delta lineshape.
** The dipole moment derivative (T) already includes vibrational overlap.

The first frequency considered to be a vibration is 6
The total number of vibrations considered is 54


--------------------------
THERMOCHEMISTRY AT 298.15K
--------------------------

Temperature         ...   298.15 K
Pressure            ...     1.00 atm
Total Mass          ...   121.18 AMU
Quasi RRHO          ...     True
Cut-Off Frequency   ...     1.00 cm^-1

Throughout the following assumptions are being made:
  (1) The electronic state is orbitally nondegenerate
      but the spin degeneracy is treated
  (2) There are no thermally accessible electronically excited states
  (3) Hindered rotations indicated by low frequency modes are not
      treated as such but are treated as vibrations and this may
      cause some error
  (4) All equations used are the standard statistical mechanics
      equations for an ideal gas
  (5) All vibrations are strictly harmonic

freq.      68.13  E(vib)   ...       0.50 
freq.      83.80  E(vib)   ...       0.48 
freq.     128.39  E(vib)   ...       0.43 
freq.     134.07  E(vib)   ...       0.42 
freq.     281.97  E(vib)   ...       0.28 
freq.     346.22  E(vib)   ...       0.23 
freq.     391.26  E(vib)   ...       0.20 
freq.     421.30  E(vib)   ...       0.18 
freq.     482.65  E(vib)   ...       0.15 
freq.     514.29  E(vib)   ...       0.13 
freq.     542.71  E(vib)   ...       0.12 
freq.     600.80  E(vib)   ...       0.10 
freq.     662.16  E(vib)   ...       0.08 
freq.     752.41  E(vib)   ...       0.06 
freq.     804.37  E(vib)   ...       0.05 
freq.     809.67  E(vib)   ...       0.05 
freq.     946.40  E(vib)   ...       0.03 
freq.     970.00  E(vib)   ...       0.03 
freq.     994.27  E(vib)   ...       0.02 
freq.    1009.71  E(vib)   ...       0.02 
freq.    1034.42  E(vib)   ...       0.02 
freq.    1042.76  E(vib)   ...       0.02 
freq.    1076.62  E(vib)   ...       0.02 
freq.    1077.13  E(vib)   ...       0.02 
freq.    1130.79  E(vib)   ...       0.01 
freq.    1142.93  E(vib)   ...       0.01 
freq.    1179.59  E(vib)   ...       0.01 
freq.    1181.15  E(vib)   ...       0.01 
freq.    1217.62  E(vib)   ...       0.01 
freq.    1255.25  E(vib)   ...       0.01 
freq.    1358.13  E(vib)   ...       0.01 
freq.    1406.86  E(vib)   ...       0.00 
freq.    1424.55  E(vib)   ...       0.00 
freq.    1427.26  E(vib)   ...       0.00 
freq.    1444.27  E(vib)   ...       0.00 
freq.    1469.24  E(vib)   ...       0.00 
freq.    1482.49  E(vib)   ...       0.00 
freq.    1482.79  E(vib)   ...       0.00 
freq.    1501.46  E(vib)   ...       0.00 
freq.    1505.42  E(vib)   ...       0.00 
freq.    1541.08  E(vib)   ...       0.00 
freq.    1592.91  E(vib)   ...       0.00 
freq.    1651.52  E(vib)   ...       0.00 
freq.    3048.38  E(vib)   ...       0.00 
freq.    3052.07  E(vib)   ...       0.00 
freq.    3158.95  E(vib)   ...       0.00 
freq.    3162.18  E(vib)   ...       0.00 
freq.    3203.98  E(vib)   ...       0.00 
freq.    3205.46  E(vib)   ...       0.00 
freq.    3224.49  E(vib)   ...       0.00 
freq.    3232.16  E(vib)   ...       0.00 
freq.    3240.15  E(vib)   ...       0.00 
freq.    3253.24  E(vib)   ...       0.00 
freq.    3253.98  E(vib)   ...       0.00 

------------
INNER ENERGY
------------

The inner energy is: U= E(el) + E(ZPE) + E(vib) + E(rot) + E(trans)
    E(el)   - is the total energy from the electronic structure calculation
              = E(kin-el) + E(nuc-el) + E(el-el) + E(nuc-nuc)
    E(ZPE)  - the the zero temperature vibrational energy from the frequency calculation
    E(vib)  - the the finite temperature correction to E(ZPE) due to population
              of excited vibrational states
    E(rot)  - is the rotational thermal energy
    E(trans)- is the translational thermal energy

Summary of contributions to the inner energy U:
Electronic energy                ...   -365.25087033 Eh
Zero point energy                ...      0.17452092 Eh     109.51 kcal/mol
Thermal vibrational correction   ...      0.00597054 Eh       3.75 kcal/mol
Thermal rotational correction    ...      0.00141627 Eh       0.89 kcal/mol
Thermal translational correction ...      0.00141627 Eh       0.89 kcal/mol
-----------------------------------------------------------------------
Total thermal energy                   -365.06754632 Eh


Summary of corrections to the electronic energy:
(perhaps to be used in another calculation)
Total thermal correction                  0.00880309 Eh       5.52 kcal/mol
Non-thermal (ZPE) correction              0.17452092 Eh     109.51 kcal/mol
-----------------------------------------------------------------------
Total correction                          0.18332401 Eh     115.04 kcal/mol


--------
ENTHALPY
--------

The enthalpy is H = U + kB*T
                kB is Boltzmann's constant
Total thermal energy              ...   -365.06754632 Eh 
Thermal Enthalpy correction       ...      0.00094421 Eh       0.59 kcal/mol
-----------------------------------------------------------------------
Total Enthalpy                    ...   -365.06660211 Eh


Note: Only C1 symmetry has been detected, increase convergence thresholds 
      if your molecule has a higher symmetry. Symmetry factor of 1.0 is   
      used for the rotational entropy correction. 
 

Note: Rotational entropy computed according to Herzberg 
Infrared and Raman Spectra, Chapter V,1, Van Nostrand Reinhold, 1945 
Point Group:  C1, Symmetry Number:   1  
Rotational constants in cm-1:     0.115459     0.040921     0.030704 

Vibrational entropy computed according to the QRRHO of S. Grimme
Chem.Eur.J. 2012 18 9955 using a reference frequency of 100.0 cm-1


-------
ENTROPY
-------

The entropy contributions are T*S = T*(S(el)+S(vib)+S(rot)+S(trans))
     S(el)   - electronic entropy
     S(vib)  - vibrational entropy
     S(rot)  - rotational entropy
     S(trans)- translational entropy
The entropies will be listed as multiplied by the temperature to get
units of energy

Electronic entropy                ...      0.00065446 Eh      0.41 kcal/mol
Vibrational entropy               ...      0.01019896 Eh      6.40 kcal/mol
Rotational entropy                ...      0.01368330 Eh      8.59 kcal/mol
Translational entropy             ...      0.01914335 Eh     12.01 kcal/mol
-----------------------------------------------------------------------
Final entropy term                ...      0.04368006 Eh     27.41 kcal/mol

In case the symmetry of your molecule has not been determined correctly
or in case you have a reason to use a different symmetry number we print 
out the resulting rotational entropy values for sn=1,12:

 non-linear molecules -----------------------------------
|  sn= 1 | S(rot)=       0.01368330 Eh      8.59 kcal/mol|
|  sn= 2 | S(rot)=       0.01302884 Eh      8.18 kcal/mol|
|  sn= 3 | S(rot)=       0.01264601 Eh      7.94 kcal/mol|
|  sn= 4 | S(rot)=       0.01237438 Eh      7.77 kcal/mol|
|  sn= 5 | S(rot)=       0.01216369 Eh      7.63 kcal/mol|
|  sn= 6 | S(rot)=       0.01199155 Eh      7.52 kcal/mol|
|  sn= 7 | S(rot)=       0.01184600 Eh      7.43 kcal/mol|
|  sn= 8 | S(rot)=       0.01171993 Eh      7.35 kcal/mol|
|  sn= 9 | S(rot)=       0.01160872 Eh      7.28 kcal/mol|
|  sn=10 | S(rot)=       0.01150924 Eh      7.22 kcal/mol|
|  sn=11 | S(rot)=       0.01141925 Eh      7.17 kcal/mol|
|  sn=12 | S(rot)=       0.01133709 Eh      7.11 kcal/mol|
 linear molecules ---------------------------------------
|  Dinfh | S(rot)=       0.00861474 Eh      5.41 kcal/mol|
|  Cinfv | S(rot)=       0.00926920 Eh      5.82 kcal/mol|
 --------------------------------------------------------


-------------------
GIBBS FREE ENERGY
-------------------

The Gibbs free energy is G = H - T*S

Total enthalpy                    ...   -365.06660211 Eh 
Total entropy correction          ...     -0.04368006 Eh    -27.41 kcal/mol
-----------------------------------------------------------------------
Final Gibbs free energy         ...   -365.11028218 Eh

For completeness - the Gibbs free energy minus the electronic energy
G-E(el)                           ...      0.14058815 Eh     88.22 kcal/mol


Maximum memory used throughout the entire PROP-calculation: 90.2 MB

--------------------------------
SUGGESTED CITATIONS FOR THIS RUN
--------------------------------

Below you find a list of papers that are relevant to this ORCA run
We neither can nor want to force you to cite these papers, but we appreciate if you do
You receive ORCA, which is the product of decades of hard work by many enthusiastic individuals, for free
The only thing we kindly ask in return is that you cite our papers,
We deeply appreciate it, if you show your appreciation for ORCA by not just citing the generic ORCA reference.

Please note that relegating all ORCA citations to the supporting information does *not* help us.
SI sections are not indexed - citations you put there will not count into any citation statistics
But we need these citations in order to attract the funding resources that allow us to do what we are doing

Therefore, if you are a happy ORCA user, please consider citing a few of the papers listed below in the main body of your paper

In addition to the list printed below, the program has created the file cs_rporg_066_ox_opt_01.bibtex that contains the list in bibtex format
You can import this file easily into all common literature databanks and citation aid programs


List of essential papers. We consider these as the minimum necessary citations

  1. Neese,F.
     Software update: the ORCA program system, version 5.0
     WIRES Comput. Molec. Sci., 2022 12(1)e1606
     doi.org/10.1002/wcms.1606

List of papers to cite with high priority. The work reported in these papers was absolutely
necessary for this run to complete.
Our perspective: the developers of density functionals and basis sets usually get cited in chemistry papers
Good! But without the algorithms to do something with them, the functionals or basis sets would not do anything.
Hence, in our opinion, the algorithm design and method developments papers are equally worthy of getting cited

  1. Neese,F.
     An improvement of the resolution of the identity approximation for the formation of the Coulomb matrix
     J. Comp. Chem., 2003 24(14)1740-1747
     doi.org/10.1002/jcc.10318
  2. Neese,F.; Wennmohs,F.; Hansen,A.; Becker,U.
     Efficient, approximate and parallel Hartree-Fock and hybrid DFT calculations. A 'chain-of-spheres' algorithm for the Hartree-Fock exchange
     Chem. Phys., 2009 356(1-3)98-109
     doi.org/10.1016/j.chemphys.2008.10.036
  3. Bykov,D.; Petrenko,T.; Izsak,R.; Kossmann,S.; Becker,U.; Valeev,E.; Neese,F.
     Efficient implementation of the analytic second derivatives of Hartree-Fock and hybrid DFT energies: a detailed analysis of different approximations
     Molec. Phys., 2015 113 1961-1977
     doi.org/10.1080/00268976.2015.1025114
  4. Helmich-Paris,B.; de Souza,B.; Neese,F.; Izsák,R.
     An improved chain of spheres for exchange algorithm
     J. Chem. Phys., 2021 155 104109
     doi.org/doi: 10.1063/5.0058766.
  5. Neese,F.
     The SHARK Integral Generation and Digestion System
     J. Comp. Chem., 2022  1-16
     doi.org/10.1002/jcc.26942
  6. Grimme,S.; Antony,J.; Ehrlich,S.; Krieg,H.
     A consistent and accurate ab initio parametrization of density functional dispersion correction (DFT-D) for the 94 elements H-Pu
     J. Chem. Phys., 2010 132 154104-XXXX
     doi.org/10.1063/1.3382344
  7. Grimme,S.; Ehrlich,S.; Goerigk,L.
     Effect of the damping function in dispersion corrected density functional theory
     J. Comput. Chem., 2011 32(7)1456-1465
     doi.org/10.1002/jcc.21759

List of suggested additional citations. These are papers that are important in the 'surrounding' of 
of this run, or papers that preceded the highly important papers. If you like your results we are grateful for a citation.

  1. Izsak,R.; Neese,F.
     An overlap fitted chain of spheres exchange method
     J. Chem. Phys., 2011 135 144105
     doi.org/10.1063/1.3646921
  2. Izsak,R.; Hansen,A.; Neese,F.
     The resolution of identity and chain of spheres approximations for the LPNO-CCSD singles Fock term
     Molec. Phys., 2012 110 2413-2417
     doi.org/10.1080/00268976.2012.687466
  3. Neese,F.
     The ORCA program system
     WIRES Comput. Molec. Sci., 2012 2(1)73-78
     doi.org/10.1002/wcms.81
  4. Izsak,R.; Neese,F.; Klopper,W.
     Robust fitting techniques in the chain of spheres approximation to the Fock exchange: The role of the complementary space
     J. Chem. Phys., 2013 139 
     doi.org/10.1063/1.4819264
  5. Neese,F.
     Software update: the ORCA program system, version 4.0
     WIRES Comput. Molec. Sci., 2018 8(1)1-6
     doi.org/10.1002/wcms.1327
  6. Neese,F.; Wennmohs,F.; Becker,U.; Riplinger,C.
     The ORCA quantum chemistry program package
     J. Chem. Phys., 2020 152 Art. No. L224108
     doi.org/10.1063/5.0004608

List of optional additional citations

  1. Neese,F.
     Approximate second-order SCF convergence for spin unrestricted wavefunctions
     Chem. Phys. Lett., 2000 325(1-3)93-98
     doi.org/10.1016/s0009-2614(00)00662-x

Timings for individual modules:

Sum of individual times          ...      503.797 sec (=   8.397 min)
Startup calculation              ...       24.988 sec (=   0.416 min)   5.0 %
SCF iterations                   ...      178.155 sec (=   2.969 min)  35.4 %
Property integrals               ...       53.516 sec (=   0.892 min)  10.6 %
SCF Response                     ...      104.147 sec (=   1.736 min)  20.7 %
Property calculations            ...       81.408 sec (=   1.357 min)  16.2 %
SCF Gradient evaluation          ...       61.252 sec (=   1.021 min)  12.2 %
Geometry relaxation              ...        0.331 sec (=   0.006 min)   0.1 %
                             ****ORCA TERMINATED NORMALLY****
TOTAL RUN TIME: 0 days 0 hours 8 minutes 44 seconds 518 msec
